Title
81383
    1CHL1    C3    1   4.458   1.742  10.333 -0.4706 -0.6812 -0.1929
    1CHL1    H3    2   4.379   1.688  10.277 -0.7317 -0.5756  0.0733
    1CHL1    O3    3   4.426   1.742  10.470 -0.3247  0.5456  0.1874
    1CHL1   H3'    4   4.440   1.652  10.499  0.5540  0.6253  0.0399
    1CHL1    C4    5   4.586   1.664  10.321 -0.1147  0.3244  0.7428
    1CHL1   H4A    6   4.662   1.708  10.388 -1.6452  2.6838  1.0664
    1CHL1   H4B    7   4.570   1.563  10.365 -2.3515  1.2089  2.1768
    1CHL1    C5    8   4.639   1.663  10.178 -0.1283 -0.0955 -0.1362
    1CHL1    C6    9   4.654   1.548  10.115 -0.5793  0.7623  0.2954
    1CHL1    H6   10   4.644   1.446  10.156  2.3405  0.5688  0.7323
    1CHL1    C7   11   4.719   1.537   9.978  0.0260 -0.0445 -0.1035
    1CHL1   H7A   12   4.805   1.467   9.984  1.4094  1.6416  0.7631
    1CHL1   H7B   13   4.650   1.497   9.901  1.7105 -1.7429 -0.8210
    1CHL1    C8   14   4.757   1.673   9.912  0.4031 -0.3982 -0.3701
    1CHL1    H8   15   4.860   1.699   9.946  0.5039 -1.5093  0.2157
    1CHL1   C14   16   4.754   1.651   9.764  0.4789 -0.2312 -0.9727
    1CHL1   H14   17   4.650   1.619   9.739 -0.4241  1.0284  0.8846
    1CHL1   C15   18   4.839   1.545   9.699 -1.3690  0.4834  0.3619
    1CHL1  H15A   19   4.939   1.545   9.747 -0.7585  1.6448 -0.8377
    1CHL1  H15B   20   4.795   1.443   9.711 -0.1752 -0.0209  0.5821
    1CHL1   C16   21   4.857   1.590   9.555  0.1540 -0.4063 -0.4293
    1CHL1  H16A   22   4.963   1.608   9.530  0.4298 -0.3404  0.7431
    1CHL1  H16B   23   4.798   1.516   9.497  1.5024 -2.4443  0.6825
    1CHL1   C17   24   4.779   1.732   9.538 -0.3597 -0.7227  0.1594
    1CHL1   H17   25   4.674   1.707   9.513 -0.3281 -2.8076  1.7995
    1CHL1   C13   26   4.778   1.790   9.681 -0.4208  0.8623  0.3449
    1CHL1   C18   27   4.921   1.845   9.719  0.6326 -0.4493  0.3158
    1CHL1  H18A   28   4.998   1.765   9.713  1.2231  0.0522  0.9425
    1CHL1  H18B   29   4.952   1.932   9.657 -2.4877  0.8727  0.4428
    1CHL1  H18C   30   4.932   1.891   9.820 -0.3076 -0.4105  0.4083
    1CHL1   C12   31   4.664   1.889   9.722 -1.1604  0.1901 -0.2274
    1CHL1  H12A   32   4.672   1.985   9.667  0.5420  1.4821  2.0922
    1CHL1  H12B   33   4.576   1.837   9.680  0.4422 -0.5772 -2.8503
    1CHL1   C11   34   4.663   1.917   9.873 -0.0685  0.0251 -0.1607
    1CHL1  H11A   35   4.762   1.961   9.899  0.7287 -2.4914  1.4565
    1CHL1  H11B   36   4.584   1.984   9.914  0.9534 -0.1100  2.2176
    1CHL1    C9   37   4.655   1.783   9.957 -0.0069 -0.2593  0.8258
    1CHL1    H9   38   4.560   1.742   9.917  0.2661  0.8956 -1.1496
    1CHL1   C10   39   4.650   1.805  10.108  0.0949  0.0428 -0.4625
    1CHL1   C19   40   4.777   1.879  10.156  0.4084 -0.1027  0.7451
    1CHL1  H19A   41   4.866   1.812  10.148 -0.8951 -1.8458  0.0086
    1CHL1  H19B   42   4.788   1.974  10.099 -0.0789  1.2081  2.7512
    1CHL1  H19C   43   4.764   1.921  10.257  0.9151  0.7212  0.4737
    1CHL1    C1   44   4.529   1.903  10.145  0.6070  0.7418  0.2536
    1CHL1   H1A   45   4.546   2.007  10.110  2.7493 -0.0381 -1.2286
    1CHL1   H1B   46   4.442   1.862  10.090  0.4285  1.0798  0.2845
    1CHL1    C2   47   4.481   1.895  10.297 -0.3942  0.5665  0.0247
    1CHL1   H2A   48   4.379   1.932  10.319 -1.2802 -0.5867 -1.8350
    1CHL1   H2B   49   4.558   1.934  10.367  1.0551 -0.0430 -1.1690
    1CHL1   C20   50   4.836   1.814   9.421  0.3543 -0.3693 -0.3801
    1CHL1   H20   51   4.940   1.846   9.440 -0.8206  3.7466  0.2589
    1CHL1   C21   52   4.773   1.957   9.409 -0.4195 -0.1522  0.6298
    1CHL1  H21A   53   4.662   1.961   9.406 -0.4150 -0.2119  0.2814
    1CHL1  H21B   54   4.823   1.993   9.316 -0.7581 -0.4779  0.3134
    1CHL1  H21C   55   4.814   2.033   9.478  1.8797  0.7122 -1.5104
    1CHL1   C22   56   4.830   1.746   9.284  0.8807 -0.9890  1.2727
    1CHL1  H22A   57   4.888   1.803   9.209  0.2964 -1.3333  0.5528
    1CHL1  H22B   58   4.875   1.645   9.291 -1.5182 -2.2729 -0.4699
    1CHL1   C23   59   4.689   1.727   9.223  0.5220  0.3018 -0.1441
    1CHL1  H23A   60   4.617   1.697   9.302 -0.2993  2.3220 -0.0652
    1CHL1  H23B   61   4.654   1.823   9.180  0.1229  0.0526 -0.3899
    1CHL1   C24   62   4.692   1.624   9.105  0.3175 -0.5218  0.0231
    1CHL1  H24A   63   4.748   1.538   9.147 -0.1005 -0.6601  0.3000
    1CHL1  H24B   64   4.588   1.587   9.088  1.3917 -2.8088 -2.3308
    1CHL1   C25   65   4.756   1.677   8.982  0.1617 -0.4084 -0.7676
    1CHL1   H25   66   4.851   1.722   9.018  0.5167 -2.1854  0.6152
    1CHL1   C26   67   4.799   1.555   8.902  0.2634 -0.1360  0.4244
    1CHL1  H26A   68   4.862   1.486   8.962 -1.1787 -1.4794  0.4381
    1CHL1  H26B   69   4.713   1.500   8.858  0.7299 -1.4555  1.1282
    1CHL1  H26C   70   4.870   1.576   8.819  2.0950 -2.0544  1.4243
    1CHL1   C27   71   4.672   1.780   8.896 -0.6764  0.0698 -0.2163
    1CHL1  H27A   72   4.635   1.867   8.953  0.5068  0.8822 -0.6380
    1CHL1  H27B   73   4.728   1.819   8.807 -1.1546 -2.0738 -1.5454
    1CHL1  H27C   74   4.588   1.723   8.852 -1.3125  0.6118  0.2854
    2CHL1    C3   75   5.042   6.161  10.014  0.2339 -0.2143  0.3178
    2CHL1    H3   76   5.047   6.051  10.002 -1.9044 -0.4626  1.2474
    2CHL1    O3   77   5.103   6.194  10.141 -0.2624 -0.0187 -0.0739
    2CHL1   H3'   78   5.130   6.286  10.131  1.3534 -0.6350 -2.1999
    2CHL1    C4   79   5.122   6.222   9.891 -0.1370  0.8128 -0.5384
    2CHL1   H4A   80   5.132   6.330   9.912 -2.4402  0.9714  0.0013
    2CHL1   H4B   81   5.225   6.182   9.896 -0.9897 -1.5067 -0.1367
    2CHL1    C5   82   5.056   6.198   9.756  0.3747 -0.0617 -0.3796
    2CHL1    C6   83   5.117   6.142   9.650 -0.5896 -0.5899 -0.0629
    2CHL1    H6   84   5.224   6.117   9.658 -0.4238  0.1710  0.1940
    2CHL1    C7   85   5.059   6.134   9.515 -0.2914  0.3745  0.0623
    2CHL1   H7A   86   5.141   6.182   9.456 -0.0805  0.7498  0.6474
    2CHL1   H7B   87   5.044   6.028   9.486 -0.1143  0.1627  0.7175
    2CHL1    C8   88   4.931   6.221   9.504 -1.0277 -0.0081  0.1984
    2CHL1    H8   89   4.948   6.331   9.507  0.8154 -0.2762  1.1118
    2CHL1   C14   90   4.861   6.197   9.371 -0.3295 -0.2768  0.1271
    2CHL1   H14   91   4.834   6.090   9.372  2.0321 -0.9331  0.5978
    2CHL1   C15   92   4.951   6.202   9.251 -0.1650  0.9732  0.3122
    2CHL1  H15A   93   5.015   6.292   9.266 -0.6380  1.2990  0.4026
    2CHL1  H15B   94   4.997   6.103   9.231 -2.4139  0.1016 -0.8252
    2CHL1   C16   95   4.853   6.238   9.142  0.0950  0.1522 -0.3503
    2CHL1  H16A   96   4.871   6.343   9.110  1.2719 -0.6268 -2.4761
    2CHL1  H16B   97   4.856   6.177   9.049 -0.5425 -2.2714  1.1266
    2CHL1   C17   98   4.708   6.230   9.210  0.2854  0.2916 -0.2169
    2CHL1   H17   99   4.693   6.120   9.211  0.7187  0.2311  1.0014
    2CHL1   C13  100   4.737   6.274   9.355  0.7219 -0.0481 -0.5088
    2CHL1   C18  101   4.757   6.424   9.361 -0.3270  0.0287 -0.2599
    2CHL1  H18A  102   4.839   6.448   9.290  0.8289  0.4508  1.1869
    2CHL1  H18B  103   4.660   6.478   9.363  0.2656  1.1243 -0.4980
    2CHL1  H18C  104   4.800   6.450   9.460 -0.6553 -2.8995  0.7483
    2CHL1   C12  105   4.639   6.211   9.459  0.4835  0.5195 -0.0752
    2CHL1  H12A  106   4.538   6.257   9.453  0.0380 -0.6137 -2.1626
    2CHL1  H12B  107   4.626   6.101   9.468  0.1429  0.6824  1.8693
    2CHL1   C11  108   4.699   6.247   9.598  0.3234  0.3057  0.3081
    2CHL1  H11A  109   4.697   6.358   9.607  0.5684  0.4640 -1.2778
    2CHL1  H11B  110   4.619   6.210   9.666  0.3123  0.9529  0.6605
    2CHL1    C9  111   4.845   6.194   9.619  0.2521 -0.0128 -0.7019
    2CHL1    H9  112   4.824   6.085   9.623  1.4875 -0.2634 -0.8249
    2CHL1   C10  113   4.906   6.237   9.753 -0.0946  0.2221 -0.0505
    2CHL1   C19  114   4.898   6.392   9.772  0.1005 -0.2667  0.1333
    2CHL1  H19A  115   4.962   6.426   9.856  3.1304  0.8217 -2.3736
    2CHL1  H19B  116   4.948   6.438   9.684  1.8936 -2.5452 -0.1489
    2CHL1  H19C  117   4.797   6.433   9.793  0.5846  1.3589 -0.4846
    2CHL1    C1  118   4.826   6.168   9.867 -0.5429  0.2466  0.9628
    2CHL1   H1A  119   4.722   6.204   9.864 -1.1258 -1.3586 -0.1132
    2CHL1   H1B  120   4.824   6.059   9.842  1.1212  0.0995  1.3690
    2CHL1    C2  121   4.891   6.196  10.000  0.0622 -0.4410 -0.6262
    2CHL1   H2A  122   4.837   6.137  10.077 -0.8296  0.4837 -0.5393
    2CHL1   H2B  123   4.886   6.303  10.026  0.1115 -0.6532  0.3019
    2CHL1   C20  124   4.596   6.309   9.134 -0.6485  0.1722  0.4708
    2CHL1   H20  125   4.575   6.408   9.180 -1.2639  0.4934 -0.4676
    2CHL1   C21  126   4.471   6.220   9.150 -0.8303  0.0262 -0.0383
    2CHL1  H21A  127   4.493   6.134   9.082 -0.4334  1.6250 -2.0165
    2CHL1  H21B  128   4.379   6.274   9.117  1.2846  2.1271 -2.9768
    2CHL1  H21C  129   4.466   6.181   9.254  0.2790  0.3526  0.1433
    2CHL1   C22  130   4.628   6.350   8.989 -0.2052 -0.2960  0.5608
    2CHL1  H22A  131   4.725   6.404   8.977  0.9413 -2.4263 -0.3810
    2CHL1  H22B  132   4.637   6.252   8.937 -0.3898 -0.5771  1.0467
    2CHL1   C23  133   4.530   6.437   8.906 -0.7393  0.8420 -0.1644
    2CHL1  H23A  134   4.428   6.395   8.920 -0.3042 -0.0193  0.4728
    2CHL1  H23B  135   4.528   6.542   8.944  2.2916  0.9388  0.0062
    2CHL1   C24  136   4.557   6.439   8.756 -0.0123  0.3555 -0.6413
    2CHL1  H24A  137   4.650   6.498   8.742 -0.8213  1.7002 -0.4903
    2CHL1  H24B  138   4.580   6.332   8.736  1.9324  0.3249  1.3312
    2CHL1   C25  139   4.434   6.470   8.675  0.3392  0.4409  0.2625
    2CHL1   H25  140   4.356   6.397   8.702  0.3592 -0.1685 -1.2251
    2CHL1   C26  141   4.384   6.612   8.698  0.2561  0.3907  0.3256
    2CHL1  H26A  142   4.478   6.667   8.675 -0.1337 -0.2330 -3.2979
    2CHL1  H26B  143   4.305   6.652   8.630 -0.1153 -0.2645  0.3658
    2CHL1  H26C  144   4.361   6.632   8.805 -2.7728  1.9522 -0.5038
    2CHL1   C27  145   4.466   6.458   8.529 -0.1703  0.0104  0.5262
    2CHL1  H27A  146   4.374   6.471   8.466  0.3776 -0.4505 -0.3943
    2CHL1  H27B  147   4.538   6.534   8.491 -0.7496 -0.1450 -0.9874
    2CHL1  H27C  148   4.500   6.354   8.511  0.1096  0.3945 -1.3870
    3CHL1    C3  149   0.625   2.659  10.500 -0.4093  0.2309  0.2750
    3CHL1    H3  150   0.591   2.756  10.459 -0.8802  0.1168  0.3874
    3CHL1    O3  151   0.598   2.671  10.637 -0.4660  0.0791  0.3243
    3CHL1   H3'  152   0.644   2.751  10.662  0.0492 -0.3509  0.7791
    3CHL1    C4  153   0.528   2.549  10.438  0.0777  0.1356 -0.5232
    3CHL1   H4A  154   0.543   2.448  10.483 -0.7175  0.5656  0.7616
    3CHL1   H4B  155   0.423   2.582  10.454 -0.4147 -1.6759  0.2729
    3CHL1    C5  156   0.542   2.534  10.291 -0.5246  0.4261 -0.4915
    3CHL1    C6  157   0.433   2.523  10.209 -0.2749 -0.3942  0.2203
    3CHL1    H6  158   0.334   2.520  10.257 -1.2652 -0.6552 -1.7452
    3CHL1    C7  159   0.437   2.520  10.060 -0.6454  0.1288  1.0092
    3CHL1   H7A  160   0.376   2.444  10.007 -2.1040  2.3552 -0.6287
    3CHL1   H7B  161   0.397   2.619  10.029  0.4935 -0.0042 -1.0445
    3CHL1    C8  162   0.583   2.503  10.003  0.6652  0.6074  0.3144
    3CHL1    H8  163   0.611   2.395  10.003  0.4190  0.5431  0.4698
    3CHL1   C14  164   0.588   2.549   9.856 -0.6667  0.4268 -0.0642
    3CHL1   H14  165   0.564   2.656   9.872 -1.8183 -0.0729  1.9002
    3CHL1   C15  166   0.483   2.489   9.758 -0.4721  0.1016  0.1696
    3CHL1  H15A  167   0.496   2.379   9.758  0.6925  0.2006  1.7289
    3CHL1  H15B  168   0.380   2.514   9.792 -0.3838  0.1009  0.4438
    3CHL1   C16  169   0.533   2.553   9.630  0.5845 -0.1590 -0.3955
    3CHL1  H16A  170   0.504   2.478   9.553 -3.1501  0.0936  0.5787
    3CHL1  H16B  171   0.478   2.644   9.599  2.7547  1.1114 -0.7268
    3CHL1   C17  172   0.680   2.586   9.644 -0.7605  0.6037  0.3353
    3CHL1   H17  173   0.693   2.696   9.644 -1.7232  0.7275 -0.2872
    3CHL1   C13  174   0.725   2.529   9.786  0.5131 -0.2638 -0.2113
    3CHL1   C18  175   0.760   2.377   9.780  0.7442 -0.2768 -0.3393
    3CHL1  H18A  176   0.849   2.366   9.716 -0.3804 -0.7010 -1.8764
    3CHL1  H18B  177   0.797   2.344   9.880  1.4422  0.3826 -0.3728
    3CHL1  H18C  178   0.677   2.306   9.760 -0.2781  0.0978  2.1354
    3CHL1   C12  179   0.824   2.612   9.875  0.6281 -0.1465 -0.1206
    3CHL1  H12A  180   0.928   2.620   9.837  0.0852  0.4116 -1.5488
    3CHL1  H12B  181   0.792   2.719   9.879  1.4530  0.1261 -0.5320
    3CHL1   C11  182   0.832   2.561  10.015  0.8427  0.0792 -0.6805
    3CHL1  H11A  183   0.868   2.456  10.020  0.5771 -0.0749 -1.6895
    3CHL1  H11B  184   0.912   2.619  10.065  1.3709 -2.3349  1.4492
    3CHL1    C9  185   0.696   2.573  10.092  0.7539 -0.1004  0.2159
    3CHL1    H9  186   0.669   2.681  10.086 -1.2519 -0.6358 -1.6388
    3CHL1   C10  187   0.693   2.531  10.240  0.0451  0.0058 -1.1037
    3CHL1   C19  188   0.746   2.384  10.252  0.4576  0.7429  0.1149
    3CHL1  H19A  189   0.736   2.333  10.351 -2.2638  1.0544  0.0786
    3CHL1  H19B  190   0.697   2.316  10.179  0.0178  0.5479  0.5844
    3CHL1  H19C  191   0.853   2.390  10.224  0.6442 -0.8890  0.3444
    3CHL1    C1  192   0.796   2.622  10.317  0.0389  0.0702 -0.7092
    3CHL1   H1A  193   0.901   2.586  10.305 -0.3496 -1.8767  1.0582
    3CHL1   H1B  194   0.776   2.725  10.280 -2.6352 -0.5716 -1.2296
    3CHL1    C2  195   0.765   2.627  10.473 -0.3032  0.6578  0.4043
    3CHL1   H2A  196   0.836   2.687  10.534  1.4590 -2.3863  1.5702
    3CHL1   H2B  197   0.784   2.529  10.521  0.3832  1.2166  1.2913
    3CHL1   C20  198   0.769   2.540   9.525 -0.0789  0.2923  0.5347
    3CHL1   H20  199   0.755   2.431   9.506 -0.3628  0.0051  2.1930
    3CHL1   C21  200   0.912   2.582   9.543  0.3139  0.3376 -1.1886
    3CHL1  H21A  201   0.961   2.516   9.618 -1.0232  2.1765  1.4161
    3CHL1  H21B  202   0.909   2.688   9.576 -2.8281 -0.2598  0.8456
    3CHL1  H21C  203   0.978   2.566   9.454  1.3516  1.1792 -0.5988
    3CHL1   C22  204   0.715   2.600   9.393 -0.8963  0.3356  0.4059
    3CHL1  H22A  205   0.607   2.618   9.381 -1.0423 -1.8720 -2.7272
    3CHL1  H22B  206   0.746   2.706   9.385  0.1676  0.0651  0.7061
    3CHL1   C23  207   0.770   2.526   9.262 -0.4708  0.0508  0.7493
    3CHL1  H23A  208   0.881   2.527   9.265 -0.2723  3.8347 -1.4381
    3CHL1  H23B  209   0.719   2.428   9.255 -3.4088  1.3939  1.5142
    3CHL1   C24  210   0.741   2.600   9.127 -0.6347  0.3552 -0.1729
    3CHL1  H24A  211   0.635   2.633   9.129 -0.9605 -0.5913 -0.7922
    3CHL1  H24B  212   0.800   2.694   9.123 -0.5491  0.2669 -1.0872
    3CHL1   C25  213   0.774   2.523   9.001 -0.5239 -0.2149 -0.0093
    3CHL1   H25  214   0.862   2.458   9.015 -0.6101 -0.0949  1.2007
    3CHL1   C26  215   0.663   2.438   8.940  0.7952 -0.0250 -0.4688
    3CHL1  H26A  216   0.569   2.491   8.913  0.5444 -0.9620 -1.5136
    3CHL1  H26B  217   0.703   2.399   8.844 -0.0569  1.8116 -1.6284
    3CHL1  H26C  218   0.631   2.355   9.006 -1.5592  0.2024 -1.2295
    3CHL1   C27  219   0.817   2.621   8.894  0.2165 -0.4374  0.2178
    3CHL1  H27A  220   0.745   2.694   8.850  1.2655  0.6867  0.3370
    3CHL1  H27B  221   0.893   2.687   8.941 -1.1312  0.9867  0.4862
    3CHL1  H27C  222   0.854   2.572   8.801 -0.7658 -2.0611  0.6293
    4CHL1    C3  223   5.689   2.526  10.356 -0.7601  0.0687  0.3990
    4CHL1    H3  224   5.660   2.429  10.310 -2.2007  0.1654  1.0550
    4CHL1    O3  225   5.672   2.529  10.499  0.0562  0.2446  0.3435
    4CHL1   H3'  226   5.691   2.621  10.517 -1.7282  0.5110  0.9942
    4CHL1    C4  227   5.837   2.564  10.321 -0.1102 -0.4359  0.6442
    4CHL1   H4A  228   5.876   2.663  10.354  4.1494 -1.8836  0.5270
    4CHL1   H4B  229   5.899   2.486  10.369  0.7906 -0.1087  0.0539
    4CHL1    C5  230   5.853   2.551  10.173  0.6327 -0.0826  0.2490
    4CHL1    C6  231   5.938   2.464  10.122  0.0687 -0.5025 -0.1930
    4CHL1    H6  232   6.005   2.405  10.187 -0.0990 -0.3562  0.1155
    4CHL1    C7  233   5.960   2.450   9.976 -0.1215 -0.6134  0.2360
    4CHL1   H7A  234   6.071   2.443   9.973 -0.1673 -1.0696 -0.4449
    4CHL1   H7B  235   5.929   2.356   9.926  0.7281 -0.6817 -0.1901
    4CHL1    C8  236   5.907   2.569   9.897 -0.5588  0.6830 -0.3061
    4CHL1    H8  237   5.969   2.660   9.911 -0.8476  0.5568  2.3284
    4CHL1   C14  238   5.919   2.537   9.749  0.1738  0.8905  0.5290
    4CHL1   H14  239   5.852   2.452   9.725  1.5116 -0.0237 -0.0330
    4CHL1   C15  240   6.057   2.488   9.696  0.1011 -0.0304  0.0901
    4CHL1  H15A  241   6.133   2.554   9.744  1.4079  0.0814 -2.0139
    4CHL1  H15B  242   6.081   2.384   9.726  1.7371  0.4906  0.7545
    4CHL1   C16  243   6.054   2.515   9.548 -0.2191 -0.2756 -0.3336
    4CHL1  H16A  244   6.123   2.593   9.510 -0.8986 -0.2577 -1.5877
    4CHL1  H16B  245   6.074   2.421   9.493  3.6040  1.4275 -2.2202
    4CHL1   C17  246   5.913   2.570   9.522  0.1359  0.8548  0.5313
    4CHL1   H17  247   5.841   2.485   9.515 -1.0395  1.9845 -3.1630
    4CHL1   C13  248   5.869   2.644   9.652  0.1836  1.0482  0.1058
    4CHL1   C18  249   5.953   2.778   9.665  0.7462 -0.2945  0.4102
    4CHL1  H18A  250   5.937   2.826   9.763 -0.0490  1.1027 -0.3677
    4CHL1  H18B  251   6.059   2.755   9.645  1.1857  1.2045  0.8983
    4CHL1  H18C  252   5.918   2.850   9.587 -2.0476 -1.8564  0.0649
    4CHL1   C12  253   5.719   2.665   9.684  0.1639  0.0768 -0.0549
    4CHL1  H12A  254   5.673   2.744   9.622  1.4019  2.6408  2.0630
    4CHL1  H12B  255   5.680   2.567   9.651  1.5912  0.5240 -3.5060
    4CHL1   C11  256   5.690   2.702   9.839  0.2976  0.5154  0.1703
    4CHL1  H11A  257   5.731   2.805   9.839 -2.4133  1.6888 -0.9625
    4CHL1  H11B  258   5.584   2.705   9.871 -0.1365 -2.2395 -0.7052
    4CHL1    C9  259   5.762   2.600   9.933  0.3804 -0.1423  0.4689
    4CHL1    H9  260   5.699   2.509   9.923 -0.3993  0.4497 -0.2209
    4CHL1   C10  261   5.755   2.641  10.082 -0.4950 -0.0815  0.0886
    4CHL1   C19  262   5.781   2.794  10.092 -0.2738  0.0928 -0.0105
    4CHL1  H19A  263   5.867   2.827  10.030 -1.0982 -0.2648 -1.3790
    4CHL1  H19B  264   5.689   2.843  10.055  0.5710  2.9133  1.3066
    4CHL1  H19C  265   5.793   2.842  10.192  0.1536  1.7802 -0.8431
    4CHL1    C1  266   5.611   2.612  10.131 -0.7757 -0.0683 -0.7508
    4CHL1   H1A  267   5.537   2.680  10.082  0.4727  0.4675 -1.9710
    4CHL1   H1B  268   5.567   2.513  10.109  0.6738 -0.9263  0.0468
    4CHL1    C2  269   5.592   2.624  10.282  0.1520  0.4754  0.1701
    4CHL1   H2A  270   5.487   2.603  10.312  0.4801 -1.1979  0.2446
    4CHL1   H2B  271   5.628   2.720  10.325 -0.3537  0.8462 -0.2252
    4CHL1   C20  272   5.887   2.639   9.380 -0.4746 -0.2453 -0.6044
    4CHL1   H20  273   5.919   2.745   9.396 -0.8987  0.0005 -1.3421
    4CHL1   C21  274   5.734   2.642   9.347 -0.5134 -0.0459 -0.5883
    4CHL1  H21A  275   5.689   2.710   9.423  0.4781 -0.5244  0.4596
    4CHL1  H21B  276   5.683   2.543   9.349 -1.0586  0.1551 -2.5023
    4CHL1  H21C  277   5.721   2.685   9.246  2.2357  0.2221 -0.9014
    4CHL1   C22  278   5.969   2.572   9.266  0.9407  0.0024 -0.2127
    4CHL1  H22A  279   6.068   2.536   9.302  0.9076 -0.4873 -0.5935
    4CHL1  H22B  280   5.923   2.473   9.244  1.1549 -0.1439 -0.0074
    4CHL1   C23  281   5.982   2.655   9.141 -0.1392  0.0545  0.0669
    4CHL1  H23A  282   5.882   2.692   9.110  0.1698  1.5103  0.7151
    4CHL1  H23B  283   6.047   2.741   9.168  1.1871 -0.6684 -0.7088
    4CHL1   C24  284   6.049   2.574   9.020 -0.2929  0.0446  0.0578
    4CHL1  H24A  285   6.139   2.531   9.067  0.0929 -0.3769 -1.0496
    4CHL1  H24B  286   5.974   2.501   8.982 -1.9172  2.8641 -2.6758
    4CHL1   C25  287   6.085   2.647   8.893 -0.3694 -0.6728 -0.3041
    4CHL1   H25  288   5.996   2.697   8.849  0.2682  0.2971 -0.5366
    4CHL1   C26  289   6.182   2.763   8.915 -0.4396 -0.7155 -0.7323
    4CHL1  H26A  290   6.129   2.847   8.966  1.2291  0.1182 -0.2944
    4CHL1  H26B  291   6.277   2.735   8.966 -1.1254 -0.6987  0.5963
    4CHL1  H26C  292   6.195   2.802   8.811 -2.1546 -2.1070 -1.5263
    4CHL1   C27  293   6.142   2.544   8.793 -0.0082  0.1168 -0.2694
    4CHL1  H27A  294   6.065   2.464   8.785  0.9656 -0.9258  0.5710
    4CHL1  H27B  295   6.158   2.587   8.692 -0.8190 -0.7574 -0.7875
    4CHL1  H27C  296   6.232   2.492   8.832 -0.7094 -1.4672 -0.6709
    5CHL1    C3  297   6.084   0.229  10.489  0.1869 -0.7844 -0.7012
    5CHL1    H3  298   5.987   0.259  10.446 -0.1841  0.5806  0.9900
    5CHL1    O3  299   6.080   0.242  10.627 -0.1617  0.0123  0.0018
    5CHL1   H3'  300   6.023   0.317  10.647 -1.2318 -0.7854  0.0764
    5CHL1    C4  301   6.122   0.091  10.437 -0.0615  0.2037 -0.1483
    5CHL1   H4A  302   6.215   0.057  10.488 -1.0096 -0.3901  1.2557
    5CHL1   H4B  303   6.041   0.030  10.483 -0.7208 -0.1035 -1.6609
    5CHL1    C5  304   6.124   0.076  10.283  0.0186 -0.4476 -0.5135
    5CHL1    C6  305   6.042  -0.011  10.222 -0.4768  0.9916  0.1613
    5CHL1    H6  306   5.972  -0.077  10.276 -0.4701 -0.8396 -1.9115
    5CHL1    C7  307   6.025  -0.018  10.069  0.5807  0.2642  0.0042
    5CHL1   H7A  308   6.034  -0.127  10.047  1.5444  0.3593 -0.1131
    5CHL1   H7B  309   5.923   0.018  10.041  0.2115  0.8826  2.0183
    5CHL1    C8  310   6.136   0.068   9.994  0.7414  0.4075 -0.5240
    5CHL1    H8  311   6.236   0.020  10.004  0.3841  0.0574  2.1691
    5CHL1   C14  312   6.099   0.098   9.841  0.1385  0.6062 -0.5395
    5CHL1   H14  313   6.009   0.162   9.848 -0.1243  0.2824 -0.9308
    5CHL1   C15  314   6.051  -0.025   9.757  0.0375 -0.3095 -0.0276
    5CHL1  H15A  315   6.122  -0.111   9.764  0.8492  0.3854  0.4497
    5CHL1  H15B  316   5.949  -0.060   9.785 -0.3241  0.2234 -0.6472
    5CHL1   C16  317   6.055   0.022   9.611 -0.4846 -0.8630 -0.3851
    5CHL1  H16A  318   6.127  -0.041   9.554  0.0771 -0.1884 -0.4248
    5CHL1  H16B  319   5.954   0.025   9.566  0.2512  0.3219 -2.0717
    5CHL1   C17  320   6.127   0.170   9.618  0.1164 -0.0339  0.6065
    5CHL1   H17  321   6.038   0.236   9.631 -0.3041 -0.7839  1.6182
    5CHL1   C13  322   6.200   0.175   9.758 -0.4042  0.1588 -0.7751
    5CHL1   C18  323   6.330   0.096   9.742  0.5220  0.5385 -0.2416
    5CHL1  H18A  324   6.321  -0.001   9.688  1.2110 -0.2825  1.0641
    5CHL1  H18B  325   6.401   0.153   9.678 -1.2347  0.7141 -2.1510
    5CHL1  H18C  326   6.381   0.063   9.835  0.8876 -1.0590 -0.9555
    5CHL1   C12  327   6.201   0.310   9.837  0.2496  0.1781  0.1678
    5CHL1  H12A  328   6.261   0.388   9.785  1.0385  0.0856  0.9130
    5CHL1  H12B  329   6.095   0.341   9.844  0.4133  0.5076  1.4237
    5CHL1   C11  330   6.258   0.302   9.981  0.2824  0.2149  0.4453
    5CHL1  H11A  331   6.358   0.255   9.964 -0.2986 -2.2008  2.9359
    5CHL1  H11B  332   6.267   0.403  10.027 -1.1063  0.3122  0.5520
    5CHL1    C9  333   6.164   0.208  10.060 -0.7552 -0.1289  0.3488
    5CHL1    H9  334   6.066   0.259  10.052 -0.0252  1.3440  0.3306
    5CHL1   C10  335   6.199   0.197  10.210 -0.6284 -0.1728 -0.4088
    5CHL1   C19  336   6.356   0.174  10.211 -0.0583  0.1375 -0.6450
    5CHL1  H19A  337   6.385   0.164  10.318 -0.3814 -2.1825 -0.7226
    5CHL1  H19B  338   6.373   0.071  10.172 -0.2920  0.9438 -2.9929
    5CHL1  H19C  339   6.419   0.244  10.154  1.0284 -0.6838 -0.4978
    5CHL1    C1  340   6.162   0.337  10.282  0.1998 -0.0622  0.4765
    5CHL1   H1A  341   6.231   0.413  10.240  0.8594 -1.1986 -0.5511
    5CHL1   H1B  342   6.058   0.355  10.246  0.4244  0.8557  0.2616
    5CHL1    C2  343   6.174   0.338  10.427  0.7818  0.3821  0.3686
    5CHL1   H2A  344   6.141   0.434  10.472  0.8097  0.9186 -0.7458
    5CHL1   H2B  345   6.278   0.315  10.462  0.2211 -1.2146  1.1066
    5CHL1   C20  346   6.205   0.206   9.489  0.1397  0.7456  0.0231
    5CHL1   H20  347   6.287   0.132   9.489  1.0553  1.7400 -0.5090
    5CHL1   C21  348   6.273   0.342   9.486  0.0934 -0.1501  0.0124
    5CHL1  H21A  349   6.338   0.340   9.577  0.7108  2.1241 -0.3096
    5CHL1  H21B  350   6.211   0.434   9.495  1.1538  0.6933 -1.0024
    5CHL1  H21C  351   6.343   0.355   9.401 -0.3269  1.5744 -0.1079
    5CHL1   C22  352   6.123   0.188   9.354  0.1260  0.1305 -0.3770
    5CHL1  H22A  353   6.060   0.097   9.363  0.7415 -0.2097  0.6932
    5CHL1  H22B  354   6.061   0.280   9.343 -0.5639 -0.0418  1.5935
    5CHL1   C23  355   6.215   0.160   9.229 -0.4957 -0.4618  0.0263
    5CHL1  H23A  356   6.294   0.237   9.221 -0.1903 -0.7520  0.2017
    5CHL1  H23B  357   6.275   0.067   9.243  0.3428  0.3092  1.7758
    5CHL1   C24  358   6.151   0.138   9.098  0.2208 -0.2822  0.3259
    5CHL1  H24A  359   6.234   0.124   9.026 -0.2940 -2.1602  0.0652
    5CHL1  H24B  360   6.078   0.055   9.094 -0.2798  0.1889 -0.8040
    5CHL1   C25  361   6.079   0.259   9.038 -0.6968 -0.1598  0.4730
    5CHL1   H25  362   5.990   0.293   9.095 -0.6053 -0.4334  0.7783
    5CHL1   C26  363   6.165   0.389   9.034  0.5746 -0.9291  0.7036
    5CHL1  H26A  364   6.106   0.477   9.001  0.8182 -0.1479  2.2668
    5CHL1  H26B  365   6.205   0.413   9.135 -0.1627 -0.2726  0.8482
    5CHL1  H26C  366   6.237   0.384   8.949 -0.7502  0.9556 -0.6120
    5CHL1   C27  367   6.018   0.229   8.892  0.0644  0.3115  0.3068
    5CHL1  H27A  368   5.956   0.314   8.858 -2.0617 -0.9142  0.8821
    5CHL1  H27B  369   6.102   0.215   8.821  0.3826  0.1435  0.7073
    5CHL1  H27C  370   5.943   0.146   8.892 -2.1374  2.1981  0.6831
    6CHL1    C3  371   3.845   4.361  10.362  1.5583  0.4923 -0.6079
    6CHL1    H3  372   3.890   4.454  10.322  1.3732  0.6564 -0.4327
    6CHL1    O3  373   3.858   4.370  10.504 -0.0974 -0.2859 -0.2139
    6CHL1   H3'  374   3.810   4.298  10.546  0.5687 -0.1504  0.8006
    6CHL1    C4  375   3.691   4.340  10.329 -0.7090  0.4030  0.1738
    6CHL1   H4A  376   3.654   4.260  10.398  1.2329 -1.0084 -0.3356
    6CHL1   H4B  377   3.646   4.435  10.364  0.6292  1.6106 -1.2702
    6CHL1    C5  378   3.662   4.313  10.183 -0.3008 -0.0020 -0.2338
    6CHL1    C6  379   3.580   4.392  10.115  0.5538 -0.4378  0.0973
    6CHL1    H6  380   3.534   4.471  10.175  2.8162 -0.8486  2.5625
    6CHL1    C7  381   3.547   4.370   9.969  0.7691 -0.0008  0.3705
    6CHL1   H7A  382   3.440   4.387   9.945  0.4897 -0.5465  1.1853
    6CHL1   H7B  383   3.609   4.437   9.906  0.3819 -1.3814 -1.5859
    6CHL1    C8  384   3.594   4.232   9.923 -0.0864  0.0762  0.5966
    6CHL1    H8  385   3.526   4.158   9.969  1.1224 -1.5368 -0.1136
    6CHL1   C14  386   3.581   4.218   9.772 -0.2344 -0.9627  0.7136
    6CHL1   H14  387   3.639   4.298   9.722 -0.9006 -1.1056 -0.3388
    6CHL1   C15  388   3.443   4.254   9.708 -0.7738 -0.9541 -0.3853
    6CHL1  H15A  389   3.371   4.193   9.768 -0.0719 -0.1606  1.3234
    6CHL1  H15B  390   3.423   4.363   9.698  0.5362 -0.7331 -0.7472
    6CHL1   C16  391   3.452   4.183   9.568 -0.0599 -0.2343 -0.0927
    6CHL1  H16A  392   3.369   4.113   9.549 -0.7593  0.6702 -0.4597
    6CHL1  H16B  393   3.437   4.258   9.487 -0.2139 -1.0335 -0.8095
    6CHL1   C17  394   3.591   4.107   9.557  0.4669 -0.5305 -0.4633
    6CHL1   H17  395   3.661   4.184   9.519  0.6604 -0.4696  0.0077
    6CHL1   C13  396   3.631   4.085   9.711 -0.1325  0.3292 -0.0338
    6CHL1   C18  397   3.551   3.973   9.766  0.0780  0.5835 -0.2289
    6CHL1  H18A  398   3.447   3.973   9.726 -1.6021  1.3081  3.6595
    6CHL1  H18B  399   3.597   3.874   9.743 -0.4536  0.8458 -2.7400
    6CHL1  H18C  400   3.537   3.982   9.876 -2.4047 -0.7937 -0.3517
    6CHL1   C12  401   3.781   4.081   9.750  0.7903  0.4880  0.3438
    6CHL1  H12A  402   3.826   3.989   9.706 -0.1476  1.5401 -3.1270
    6CHL1  H12B  403   3.834   4.158   9.690  0.6496  1.4917  1.4718
    6CHL1   C11  404   3.804   4.085   9.896 -0.8329 -0.0595  0.3835
    6CHL1  H11A  405   3.773   3.987   9.937  0.6330 -0.8922 -0.4230
    6CHL1  H11B  406   3.914   4.094   9.905 -0.5317  1.1799 -2.9995
    6CHL1    C9  407   3.737   4.206   9.966 -0.0300  0.1771  0.7337
    6CHL1    H9  408   3.800   4.293   9.937  2.1291 -1.7962 -0.7919
    6CHL1   C10  409   3.752   4.205  10.117 -0.1586  0.3294 -0.6801
    6CHL1   C19  410   3.696   4.067  10.181 -0.0794  0.1210  0.7599
    6CHL1  H19A  411   3.598   4.048  10.134  0.8676 -3.4767 -0.0835
    6CHL1  H19B  412   3.758   3.977  10.157  2.8591  2.3789 -0.7504
    6CHL1  H19C  413   3.690   4.078  10.291  1.1876  0.2288  0.8409
    6CHL1    C1  414   3.900   4.218  10.163  0.5650 -0.7856  0.8121
    6CHL1   H1A  415   3.969   4.136  10.131  0.8210 -0.4536  0.5137
    6CHL1   H1B  416   3.938   4.314  10.123  1.6075 -1.6747 -0.4165
    6CHL1    C2  417   3.921   4.234  10.317 -0.1133  0.1098  0.0537
    6CHL1   H2A  418   4.031   4.246  10.330  0.2733 -2.0347 -0.7501
    6CHL1   H2B  419   3.874   4.149  10.370 -1.6677  0.8489 -0.0822
    6CHL1   C20  420   3.587   3.986   9.467  0.8624  0.1277 -1.2509
    6CHL1   H20  421   3.522   3.911   9.517  1.0542  0.0232 -1.1560
    6CHL1   C21  422   3.726   3.910   9.455  0.0094 -0.6283 -0.1973
    6CHL1  H21A  423   3.751   3.834   9.532 -1.8378 -0.3570  0.7188
    6CHL1  H21B  424   3.810   3.983   9.454 -1.1477  0.7454 -0.6916
    6CHL1  H21C  425   3.721   3.850   9.362 -1.1630 -0.4135 -0.2912
    6CHL1   C22  426   3.528   4.019   9.329 -0.6893 -0.1613 -0.7897
    6CHL1  H22A  427   3.528   3.926   9.268  2.1293  0.2072 -1.4825
    6CHL1  H22B  428   3.422   4.054   9.333 -1.2285 -1.7747 -0.0198
    6CHL1   C23  429   3.603   4.120   9.240  0.2366  0.1801 -0.2216
    6CHL1  H23A  430   3.626   4.213   9.296  2.1482 -0.8875  0.8578
    6CHL1  H23B  431   3.706   4.082   9.219 -0.3849 -1.9436  0.3047
    6CHL1   C24  432   3.535   4.143   9.104  0.4329 -0.5681 -0.1482
    6CHL1  H24A  433   3.563   4.058   9.039 -2.5836 -0.2759 -1.9833
    6CHL1  H24B  434   3.425   4.149   9.120  0.7038  0.2236  1.7540
    6CHL1   C25  435   3.584   4.274   9.029 -0.7084  0.1434 -0.5595
    6CHL1   H25  436   3.567   4.355   9.103  0.2114 -2.4910  2.7533
    6CHL1   C26  437   3.734   4.276   9.000 -0.0471 -0.7310  0.3543
    6CHL1  H26A  438   3.773   4.375   8.968  0.8846 -1.6038 -1.3883
    6CHL1  H26B  439   3.787   4.237   9.090  1.0782  0.7146  0.3440
    6CHL1  H26C  440   3.745   4.204   8.915  1.7602 -0.4583  0.3119
    6CHL1   C27  441   3.506   4.300   8.901 -0.1591 -0.1034 -0.0391
    6CHL1  H27A  442   3.546   4.226   8.828  0.3496  0.5845 -0.4705
    6CHL1  H27B  443   3.400   4.285   8.929  0.8664 -4.3920  2.4525
    6CHL1  H27C  444   3.513   4.404   8.862  1.2177  0.6246  1.9926
    7CHL1    C3  445   0.595   1.538  10.483  0.1550 -0.0948 -0.0068
    7CHL1    H3  446   0.702   1.508  10.476  0.3193  0.1711  1.1287
    7CHL1    O3  447   0.572   1.577  10.614 -0.3685 -0.7564  0.1448
    7CHL1   H3'  448   0.485   1.618  10.610  0.5382  1.2046 -0.6729
    7CHL1    C4  449   0.550   1.655  10.381 -0.2779 -0.2792  0.0385
    7CHL1   H4A  450   0.448   1.686  10.412 -0.3830 -0.3834 -0.2096
    7CHL1   H4B  451   0.611   1.747  10.398 -1.0018  0.1219  0.5302
    7CHL1    C5  452   0.552   1.625  10.236 -0.0785  0.3905  0.4518
    7CHL1    C6  453   0.600   1.711  10.141 -0.5709  0.0489  0.0388
    7CHL1    H6  454   0.649   1.807  10.157  2.1601 -0.9602 -1.6267
    7CHL1    C7  455   0.598   1.689   9.997  0.8737 -0.8219  0.5216
    7CHL1   H7A  456   0.560   1.785   9.957  1.6349 -0.8598 -0.3124
    7CHL1   H7B  457   0.705   1.670   9.976  1.3063  0.5873  1.3558
    7CHL1    C8  458   0.505   1.577   9.952  0.6240  0.6929 -0.3059
    7CHL1    H8  459   0.400   1.614   9.966 -0.0217 -1.5329  1.3527
    7CHL1   C14  460   0.525   1.535   9.808 -0.1161 -0.3417 -0.3253
    7CHL1   H14  461   0.626   1.488   9.801 -1.1469 -2.5938 -1.3116
    7CHL1   C15  462   0.534   1.658   9.715  0.0044  0.2568 -0.1286
    7CHL1  H15A  463   0.450   1.726   9.740 -0.2756 -0.2620  0.3659
    7CHL1  H15B  464   0.627   1.719   9.711 -1.1994  2.1512 -0.1317
    7CHL1   C16  465   0.498   1.593   9.579 -0.1789 -0.1709 -0.1185
    7CHL1  H16A  466   0.403   1.633   9.537  0.0438 -1.5303 -2.0145
    7CHL1  H16B  467   0.582   1.600   9.508 -1.6711 -0.3316 -1.9811
    7CHL1   C17  468   0.469   1.441   9.602  0.0924 -0.3773  0.0709
    7CHL1   H17  469   0.567   1.390   9.601  0.8851  1.0469 -1.8493
    7CHL1   C13  470   0.425   1.432   9.749  0.6378 -0.5247 -0.1209
    7CHL1   C18  471   0.278   1.477   9.776  0.0665  0.0845 -0.4363
    7CHL1  H18A  472   0.266   1.482   9.886 -0.2715  0.2174 -0.4779
    7CHL1  H18B  473   0.248   1.572   9.727  0.0997 -1.0914 -2.8689
    7CHL1  H18C  474   0.218   1.396   9.730 -0.2839  0.0180  0.1222
    7CHL1   C12  475   0.470   1.306   9.830 -0.0755 -0.2386  0.2193
    7CHL1  H12A  476   0.404   1.223   9.799  0.2159  0.2566 -1.8469
    7CHL1  H12B  477   0.574   1.280   9.799 -0.9638 -0.3727 -2.9835
    7CHL1   C11  478   0.459   1.319   9.984  0.3904 -0.3789 -0.0627
    7CHL1  H11A  479   0.352   1.338  10.005  0.6020  0.7661  0.0129
    7CHL1  H11B  480   0.481   1.231  10.049  0.5856 -0.2911 -0.0069
    7CHL1    C9  481   0.531   1.454  10.043  0.9590  0.2351 -0.5195
    7CHL1    H9  482   0.638   1.425  10.049  0.8302 -0.7850 -2.4038
    7CHL1   C10  483   0.498   1.488  10.192  0.0303 -0.0230 -1.0667
    7CHL1   C19  484   0.341   1.499  10.199  0.1327 -0.1648  0.8243
    7CHL1  H19A  485   0.278   1.408  10.192 -0.7290  0.4915 -0.1990
    7CHL1  H19B  486   0.307   1.548  10.292 -2.4206  0.1615 -0.2026
    7CHL1  H19C  487   0.301   1.555  10.112 -1.3617 -1.1277  0.8702
    7CHL1    C1  488   0.552   1.375  10.292  0.4006  0.6395  0.4010
    7CHL1   H1A  489   0.510   1.275  10.266 -2.0653  1.8236 -0.5150
    7CHL1   H1B  490   0.661   1.364  10.275  0.1216 -1.3655 -0.4459
    7CHL1    C2  491   0.530   1.409  10.440 -0.2041 -0.1590 -0.4527
    7CHL1   H2A  492   0.586   1.319  10.474  2.5998  1.1771 -1.2804
    7CHL1   H2B  493   0.421   1.417  10.462 -0.0983  1.2264 -0.3684
    7CHL1   C20  494   0.377   1.377   9.488  0.3065 -1.0474  0.4066
    7CHL1   H20  495   0.272   1.408   9.504  1.0015  0.9515  1.4398
    7CHL1   C21  496   0.391   1.230   9.491  0.2351 -0.8623 -0.3369
    7CHL1  H21A  497   0.497   1.200   9.473  0.1076 -0.7167 -1.3697
    7CHL1  H21B  498   0.325   1.193   9.411 -2.5246  2.4541  0.1489
    7CHL1  H21C  499   0.366   1.177   9.586  1.5907  1.4408  1.4261
    7CHL1   C22  500   0.423   1.434   9.349 -0.6104 -0.0789  0.0647
    7CHL1  H22A  501   0.424   1.545   9.342 -0.1634 -0.1479 -1.3821
    7CHL1  H22B  502   0.530   1.405   9.336  0.0855  0.6553  3.1975
    7CHL1   C23  503   0.356   1.388   9.221 -0.1702  0.3384 -0.2667
    7CHL1  H23A  504   0.347   1.278   9.230  0.2246  0.4538  2.7995
    7CHL1  H23B  505   0.251   1.423   9.227 -0.0014  0.7456  0.4542
    7CHL1   C24  506   0.426   1.421   9.088 -0.0177 -0.6264 -0.1713
    7CHL1  H24A  507   0.427   1.532   9.079  0.6892 -0.5904  0.2314
    7CHL1  H24B  508   0.531   1.385   9.080  0.1875  0.1511 -1.1371
    7CHL1   C25  509   0.357   1.371   8.964 -0.3876  0.1690 -0.6852
    7CHL1   H25  510   0.249   1.391   8.978 -0.3218  1.3750 -1.7224
    7CHL1   C26  511   0.391   1.458   8.833  0.4333  0.7060  0.6346
    7CHL1  H26A  512   0.491   1.438   8.790 -0.4617 -1.2695 -0.6531
    7CHL1  H26B  513   0.322   1.429   8.750  1.3217 -0.0385  0.1412
    7CHL1  H26C  514   0.381   1.569   8.843  0.1246  1.1748 -3.1464
    7CHL1   C27  515   0.390   1.227   8.941  0.2875  0.1492  0.3293
    7CHL1  H27A  516   0.497   1.224   8.913 -0.4451 -1.7151 -2.6644
    7CHL1  H27B  517   0.379   1.180   9.041 -0.7347  1.3907  0.8413
    7CHL1  H27C  518   0.321   1.183   8.866 -0.8020 -1.6698  2.2522
    8CHL1    C3  519   0.813   0.903  10.508  0.8862  1.0436 -0.4421
    8CHL1    H3  520   0.916   0.861  10.506 -0.1429 -1.6847 -0.8073
    8CHL1    O3  521   0.767   0.932  10.641 -0.7225  0.1798  0.6695
    8CHL1   H3'  522   0.806   0.868  10.700  1.0278  2.0345  1.6630
    8CHL1    C4  523   0.806   1.027  10.419 -0.2435  0.7031  0.3376
    8CHL1   H4A  524   0.712   1.079  10.445 -2.3989 -2.6778 -0.0300
    8CHL1   H4B  525   0.887   1.101  10.438  0.5536 -0.4329  1.5456
    8CHL1    C5  526   0.810   0.990  10.267  0.0799 -0.1209 -0.1240
    8CHL1    C6  527   0.887   1.048  10.177 -0.4846  1.0011 -0.3515
    8CHL1    H6  528   0.948   1.134  10.209  0.2636 -0.1587  1.5182
    8CHL1    C7  529   0.886   1.027  10.025 -0.2795 -0.2679 -0.0053
    8CHL1   H7A  530   0.893   1.129   9.981  2.9206 -0.4154 -0.0547
    8CHL1   H7B  531   0.984   0.977  10.006  0.2555 -0.5562  3.0375
    8CHL1    C8  532   0.753   0.956   9.982  1.0137 -0.0624 -0.7328
    8CHL1    H8  533   0.668   1.027   9.986  2.7582  2.0843  0.6857
    8CHL1   C14  534   0.765   0.918   9.838  0.3245 -0.3387 -0.2519
    8CHL1   H14  535   0.857   0.856   9.829  1.3038  1.0083  0.1423
    8CHL1   C15  536   0.781   1.030   9.733  0.5826  0.3408  0.0300
    8CHL1  H15A  537   0.713   1.116   9.754 -2.2432 -1.8100  0.3098
    8CHL1  H15B  538   0.883   1.070   9.716  0.1625  2.2512  1.6019
    8CHL1   C16  539   0.751   0.958   9.600  0.2564 -0.0664 -0.2183
    8CHL1  H16A  540   0.662   0.995   9.546  1.8620  3.0712 -0.9890
    8CHL1  H16B  541   0.833   0.974   9.526  1.2463 -1.7155  0.4410
    8CHL1   C17  542   0.714   0.810   9.640 -0.0775  0.4258  0.1980
    8CHL1   H17  543   0.816   0.766   9.643  0.5623  1.3369 -3.4650
    8CHL1   C13  544   0.659   0.822   9.783  0.0609 -0.0768  0.5924
    8CHL1   C18  545   0.515   0.896   9.786  0.0664 -0.1019  0.5725
    8CHL1  H18A  546   0.481   0.936   9.884 -2.9608  1.3022 -0.9265
    8CHL1  H18B  547   0.518   0.990   9.728  3.6033 -0.9783 -0.8887
    8CHL1  H18C  548   0.430   0.827   9.768 -0.3194  0.2972  0.8431
    8CHL1   C12  549   0.639   0.707   9.875  0.1253 -0.5271 -0.0082
    8CHL1  H12A  550   0.544   0.658   9.843 -0.7631  1.2513 -0.2003
    8CHL1  H12B  551   0.731   0.645   9.883  0.8836  0.8032  4.2275
    8CHL1   C11  552   0.624   0.743  10.020  0.5013  0.4284  0.8628
    8CHL1  H11A  553   0.522   0.787  10.019 -0.5799 -1.7866 -2.1706
    8CHL1  H11B  554   0.625   0.651  10.081  2.1036 -1.2927 -1.5590
    8CHL1    C9  555   0.726   0.840  10.074  0.2865  0.3006 -0.4143
    8CHL1    H9  556   0.815   0.774  10.071  0.7185  0.8484  0.1004
    8CHL1   C10  557   0.704   0.881  10.220  0.3955 -0.5021 -0.6016
    8CHL1   C19  558   0.555   0.930  10.231  0.3375  0.8286  0.0122
    8CHL1  H19A  559   0.493   0.838  10.229  3.4113 -1.5460  2.8364
    8CHL1  H19B  560   0.542   0.977  10.331  0.5158 -2.3515  1.6376
    8CHL1  H19C  561   0.510   0.995  10.153 -0.8169  0.2328  0.1516
    8CHL1    C1  562   0.717   0.758  10.314  0.1230  0.4473  1.0924
    8CHL1   H1A  563   0.633   0.688  10.294 -0.2360  1.6258 -2.2805
    8CHL1   H1B  564   0.808   0.703  10.283  0.8072  2.4803 -0.8034
    8CHL1    C2  565   0.719   0.791  10.463  0.4088  0.3068 -0.2492
    8CHL1   H2A  566   0.745   0.700  10.522  4.5429  1.1128 -0.4975
    8CHL1   H2B  567   0.619   0.829  10.491 -1.0030 -3.4815  0.4317
    8CHL1   C20  568   0.635   0.739   9.534 -0.7022  0.1465  0.4165
    8CHL1   H20  569   0.542   0.798   9.522 -0.2089  0.8765  0.1082
    8CHL1   C21  570   0.581   0.595   9.577 -1.2166 -0.5161  0.1905
    8CHL1  H21A  571   0.499   0.598   9.651 -0.1183  1.4623  1.4375
    8CHL1  H21B  572   0.671   0.549   9.622  0.2242  0.9732 -1.0112
    8CHL1  H21C  573   0.549   0.547   9.482 -2.9916 -0.7472  0.8734
    8CHL1   C22  574   0.705   0.737   9.397 -0.2778  0.1073  0.4390
    8CHL1  H22A  575   0.738   0.841   9.377 -1.1161  0.1849 -0.5999
    8CHL1  H22B  576   0.789   0.665   9.394  0.1349  0.5995 -0.2178
    8CHL1   C23  577   0.612   0.709   9.277  0.1079 -0.1251  0.4317
    8CHL1  H23A  578   0.609   0.598   9.272 -2.0508 -0.0586 -1.0955
    8CHL1  H23B  579   0.514   0.754   9.304 -0.6418 -0.1825 -1.9758
    8CHL1   C24  580   0.653   0.754   9.137  0.0307 -0.0863 -0.0678
    8CHL1  H24A  581   0.686   0.857   9.162  0.6790 -0.3441  0.1437
    8CHL1  H24B  582   0.738   0.696   9.096 -2.5967 -2.5557 -2.4617
    8CHL1   C25  583   0.538   0.760   9.037 -0.0105 -0.2883 -0.1460
    8CHL1   H25  584   0.486   0.662   9.044  0.2289 -0.4104 -0.0699
    8CHL1   C26  585   0.434   0.862   9.055  1.1422 -0.1874 -0.0823
    8CHL1  H26A  586   0.481   0.963   9.059 -1.5078  1.1419  0.2306
    8CHL1  H26B  587   0.361   0.870   8.971  1.7615  0.0389 -0.6070
    8CHL1  H26C  588   0.381   0.843   9.151  0.9696 -0.0447 -0.1481
    8CHL1   C27  589   0.591   0.772   8.889  0.1464  0.1635 -0.6097
    8CHL1  H27A  590   0.513   0.725   8.825  0.2545 -2.4033  0.9584
    8CHL1  H27B  591   0.606   0.877   8.858  2.6534  0.7316  2.1303
    8CHL1  H27C  592   0.687   0.717   8.886  0.4912  0.7747 -0.7207
    9CHL1    C3  593   5.995   4.845  10.392 -0.1010 -0.1018 -0.0946
    9CHL1    H3  594   6.066   4.767  10.427 -1.1485 -0.9925  0.0950
    9CHL1    O3  595   5.956   4.934  10.503 -0.3275 -0.9569  0.1799
    9CHL1   H3'  596   6.040   4.978  10.518 -0.2790 -1.8891  3.4006
    9CHL1    C4  597   6.050   4.944  10.275 -0.2025  0.7090 -0.4920
    9CHL1   H4A  598   5.983   5.031  10.260  0.4837  1.1430 -1.0804
    9CHL1   H4B  599   6.150   4.975  10.312  0.0070 -1.9589  1.4897
    9CHL1    C5  600   6.056   4.886  10.138  0.3661  0.3816  0.3069
    9CHL1    C6  601   6.160   4.895  10.055 -0.1187  0.2800  0.0322
    9CHL1    H6  602   6.245   4.950  10.099 -0.5525  0.0117  1.2333
    9CHL1    C7  603   6.163   4.847   9.911  0.2201  0.3462  0.6390
    9CHL1   H7A  604   6.206   4.922   9.842 -0.1418 -0.8146 -0.9085
    9CHL1   H7B  605   6.229   4.758   9.915  0.1876  0.2909  5.6289
    9CHL1    C8  606   6.023   4.814   9.856 -0.2540 -1.3318  0.2411
    9CHL1    H8  607   5.966   4.906   9.831 -1.8450 -2.4104 -0.3223
    9CHL1   C14  608   6.040   4.735   9.727  0.0573 -0.1951  0.4573
    9CHL1   H14  609   6.093   4.642   9.758 -1.4236 -1.0950  0.4034
    9CHL1   C15  610   6.140   4.799   9.626 -0.0315  0.0393  0.6293
    9CHL1  H15A  611   6.132   4.910   9.620  2.0192  0.3610  2.4625
    9CHL1  H15B  612   6.240   4.773   9.666  0.2688 -0.3302 -0.3485
    9CHL1   C16  613   6.090   4.738   9.501  0.3910 -0.2841  0.8200
    9CHL1  H16A  614   6.051   4.824   9.443 -0.1286 -1.7702 -1.1907
    9CHL1  H16B  615   6.175   4.700   9.440 -1.2848  0.6957 -2.3661
    9CHL1   C17  616   5.974   4.637   9.531  0.3234 -0.1645  0.1217
    9CHL1   H17  617   6.007   4.533   9.551 -0.1256 -0.7267 -1.8296
    9CHL1   C13  618   5.910   4.690   9.659  0.7722  0.6582  0.1612
    9CHL1   C18  619   5.821   4.818   9.634  0.4944  0.5313  0.4552
    9CHL1  H18A  620   5.731   4.781   9.580  0.2601  1.5838  0.1041
    9CHL1  H18B  621   5.792   4.872   9.726  1.2839  0.4795  0.7456
    9CHL1  H18C  622   5.874   4.878   9.556  0.8534  0.0654  0.3356
    9CHL1   C12  623   5.843   4.601   9.760 -0.0192  0.0560  0.3860
    9CHL1  H12A  624   5.746   4.559   9.724  0.0234 -0.2228  0.5948
    9CHL1  H12B  625   5.909   4.514   9.781  0.7427  0.7672  0.9777
    9CHL1   C11  626   5.820   4.667   9.894  0.5420  0.2278  0.7396
    9CHL1  H11A  627   5.749   4.751   9.877  1.2634  0.4781 -1.2565
    9CHL1  H11B  628   5.767   4.589   9.952 -0.9742 -2.2917 -3.6118
    9CHL1    C9  629   5.946   4.734   9.958  0.3902 -0.1253 -0.9761
    9CHL1    H9  630   6.018   4.654   9.987 -0.4366  0.2572  2.5337
    9CHL1   C10  631   5.925   4.809  10.091  0.1297 -1.1114 -0.2569
    9CHL1   C19  632   5.815   4.915  10.074 -0.5174 -0.4403  0.9172
    9CHL1  H19A  633   5.718   4.861  10.062 -0.0402 -1.2720  0.7569
    9CHL1  H19B  634   5.808   4.991  10.155 -0.9980  0.1283  0.3496
    9CHL1  H19C  635   5.849   4.986   9.996 -0.4685 -0.4927  0.8913
    9CHL1    C1  636   5.883   4.711  10.205 -0.6714  0.1663  0.3252
    9CHL1   H1A  637   5.785   4.667  10.175  0.4609  0.5116 -4.8375
    9CHL1   H1B  638   5.952   4.624  10.203 -0.8416  0.0232 -1.7768
    9CHL1    C2  639   5.866   4.774  10.348 -0.0505  0.1135  0.3224
    9CHL1   H2A  640   5.838   4.696  10.423  0.4122 -0.4148 -0.0483
    9CHL1   H2B  641   5.786   4.850  10.337 -0.7519 -0.8252 -1.4604
    9CHL1   C20  642   5.886   4.623   9.411 -0.0018  0.3864 -0.2303
    9CHL1   H20  643   5.826   4.715   9.397 -0.3492 -0.0184 -1.5394
    9CHL1   C21  644   5.789   4.509   9.433  0.2754  0.9098  0.2452
    9CHL1  H21A  645   5.734   4.517   9.529 -1.4243  2.0026 -0.7677
    9CHL1  H21B  646   5.833   4.407   9.434 -0.1853  0.6215 -2.3236
    9CHL1  H21C  647   5.714   4.510   9.351 -0.4089  3.5708  0.8080
    9CHL1   C22  648   5.961   4.583   9.284  0.6985 -0.1872 -0.1859
    9CHL1  H22A  649   6.039   4.656   9.255  0.4263 -0.5774 -2.0186
    9CHL1  H22B  650   6.006   4.482   9.298  0.9530 -0.0910 -0.3034
    9CHL1   C23  651   5.880   4.581   9.142  0.7542  0.1480 -0.9228
    9CHL1  H23A  652   5.967   4.575   9.074  0.2016  1.8894 -1.8510
    9CHL1  H23B  653   5.810   4.496   9.128  3.0637 -1.6752 -1.9595
    9CHL1   C24  654   5.797   4.710   9.120  0.6216  0.0592  0.3426
    9CHL1  H24A  655   5.703   4.698   9.177  1.5058 -2.9036  1.3848
    9CHL1  H24B  656   5.853   4.803   9.140 -0.3850  1.3267 -2.3209
    9CHL1   C25  657   5.757   4.731   8.976 -0.7378 -0.0818 -0.3983
    9CHL1   H25  658   5.842   4.779   8.922  1.2803  0.4688  2.9765
    9CHL1   C26  659   5.715   4.603   8.899  0.1541 -0.2342 -0.3298
    9CHL1  H26A  660   5.681   4.631   8.797  2.2724 -0.9819 -1.2960
    9CHL1  H26B  661   5.810   4.545   8.888  1.2867  1.5155 -0.1702
    9CHL1  H26C  662   5.634   4.548   8.951  0.5470 -1.4078 -0.9116
    9CHL1   C27  663   5.632   4.822   8.956  0.2378 -0.2422 -0.6012
    9CHL1  H27A  664   5.545   4.777   9.008 -0.4723  0.6617 -0.9884
    9CHL1  H27B  665   5.661   4.918   9.004  1.5113 -0.2472 -1.3176
    9CHL1  H27C  666   5.622   4.834   8.846  1.6160 -2.6008 -1.0591
   10CHL1    C3  667   3.983   1.802  10.218  0.7213 -0.5579 -0.3119
   10CHL1    H3  668   3.939   1.700  10.216  2.3137 -1.2849 -0.1170
   10CHL1    O3  669   3.967   1.851  10.351  0.0863  0.4642 -0.1835
   10CHL1   H3'  670   3.872   1.862  10.362 -0.4121 -2.2076 -0.9587
   10CHL1    C4  671   4.134   1.792  10.182 -0.8331  0.0377  0.1655
   10CHL1   H4A  672   4.189   1.880  10.222  0.8965 -0.8176 -0.2257
   10CHL1   H4B  673   4.180   1.712  10.246  0.5343  1.0269  0.4776
   10CHL1    C5  674   4.157   1.759  10.039  0.0014  0.3431 -0.1294
   10CHL1    C6  675   4.221   1.653  10.001 -0.8847 -0.1070 -0.0029
   10CHL1    H6  676   4.267   1.587  10.076 -2.0315 -1.8974 -0.8091
   10CHL1    C7  677   4.244   1.612   9.864 -0.3114  0.4748 -1.0446
   10CHL1   H7A  678   4.342   1.565   9.840  0.6729  1.4063  0.8593
   10CHL1   H7B  679   4.162   1.542   9.837  0.9000 -0.5293 -2.2498
   10CHL1    C8  680   4.223   1.742   9.770 -0.4402 -0.1872  0.3674
   10CHL1    H8  681   4.303   1.818   9.775 -1.5065  1.0637 -0.6839
   10CHL1   C14  682   4.219   1.688   9.624  0.1853  0.4107 -0.0630
   10CHL1   H14  683   4.127   1.626   9.615 -2.1641  3.7172 -1.2419
   10CHL1   C15  684   4.324   1.588   9.575 -0.3960  0.8465 -0.2001
   10CHL1  H15A  685   4.423   1.634   9.598 -0.7768  1.3620  0.4031
   10CHL1  H15B  686   4.312   1.487   9.620  0.5300 -0.0763 -1.8829
   10CHL1   C16  687   4.303   1.596   9.423 -0.1926 -0.3786 -0.3395
   10CHL1  H16A  688   4.397   1.618   9.367  0.0238  0.2634  0.2580
   10CHL1  H16B  689   4.269   1.496   9.387 -0.0193 -0.7713  0.5633
   10CHL1   C17  690   4.202   1.702   9.391  0.0537  0.1480  0.0141
   10CHL1   H17  691   4.102   1.654   9.388  1.3283 -2.6674 -1.2665
   10CHL1   C13  692   4.201   1.796   9.508  0.4303  0.0807  0.7956
   10CHL1   C18  693   4.320   1.892   9.501 -0.3863 -0.2096  0.3527
   10CHL1  H18A  694   4.296   1.981   9.439  0.2865 -0.3595 -0.1445
   10CHL1  H18B  695   4.348   1.925   9.603  0.3874  1.9909 -0.5172
   10CHL1  H18C  696   4.407   1.835   9.459 -1.5851 -2.1911  0.4350
   10CHL1   C12  697   4.068   1.869   9.544 -1.3481 -0.2297  0.0529
   10CHL1  H12A  698   4.062   1.954   9.473  1.3495 -0.5178 -0.6308
   10CHL1  H12B  699   3.983   1.800   9.521 -0.9480 -0.9710  0.7503
   10CHL1   C11  700   4.044   1.910   9.689 -0.0455  0.3738 -0.7434
   10CHL1  H11A  701   4.104   2.001   9.710  0.1977 -0.1000  0.7475
   10CHL1  H11B  702   3.937   1.936   9.706 -0.0664 -0.3827  0.3753
   10CHL1    C9  703   4.085   1.802   9.801  0.0326 -0.8117  0.7577
   10CHL1    H9  704   4.006   1.724   9.791 -1.1243  0.5472 -1.8292
   10CHL1   C10  705   4.086   1.853   9.947  0.9288 -0.1104 -0.7096
   10CHL1   C19  706   4.147   1.994   9.966 -0.3761 -0.3051  0.5706
   10CHL1  H19A  707   4.164   2.020  10.073 -0.7076 -1.8033  1.0135
   10CHL1  H19B  708   4.249   1.997   9.922 -1.0456  1.1170 -0.9926
   10CHL1  H19C  709   4.087   2.068   9.909 -1.2686 -0.1111  1.7313
   10CHL1    C1  710   3.931   1.866   9.984  0.3938  0.3431  0.1149
   10CHL1   H1A  711   3.884   1.932   9.908  1.2344 -1.0317 -1.6721
   10CHL1   H1B  712   3.878   1.770   9.967  1.9214 -0.2908 -1.3034
   10CHL1    C2  713   3.909   1.905  10.128 -0.6049 -0.2115  0.0606
   10CHL1   H2A  714   3.799   1.903  10.145 -0.5171  0.3738  0.7346
   10CHL1   H2B  715   3.957   2.002  10.149 -1.9547  0.4094  0.4091
   10CHL1   C20  716   4.217   1.759   9.246  0.8176  0.4001 -0.3901
   10CHL1   H20  717   4.312   1.817   9.245  0.2961  1.2926 -1.7972
   10CHL1   C21  718   4.108   1.862   9.217 -0.2163  0.3197 -1.0286
   10CHL1  H21A  719   4.111   1.901   9.113 -0.2429  1.8318 -0.4875
   10CHL1  H21B  720   4.123   1.950   9.284  3.0884 -0.2916 -0.7705
   10CHL1  H21C  721   4.009   1.815   9.232  0.1563 -1.0757 -2.6010
   10CHL1   C22  722   4.233   1.645   9.139 -0.2048 -0.3410 -0.6765
   10CHL1  H22A  723   4.311   1.575   9.175  0.2812  0.1035 -0.8646
   10CHL1  H22B  724   4.130   1.601   9.137 -1.2526  1.9595 -0.1309
   10CHL1   C23  725   4.274   1.692   8.992 -0.1843  0.1861 -0.0415
   10CHL1  H23A  726   4.194   1.759   8.954 -2.3534 -0.8699  2.3399
   10CHL1  H23B  727   4.370   1.747   8.993  0.5620 -1.0599 -0.6459
   10CHL1   C24  728   4.283   1.571   8.898  0.5152 -0.2632 -0.3125
   10CHL1  H24A  729   4.381   1.582   8.848  1.0616  3.0591  1.2113
   10CHL1  H24B  730   4.293   1.474   8.951 -1.7554 -0.9816 -1.0925
   10CHL1   C25  731   4.171   1.552   8.793 -0.2531  0.0240 -0.3782
   10CHL1   H25  732   4.181   1.648   8.737  0.4308  1.8821  2.6703
   10CHL1   C26  733   4.187   1.426   8.710 -0.5345  0.2467 -0.2473
   10CHL1  H26A  734   4.093   1.407   8.654 -0.2492 -1.5724 -0.1540
   10CHL1  H26B  735   4.278   1.441   8.649 -1.0344  2.0719 -0.5953
   10CHL1  H26C  736   4.200   1.342   8.782 -0.7807  0.2684 -0.1758
   10CHL1   C27  737   4.045   1.550   8.864 -0.1739  1.1151  0.3294
   10CHL1  H27A  738   3.959   1.537   8.796  0.8817  2.7290 -1.3884
   10CHL1  H27B  739   4.045   1.461   8.931 -0.2063  3.0190  3.0683
   10CHL1  H27C  740   4.027   1.636   8.932  0.4479  0.7033  1.0422
   11CHL1    C3  741   6.489   5.380  10.274  0.3817  0.2916 -0.3106
   11CHL1    H3  742   6.584   5.334  10.240  1.4480  1.5561  0.8431
   11CHL1    O3  743   6.492   5.399  10.415 -0.1904  0.0489 -0.4906
   11CHL1   H3'  744   6.399   5.404  10.441  0.3170  3.3942  1.2794
   11CHL1    C4  745   6.465   5.508  10.199  0.0650  0.2246  0.6840
   11CHL1   H4A  746   6.382   5.556  10.255  0.5155  1.8827 -0.0176
   11CHL1   H4B  747   6.547   5.579  10.223 -2.1551  2.3591  2.3717
   11CHL1    C5  748   6.439   5.481  10.050  0.2654  0.7347  0.6198
   11CHL1    C6  749   6.510   5.538   9.948 -0.4184  0.0285  0.8291
   11CHL1    H6  750   6.591   5.609   9.968  0.5259  0.4168 -3.3931
   11CHL1    C7  751   6.485   5.529   9.803 -0.5809 -0.1618  0.0922
   11CHL1   H7A  752   6.494   5.630   9.758  1.2880 -0.6331 -0.6865
   11CHL1   H7B  753   6.574   5.473   9.767 -0.6846  0.1068 -0.6037
   11CHL1    C8  754   6.360   5.453   9.759  0.1545 -0.0047  1.0109
   11CHL1    H8  755   6.277   5.526   9.765 -1.0093 -0.8125 -2.9038
   11CHL1   C14  756   6.351   5.410   9.613 -0.1543  0.8281 -0.4150
   11CHL1   H14  757   6.416   5.320   9.618 -1.5610 -0.1379  2.0071
   11CHL1   C15  758   6.399   5.508   9.504 -1.0721  0.3079  0.4357
   11CHL1  H15A  759   6.352   5.605   9.529  1.7793  1.2658  2.5961
   11CHL1  H15B  760   6.507   5.528   9.492 -0.9798  0.8145  1.9487
   11CHL1   C16  761   6.349   5.434   9.381 -0.3326  0.6559  0.0691
   11CHL1  H16A  762   6.296   5.516   9.327  1.0985  2.2392  0.9462
   11CHL1  H16B  763   6.423   5.412   9.300 -0.0416 -0.9586  0.7518
   11CHL1   C17  764   6.248   5.324   9.423  0.0416  1.0212  0.4948
   11CHL1   H17  765   6.313   5.234   9.425  1.3602  1.8565 -1.4498
   11CHL1   C13  766   6.214   5.361   9.568  0.2647  0.1049 -0.2227
   11CHL1   C18  767   6.106   5.471   9.573 -0.0443 -0.3887 -1.0150
   11CHL1  H18A  768   6.013   5.420   9.540 -0.5535  0.0936 -0.3529
   11CHL1  H18B  769   6.096   5.509   9.677 -0.2258 -0.4044 -1.0258
   11CHL1  H18C  770   6.141   5.561   9.518  3.3062 -0.3977  0.8358
   11CHL1   C12  771   6.189   5.244   9.657  0.1559 -0.7616 -0.7286
   11CHL1  H12A  772   6.088   5.203   9.635  0.7012 -2.6490  0.0830
   11CHL1  H12B  773   6.267   5.165   9.657 -1.1681 -2.1381  0.6079
   11CHL1   C11  774   6.188   5.276   9.813 -0.6596  0.3401  0.1346
   11CHL1  H11A  775   6.097   5.337   9.829 -0.8886  0.1616 -0.4483
   11CHL1  H11B  776   6.172   5.182   9.868 -0.9643  1.5972  2.3002
   11CHL1    C9  777   6.325   5.339   9.858  0.7645  0.3853 -0.0378
   11CHL1    H9  778   6.405   5.263   9.847  0.9455  0.7120 -1.1812
   11CHL1   C10  779   6.326   5.382  10.013 -0.6508  0.2411 -0.6151
   11CHL1   C19  780   6.189   5.454  10.044 -1.5648 -0.8118 -0.2733
   11CHL1  H19A  781   6.100   5.389  10.033 -1.1266 -1.7005  1.0750
   11CHL1  H19B  782   6.190   5.472  10.154 -0.2974 -0.3389 -0.3506
   11CHL1  H19C  783   6.175   5.543   9.979 -0.0503  0.7696  1.4165
   11CHL1    C1  784   6.345   5.254  10.094  0.2965 -0.1199 -0.6129
   11CHL1   H1A  785   6.255   5.189  10.093  1.6734 -2.1178 -0.6773
   11CHL1   H1B  786   6.434   5.208  10.047  1.8259  2.4186 -0.3880
   11CHL1    C2  787   6.369   5.279  10.244  0.5937 -0.2363 -1.0555
   11CHL1   H2A  788   6.390   5.180  10.289  0.3826  0.3950  0.4936
   11CHL1   H2B  789   6.276   5.318  10.291 -0.1942 -1.6392 -1.4032
   11CHL1   C20  790   6.132   5.293   9.324 -0.1783 -0.0098  0.0093
   11CHL1   H20  791   6.065   5.381   9.314 -1.2677 -1.0211 -2.4807
   11CHL1   C21  792   6.048   5.169   9.374 -0.0286  0.0369  0.0659
   11CHL1  H21A  793   5.982   5.192   9.460 -0.1825  2.1493 -0.5514
   11CHL1  H21B  794   6.111   5.085   9.410  1.3346  1.7357  1.8538
   11CHL1  H21C  795   5.983   5.133   9.291  0.3266 -1.1994  0.3117
   11CHL1   C22  796   6.189   5.274   9.175 -0.1251 -0.1913 -0.7319
   11CHL1  H22A  797   6.256   5.357   9.146 -0.7568  0.1375 -1.2678
   11CHL1  H22B  798   6.250   5.181   9.182  0.9228  0.5709  1.0485
   11CHL1   C23  799   6.080   5.254   9.066 -0.2717 -0.0851  0.4072
   11CHL1  H23A  800   6.015   5.169   9.094 -0.3472  0.2509  1.2672
   11CHL1  H23B  801   6.016   5.345   9.063 -2.2412 -1.4101 -0.8469
   11CHL1   C24  802   6.152   5.217   8.937  0.1597  0.2086 -0.6334
   11CHL1  H24A  803   6.222   5.302   8.919 -0.9459  1.2472 -0.1964
   11CHL1  H24B  804   6.221   5.134   8.960  0.7364  0.5909 -0.9582
   11CHL1   C25  805   6.069   5.173   8.824 -0.2693 -0.0763 -0.4686
   11CHL1   H25  806   5.968   5.217   8.834 -0.6337 -0.9776 -0.0162
   11CHL1   C26  807   6.148   5.209   8.696 -0.1450 -0.3324 -0.0052
   11CHL1  H26A  808   6.093   5.207   8.600  0.6221  0.0555 -0.4692
   11CHL1  H26B  809   6.178   5.316   8.699 -1.4079  0.0209  0.7493
   11CHL1  H26C  810   6.242   5.150   8.687 -0.5687 -0.9750 -0.2148
   11CHL1   C27  811   6.046   5.019   8.825 -0.1118  0.2068  0.3565
   11CHL1  H27A  812   6.139   4.959   8.823  0.8077  1.5374  1.4485
   11CHL1  H27B  813   5.981   4.994   8.911 -0.4127  1.4782  0.5222
   11CHL1  H27C  814   5.997   4.995   8.728 -0.3461 -0.4941  0.6395
   12CHL1    C3  815   0.347   1.971  10.391 -0.5706 -0.1230  0.5216
   12CHL1    H3  816   0.438   1.909  10.379 -0.5944 -0.5032  2.1077
   12CHL1    O3  817   0.341   1.999  10.530 -0.3341 -0.3852  0.1546
   12CHL1   H3'  818   0.387   2.082  10.544 -0.7358  0.7359 -3.9278
   12CHL1    C4  819   0.379   2.094  10.307 -0.0303 -0.3868  1.3881
   12CHL1   H4A  820   0.316   2.179  10.341  1.4866  0.9361  1.0141
   12CHL1   H4B  821   0.480   2.130  10.338 -0.4721  1.2166  1.0588
   12CHL1    C5  822   0.369   2.084  10.157  0.5438  0.4743 -0.1971
   12CHL1    C6  823   0.467   2.109  10.071 -0.2228 -0.4984  0.2221
   12CHL1    H6  824   0.558   2.147  10.120 -0.5409  0.3259  0.1820
   12CHL1    C7  825   0.457   2.090   9.918  0.4101  0.0075  0.3701
   12CHL1   H7A  826   0.501   2.182   9.874 -0.6617  0.2320 -0.2576
   12CHL1   H7B  827   0.517   2.002   9.886  1.1574  0.6221  0.0505
   12CHL1    C8  828   0.314   2.073   9.863 -0.4246  0.3463 -0.9509
   12CHL1    H8  829   0.269   2.174   9.876 -0.8009  0.1058 -0.3185
   12CHL1   C14  830   0.311   2.028   9.717 -0.6330  0.7046  1.0114
   12CHL1   H14  831   0.377   1.939   9.718 -1.9669 -0.3056  1.1003
   12CHL1   C15  832   0.377   2.108   9.605 -0.1278  0.0052  0.1691
   12CHL1  H15A  833   0.371   2.219   9.613  0.2625  0.1382 -1.1718
   12CHL1  H15B  834   0.481   2.074   9.585  0.1213  0.9595 -0.2367
   12CHL1   C16  835   0.297   2.064   9.482  0.8611  0.3301  0.9583
   12CHL1  H16A  836   0.246   2.152   9.438 -0.7432 -0.1554  1.7787
   12CHL1  H16B  837   0.365   2.023   9.404 -1.0223  2.1426 -1.8133
   12CHL1   C17  838   0.187   1.960   9.525 -0.2213 -0.6266 -0.1363
   12CHL1   H17  839   0.244   1.865   9.538 -0.8764 -0.9898  0.1328
   12CHL1   C13  840   0.164   2.000   9.673 -0.1933 -0.3019 -0.0717
   12CHL1   C18  841   0.075   2.125   9.681 -0.2469  0.0878 -0.5284
   12CHL1  H18A  842   0.126   2.216   9.641  2.7709 -0.3825  1.8613
   12CHL1  H18B  843  -0.029   2.109   9.644 -0.4404  0.5319 -0.1824
   12CHL1  H18C  844   0.051   2.151   9.786  1.5461 -1.7571  0.4093
   12CHL1   C12  845   0.107   1.887   9.751 -0.1026 -0.7711  0.5997
   12CHL1  H12A  846  -0.003   1.881   9.733 -0.0353  0.8436 -0.4735
   12CHL1  H12B  847   0.160   1.792   9.726  0.5885 -1.1434  3.1559
   12CHL1   C11  848   0.109   1.919   9.899  0.3304 -0.2667 -0.1854
   12CHL1  H11A  849   0.028   1.993   9.918  0.2668  0.2536 -2.2676
   12CHL1  H11B  850   0.072   1.824   9.943  0.4210  0.5453  1.7744
   12CHL1    C9  851   0.242   1.965   9.955 -0.6717 -0.3073  0.6847
   12CHL1    H9  852   0.307   1.876   9.950 -0.2127 -0.0874  2.1501
   12CHL1   C10  853   0.241   2.015  10.104 -0.8437  0.3708  0.9841
   12CHL1   C19  854   0.139   2.124  10.115  0.1316 -0.3981 -0.5127
   12CHL1  H19A  855   0.036   2.086  10.096 -1.3821  1.0700  3.6521
   12CHL1  H19B  856   0.130   2.156  10.221  1.9179 -0.3503 -0.3427
   12CHL1  H19C  857   0.157   2.216  10.055 -4.1572  1.2016  0.3132
   12CHL1    C1  858   0.195   1.898  10.197  0.3671  0.4357  0.0128
   12CHL1   H1A  859   0.088   1.874  10.179  0.8579 -3.4115  1.2690
   12CHL1   H1B  860   0.250   1.808  10.162  1.5843  1.0492  0.2960
   12CHL1    C2  861   0.211   1.920  10.347 -0.5943 -0.1640 -0.1769
   12CHL1   H2A  862   0.187   1.825  10.399 -0.5403  0.4659  1.0260
   12CHL1   H2B  863   0.133   1.994  10.375  0.7293  1.0654  0.3579
   12CHL1   C20  864   0.077   1.941   9.430 -0.3165 -0.4905  0.2169
   12CHL1   H20  865   0.000   2.018   9.455  0.5789  0.5803 -0.2208
   12CHL1   C21  866   0.030   1.791   9.447  0.0431 -0.1112 -0.2451
   12CHL1  H21A  867   0.115   1.724   9.421  1.0779  0.7445  0.8418
   12CHL1  H21B  868  -0.060   1.766   9.387 -1.0857  1.3193  0.7954
   12CHL1  H21C  869  -0.000   1.771   9.551 -0.1932  0.3219 -0.2287
   12CHL1   C22  870   0.109   1.959   9.277 -0.3469 -0.3781 -0.5250
   12CHL1  H22A  871   0.165   2.053   9.255  2.4949 -1.9454 -0.5470
   12CHL1  H22B  872   0.161   1.868   9.242  2.5585  1.6433 -1.8989
   12CHL1   C23  873  -0.017   1.979   9.187 -0.3127  0.6609  0.0493
   12CHL1  H23A  874  -0.075   1.885   9.201 -0.0692  0.6152  0.8313
   12CHL1  H23B  875  -0.080   2.065   9.218  0.5247  2.1700 -2.2337
   12CHL1   C24  876   0.021   1.996   9.040 -0.2395  0.9151  0.5717
   12CHL1  H24A  877   0.065   2.096   9.023  0.9303  0.0849 -1.6768
   12CHL1  H24B  878   0.095   1.918   9.011 -1.2999  0.2414 -0.4506
   12CHL1   C25  879  -0.087   1.981   8.927  1.0584  0.4588  0.5345
   12CHL1   H25  880  -0.115   1.873   8.928  1.8075  0.2496  0.1173
   12CHL1   C26  881  -0.210   2.067   8.960 -0.3893  0.2903 -0.4095
   12CHL1  H26A  882  -0.301   2.040   8.903 -0.1230 -0.6443 -0.4084
   12CHL1  H26B  883  -0.244   2.050   9.064 -0.0547 -0.1671 -0.3690
   12CHL1  H26C  884  -0.193   2.177   8.958 -2.7378  0.7002 -0.2142
   12CHL1   C27  885  -0.033   2.017   8.783  0.0978  0.1280  0.1309
   12CHL1  H27A  886  -0.115   1.994   8.711  1.4582 -2.3357 -0.7459
   12CHL1  H27B  887  -0.008   2.125   8.781  1.5225 -0.1980 -0.7355
   12CHL1  H27C  888   0.050   1.951   8.752 -0.7361 -1.0907  0.4306
   13CHL1    C3  889   1.428   1.700  10.166  0.0526  0.0884  0.1913
   13CHL1    H3  890   1.339   1.632  10.164  0.7054 -0.8472  1.5801
   13CHL1    O3  891   1.485   1.696  10.293  0.0131 -0.9164  0.2523
   13CHL1   H3'  892   1.557   1.760  10.292 -1.0855  0.3567 -0.3699
   13CHL1    C4  893   1.532   1.650  10.059  0.4344 -0.1823 -0.6050
   13CHL1   H4A  894   1.621   1.714  10.073  0.1050  0.1662 -0.0792
   13CHL1   H4B  895   1.544   1.546  10.096 -2.6068  0.0909  1.5475
   13CHL1    C5  896   1.486   1.657   9.917  0.1925  0.5217  0.6542
   13CHL1    C6  897   1.489   1.545   9.835  0.8353 -0.1041 -0.2016
   13CHL1    H6  898   1.533   1.451   9.871  1.5003  0.1431 -0.3405
   13CHL1    C7  899   1.440   1.548   9.694  0.0730  0.1709  0.3562
   13CHL1   H7A  900   1.521   1.511   9.628  1.5307  2.5513  0.6858
   13CHL1   H7B  901   1.346   1.491   9.684 -0.3154  1.0183 -1.1080
   13CHL1    C8  902   1.409   1.688   9.637 -0.8623 -0.0782 -0.0520
   13CHL1    H8  903   1.505   1.726   9.598  0.1951 -3.5808 -1.2536
   13CHL1   C14  904   1.314   1.671   9.518 -0.2431 -0.4701  0.0149
   13CHL1   H14  905   1.225   1.623   9.564 -0.3224  1.2034  1.7297
   13CHL1   C15  906   1.339   1.576   9.398  0.6179 -0.5054 -0.5828
   13CHL1  H15A  907   1.446   1.551   9.378 -0.0779 -5.4695  0.4918
   13CHL1  H15B  908   1.295   1.477   9.423  0.6586 -0.0364  1.5448
   13CHL1   C16  909   1.251   1.623   9.279 -0.0158 -0.0679 -0.1921
   13CHL1  H16A  910   1.326   1.649   9.201 -0.3522 -1.4348 -1.0041
   13CHL1  H16B  911   1.182   1.543   9.243  0.9982 -1.5652  1.0369
   13CHL1   C17  912   1.184   1.751   9.336  0.0882 -0.2117 -0.3417
   13CHL1   H17  913   1.086   1.720   9.377  0.4277 -2.6014 -1.1851
   13CHL1   C13  914   1.270   1.800   9.451 -0.9119 -0.3098  0.0130
   13CHL1   C18  915   1.392   1.874   9.392  0.2979 -0.1327  0.1867
   13CHL1  H18A  916   1.360   1.966   9.337  0.1954  0.8171  1.7784
   13CHL1  H18B  917   1.463   1.898   9.474  0.7240 -1.1967  0.1417
   13CHL1  H18C  918   1.451   1.811   9.322  2.7421  0.4906  1.5789
   13CHL1   C12  919   1.203   1.893   9.560  0.4324 -0.0848 -0.2717
   13CHL1  H12A  920   1.185   1.987   9.503 -2.7304 -0.4321 -0.0226
   13CHL1  H12B  921   1.103   1.860   9.596  0.2314  1.3177  0.5005
   13CHL1   C11  922   1.298   1.917   9.684 -0.5261  0.1293 -0.1841
   13CHL1  H11A  923   1.388   1.976   9.658  0.6668 -1.5138  0.0479
   13CHL1  H11B  924   1.251   1.983   9.760  1.7269  1.8040 -0.1317
   13CHL1    C9  925   1.344   1.779   9.744  0.4849  0.5202  0.4439
   13CHL1    H9  926   1.244   1.732   9.757  0.1579  0.5007 -1.6884
   13CHL1   C10  927   1.430   1.794   9.873 -0.0246  0.5876  0.9944
   13CHL1   C19  928   1.540   1.886   9.836 -0.2396  0.2334  0.5266
   13CHL1  H19A  929   1.576   1.873   9.732 -3.0370  2.4364 -0.8354
   13CHL1  H19B  930   1.505   1.990   9.852 -2.0985 -0.3177  0.3054
   13CHL1  H19C  931   1.637   1.879   9.889  0.6086  3.9200 -0.3095
   13CHL1    C1  932   1.330   1.848   9.985  0.1580 -0.7425  0.3487
   13CHL1   H1A  933   1.312   1.955   9.963 -0.2086 -1.3087 -2.5859
   13CHL1   H1B  934   1.232   1.796   9.984  1.0722 -2.7005  2.7091
   13CHL1    C2  935   1.381   1.839  10.127 -0.1828 -0.4395 -0.1438
   13CHL1   H2A  936   1.302   1.884  10.191  0.5254 -1.8657  1.8465
   13CHL1   H2B  937   1.464   1.910  10.146 -0.0784 -0.6110  0.0511
   13CHL1   C20  938   1.151   1.848   9.214 -0.0446  0.6294 -1.1449
   13CHL1   H20  939   1.249   1.880   9.173  1.0585  0.1634  0.9591
   13CHL1   C21  940   1.075   1.972   9.262 -0.2356 -0.1546  1.2044
   13CHL1  H21A  941   1.027   2.029   9.179  2.6695  0.5152 -0.1325
   13CHL1  H21B  942   1.142   2.050   9.305  2.2065 -2.3118  1.5159
   13CHL1  H21C  943   0.996   1.950   9.337 -1.9373  1.0257 -0.1483
   13CHL1   C22  944   1.068   1.764   9.107  0.9543 -0.2002  0.3853
   13CHL1  H22A  945   1.082   1.827   9.016 -1.5552 -0.4184 -0.2265
   13CHL1  H22B  946   1.110   1.664   9.085 -0.4466 -0.7976  0.3153
   13CHL1   C23  947   0.916   1.734   9.137 -0.5330 -0.1904  0.1721
   13CHL1  H23A  948   0.899   1.707   9.243 -3.9849  1.7099  0.2294
   13CHL1  H23B  949   0.862   1.830   9.127 -0.0345 -0.0481 -1.5655
   13CHL1   C24  950   0.874   1.609   9.056 -0.1367  0.0367  0.3575
   13CHL1  H24A  951   0.937   1.521   9.080  0.4943  0.0649 -1.0644
   13CHL1  H24B  952   0.783   1.580   9.113 -1.2559 -0.9857 -1.8200
   13CHL1   C25  953   0.848   1.621   8.908 -0.1537 -0.5708  0.0765
   13CHL1   H25  954   0.932   1.680   8.865  0.0311  1.2291  2.6345
   13CHL1   C26  955   0.838   1.490   8.835  1.0263  0.5088  0.1971
   13CHL1  H26A  956   0.789   1.408   8.892  1.3444 -0.1428 -0.4557
   13CHL1  H26B  957   0.788   1.496   8.736  2.6723 -1.8378 -0.8790
   13CHL1  H26C  958   0.942   1.461   8.810  0.1494 -0.2736 -2.9827
   13CHL1   C27  959   0.728   1.707   8.886 -0.6720  0.0640 -0.1586
   13CHL1  H27A  960   0.643   1.646   8.925 -0.0938 -0.3699  0.4499
   13CHL1  H27B  961   0.733   1.802   8.943 -2.3187  0.2214 -0.2236
   13CHL1  H27C  962   0.720   1.725   8.777  0.4946 -2.6529 -0.7773
   14CHL1    C3  963   0.919   6.607  10.273 -0.1998  0.2013  0.3290
   14CHL1    H3  964   0.886   6.709  10.244  0.5019 -0.4317 -3.0771
   14CHL1    O3  965   0.934   6.609  10.412 -0.6431 -0.5144 -0.1834
   14CHL1   H3'  966   1.013   6.557  10.426  0.4166  1.0642 -0.0602
   14CHL1    C4  967   0.808   6.498  10.233 -1.0118 -0.2286  0.4265
   14CHL1   H4A  968   0.842   6.396  10.261  1.0987 -0.5397 -2.7423
   14CHL1   H4B  969   0.719   6.525  10.294 -2.0102  0.6602 -1.3188
   14CHL1    C5  970   0.786   6.499  10.087 -0.0287 -0.1064  0.2927
   14CHL1    C6  971   0.663   6.517  10.037  0.2310  0.5299 -0.6003
   14CHL1    H6  972   0.582   6.510  10.111  2.2425  4.5739  2.3527
   14CHL1    C7  973   0.627   6.526   9.890  0.2702  0.1130 -0.1119
   14CHL1   H7A  974   0.534   6.467   9.873  0.0083  1.0479 -2.1192
   14CHL1   H7B  975   0.604   6.630   9.858  0.7396 -0.2373 -1.6518
   14CHL1    C8  976   0.736   6.473   9.800 -0.5477  0.0354  0.7861
   14CHL1    H8  977   0.731   6.362   9.796 -0.8134  0.0834 -1.7313
   14CHL1   C14  978   0.722   6.536   9.662  0.4373 -0.2476 -0.0187
   14CHL1   H14  979   0.717   6.645   9.682 -3.4106 -0.1731 -0.5923
   14CHL1   C15  980   0.581   6.516   9.596  0.2852 -0.7247 -0.6129
   14CHL1  H15A  981   0.537   6.419   9.627  0.1718  0.3046  2.7552
   14CHL1  H15B  982   0.511   6.590   9.639 -0.3074 -0.4649 -1.9477
   14CHL1   C16  983   0.602   6.531   9.447 -0.0083 -0.3008 -0.1173
   14CHL1  H16A  984   0.578   6.439   9.390 -1.1202  0.3732 -0.7670
   14CHL1  H16B  985   0.542   6.621   9.421 -2.7179 -1.6042  1.2570
   14CHL1   C17  986   0.758   6.571   9.424  0.8328  0.9470 -0.4482
   14CHL1   H17  987   0.760   6.681   9.435 -0.7907  0.9478  0.0046
   14CHL1   C13  988   0.822   6.503   9.547  0.4237  0.1501 -0.0021
   14CHL1   C18  989   0.826   6.347   9.534  0.1035  0.3440 -0.1784
   14CHL1  H18A  990   0.907   6.318   9.463  2.6365  1.8399  1.9378
   14CHL1  H18B  991   0.849   6.300   9.632  1.5652  1.0684 -0.1551
   14CHL1  H18C  992   0.731   6.306   9.492  0.0340 -0.0017  0.3078
   14CHL1   C12  993   0.960   6.546   9.598  0.1825 -0.9456  0.0406
   14CHL1  H12A  994   1.043   6.513   9.532  0.2296  0.4327 -0.6156
   14CHL1  H12B  995   0.963   6.656   9.614 -0.8167 -1.1834  2.1171
   14CHL1   C11  996   0.991   6.489   9.743 -0.8314 -0.4288 -0.1885
   14CHL1  H11A  997   1.002   6.379   9.742  1.5677 -0.2531  0.7829
   14CHL1  H11B  998   1.089   6.533   9.771 -2.0195  2.5773 -0.3099
   14CHL1    C9  999   0.876   6.521   9.845 -0.6136 -0.1774  0.3634
   14CHL1    H9 1000   0.870   6.632   9.844 -0.8360 -0.1817  1.0868
   14CHL1   C10 1001   0.914   6.484   9.993  0.8332 -0.1304 -0.1221
   14CHL1   C19 1002   0.962   6.336   9.995  0.4421 -0.0643  0.1054
   14CHL1  H19A 1003   1.054   6.325   9.934 -1.6359  0.8418 -3.5213
   14CHL1  H19B 1004   0.976   6.308  10.101  0.7176  1.6468  0.5480
   14CHL1  H19C 1005   0.887   6.261   9.961  0.3255  0.1822 -0.1874
   14CHL1    C1 1006   1.028   6.579  10.049  0.5050  0.4034 -0.5645
   14CHL1   H1A 1007   1.118   6.537   9.999  0.1328 -1.9218  0.5947
   14CHL1   H1B 1008   1.010   6.683  10.013  0.0991  0.0152 -1.5268
   14CHL1    C2 1009   1.048   6.570  10.201  0.2284  0.2905  0.1606
   14CHL1   H2A 1010   1.122   6.641  10.243 -1.8153  1.7732  1.4494
   14CHL1   H2B 1011   1.093   6.471  10.226 -1.8406 -0.6102  0.6042
   14CHL1   C20 1012   0.815   6.541   9.290 -0.2888 -0.1419  0.4779
   14CHL1   H20 1013   0.830   6.432   9.281  0.2660 -0.1056  0.9484
   14CHL1   C21 1014   0.965   6.593   9.282 -0.6363 -1.4725  0.0329
   14CHL1  H21A 1015   1.036   6.513   9.313 -1.7213 -1.2980  3.3435
   14CHL1  H21B 1016   0.972   6.676   9.355 -0.6816 -1.4054 -0.0391
   14CHL1  H21C 1017   1.003   6.632   9.185  2.8303 -1.3159  1.2925
   14CHL1   C22 1018   0.732   6.592   9.170  0.3103 -0.5720  0.5175
   14CHL1  H22A 1019   0.631   6.547   9.174  0.3208 -0.5916  0.5711
   14CHL1  H22B 1020   0.716   6.702   9.176  0.1858 -0.5376 -0.3965
   14CHL1   C23 1021   0.788   6.582   9.028  0.4432  0.8647 -0.3759
   14CHL1  H23A 1022   0.861   6.664   9.013  0.4426  0.8409 -0.5059
   14CHL1  H23B 1023   0.838   6.485   9.006 -0.4599 -0.3380  2.4135
   14CHL1   C24 1024   0.677   6.598   8.927 -0.2112  0.3304 -1.3284
   14CHL1  H24A 1025   0.586   6.537   8.940 -1.3815  2.1795 -0.3849
   14CHL1  H24B 1026   0.633   6.699   8.942 -1.6702 -0.4926  0.1951
   14CHL1   C25 1027   0.726   6.579   8.785 -0.8214 -0.0058 -0.1587
   14CHL1   H25 1028   0.736   6.469   8.776  0.1224  0.1239 -0.7493
   14CHL1   C26 1029   0.615   6.613   8.687 -0.0204  0.1404  0.0245
   14CHL1  H26A 1030   0.600   6.722   8.677  1.7187  0.2992 -1.4590
   14CHL1  H26B 1031   0.640   6.567   8.589  1.3042  0.4534  0.1887
   14CHL1  H26C 1032   0.516   6.580   8.723 -0.4416  1.7368  0.3963
   14CHL1   C27 1033   0.864   6.641   8.743  0.4278 -0.2466 -0.5094
   14CHL1  H27A 1034   0.948   6.582   8.786  0.5208 -0.7847 -1.3957
   14CHL1  H27B 1035   0.862   6.634   8.632  0.7405 -0.1563 -0.5228
   14CHL1  H27C 1036   0.863   6.748   8.773  0.3970 -0.5089  0.4499
   15CHL1    C3 1037   1.880   5.039  10.297  0.1890 -0.1716  0.3355
   15CHL1    H3 1038   1.931   5.137  10.286  1.8752 -1.1608 -1.2733
   15CHL1    O3 1039   1.873   5.012  10.436  0.1892 -0.0376  0.6879
   15CHL1   H3' 1040   1.835   4.923  10.441 -1.2727  0.1977 -2.8496
   15CHL1    C4 1041   1.737   5.055  10.226 -0.9927 -0.1299  0.3305
   15CHL1   H4A 1042   1.682   4.964  10.258 -1.5193 -0.5217 -1.5950
   15CHL1   H4B 1043   1.688   5.143  10.272 -0.1975 -0.5959  2.1958
   15CHL1    C5 1044   1.750   5.072  10.074  0.5067 -0.1521 -0.8689
   15CHL1    C6 1045   1.702   5.179  10.013  0.9252  0.1372 -0.1849
   15CHL1    H6 1046   1.634   5.249  10.063  0.6205 -0.3170  0.0388
   15CHL1    C7 1047   1.713   5.213   9.865 -0.0571 -0.1857  0.4531
   15CHL1   H7A 1048   1.613   5.238   9.824 -0.7369 -0.4589  1.8657
   15CHL1   H7B 1049   1.786   5.293   9.843  2.0290 -1.7330  1.4156
   15CHL1    C8 1050   1.764   5.090   9.789  0.5299 -0.4662  0.2010
   15CHL1    H8 1051   1.675   5.023   9.782 -1.3761  2.0058 -0.8914
   15CHL1   C14 1052   1.797   5.127   9.652 -0.1090  0.3480 -0.6669
   15CHL1   H14 1053   1.880   5.200   9.661  0.5835 -0.1930 -2.3112
   15CHL1   C15 1054   1.693   5.199   9.565  0.2446  0.1960 -0.6767
   15CHL1  H15A 1055   1.594   5.149   9.572 -0.1051  1.0659  1.1648
   15CHL1  H15B 1056   1.687   5.302   9.605 -0.0030  0.1898 -0.6964
   15CHL1   C16 1057   1.750   5.175   9.425 -0.8084 -0.0434  0.0672
   15CHL1  H16A 1058   1.660   5.148   9.364 -2.7059  0.7952  2.3383
   15CHL1  H16B 1059   1.791   5.273   9.392  2.1565 -1.7456 -1.7699
   15CHL1   C17 1060   1.865   5.068   9.428  0.1775 -0.6607  0.0263
   15CHL1   H17 1061   1.957   5.130   9.427  1.0117 -1.8358 -2.0615
   15CHL1   C13 1062   1.847   5.006   9.569 -0.6566  0.3274 -0.2189
   15CHL1   C18 1063   1.735   4.894   9.550  0.2139 -0.2953 -0.2792
   15CHL1  H18A 1064   1.682   4.855   9.638  0.1226  0.1884 -0.1156
   15CHL1  H18B 1065   1.654   4.942   9.491 -0.3773 -0.2886  0.5278
   15CHL1  H18C 1066   1.789   4.817   9.490  0.1193 -1.1249  0.6856
   15CHL1   C12 1067   1.978   4.950   9.637  0.2464 -0.1061  0.4176
   15CHL1  H12A 1068   2.031   4.882   9.567  0.1028 -2.5507  2.5568
   15CHL1  H12B 1069   2.057   5.028   9.641  0.4617 -0.3866  3.3145
   15CHL1   C11 1070   1.944   4.902   9.778 -0.2661  0.6026  0.5988
   15CHL1  H11A 1071   1.865   4.825   9.769 -1.8952  2.3539 -1.0891
   15CHL1  H11B 1072   2.037   4.868   9.828 -0.2475 -3.1415 -1.6035
   15CHL1    C9 1073   1.878   5.016   9.855 -0.2053  0.3167 -0.7351
   15CHL1    H9 1074   1.956   5.094   9.865  2.3332 -1.6930 -3.1120
   15CHL1   C10 1075   1.835   4.975   9.999 -0.9078 -0.1891  0.0915
   15CHL1   C19 1076   1.744   4.848  10.002 -1.5211 -0.5588  0.2470
   15CHL1  H19A 1077   1.657   4.869   9.937  0.0539 -0.5805 -1.9977
   15CHL1  H19B 1078   1.792   4.758   9.958  0.0981 -0.1102  1.0243
   15CHL1  H19C 1079   1.715   4.825  10.106 -1.9258  2.0371  0.7846
   15CHL1    C1 1080   1.970   4.949  10.080 -0.2928  0.4031  0.0433
   15CHL1   H1A 1081   2.016   4.856  10.042 -2.1024  0.9614 -4.0951
   15CHL1   H1B 1082   2.034   5.035  10.052 -1.5697  1.2177 -0.4812
   15CHL1    C2 1083   1.961   4.936  10.232  0.0394  0.1601  0.2411
   15CHL1   H2A 1084   2.064   4.939  10.273 -0.2495  0.9844  0.9356
   15CHL1   H2B 1085   1.921   4.836  10.257 -3.0391  0.5975 -2.2706
   15CHL1   C20 1086   1.892   4.980   9.307 -0.2872 -0.4325 -0.4174
   15CHL1   H20 1087   1.962   4.899   9.336  0.4310  0.0181 -0.8554
   15CHL1   C21 1088   1.975   5.071   9.208  0.7067 -0.2919  0.7394
   15CHL1  H21A 1089   1.927   5.169   9.185  1.9659 -0.0812 -1.2794
   15CHL1  H21B 1090   1.991   5.029   9.106  2.1755 -1.3982  1.3939
   15CHL1  H21C 1091   2.080   5.079   9.242  1.1584  0.7291 -0.7727
   15CHL1   C22 1092   1.765   4.920   9.237 -0.0847 -0.2403  0.1432
   15CHL1  H22A 1093   1.677   4.886   9.296  0.8325  0.9555  2.3415
   15CHL1  H22B 1094   1.724   4.996   9.168  1.4688 -2.2165 -3.1833
   15CHL1   C23 1095   1.815   4.804   9.151  0.2013  0.5727  0.1475
   15CHL1  H23A 1096   1.901   4.840   9.091 -0.7603  2.6093 -0.0661
   15CHL1  H23B 1097   1.845   4.727   9.226  0.7975  0.5597 -0.0991
   15CHL1   C24 1098   1.701   4.740   9.066 -0.2885  0.1333 -0.0073
   15CHL1  H24A 1099   1.619   4.704   9.132 -0.2262  0.0120  0.0027
   15CHL1  H24B 1100   1.650   4.821   9.009 -1.7402 -0.1033  0.9106
   15CHL1   C25 1101   1.755   4.628   8.965  0.3670 -0.2030  0.5753
   15CHL1   H25 1102   1.800   4.546   9.025  0.6255  0.4570  1.3010
   15CHL1   C26 1103   1.636   4.565   8.896  0.8002 -0.1329  0.1070
   15CHL1  H26A 1104   1.662   4.496   8.812 -0.4166 -1.5950  0.8764
   15CHL1  H26B 1105   1.582   4.507   8.974  0.0100 -1.5036 -1.3991
   15CHL1  H26C 1106   1.566   4.642   8.857  0.4043 -0.2550  0.5604
   15CHL1   C27 1107   1.856   4.681   8.864 -0.2900 -0.1503  0.3938
   15CHL1  H27A 1108   1.943   4.724   8.919  0.1094 -1.9466  1.2066
   15CHL1  H27B 1109   1.902   4.595   8.811 -1.3303 -0.7302  0.4198
   15CHL1  H27C 1110   1.805   4.755   8.798 -0.9572 -0.8263  0.1398
   16CHL1    C3 1111   1.565   6.668  10.440 -0.1329  0.7063 -0.1491
   16CHL1    H3 1112   1.473   6.605  10.450  0.7067 -0.9036 -1.8523
   16CHL1    O3 1113   1.634   6.645  10.559 -0.3721  0.4831 -0.1067
   16CHL1   H3' 1114   1.670   6.556  10.558 -1.5141 -0.0684  2.0298
   16CHL1    C4 1115   1.651   6.619  10.319 -0.4209  0.6629 -0.3344
   16CHL1   H4A 1116   1.741   6.683  10.320  1.5707 -1.8966  2.5768
   16CHL1   H4B 1117   1.677   6.514  10.342 -0.9653  0.7486  0.7497
   16CHL1    C5 1118   1.555   6.630  10.195 -0.1024 -0.4981  0.3556
   16CHL1    C6 1119   1.517   6.527  10.120  0.5247  0.3061 -0.4481
   16CHL1    H6 1120   1.563   6.432  10.151  1.7645  0.8906 -0.4293
   16CHL1    C7 1121   1.438   6.535   9.994  0.0255  0.3295  0.0682
   16CHL1   H7A 1122   1.472   6.461   9.918 -0.9235 -0.9404  0.8548
   16CHL1   H7B 1123   1.333   6.509  10.018  0.9564 -1.3562  2.6883
   16CHL1    C8 1124   1.450   6.673   9.933  0.0705 -0.6790 -0.2908
   16CHL1    H8 1125   1.555   6.690   9.902  0.4879 -0.6211  1.0901
   16CHL1   C14 1126   1.372   6.691   9.806  0.4270 -0.5469 -0.6320
   16CHL1   H14 1127   1.267   6.675   9.839 -0.0929  1.0854 -1.4284
   16CHL1   C15 1128   1.396   6.577   9.702  0.4637 -0.0636  0.3529
   16CHL1  H15A 1129   1.501   6.544   9.705  1.7888  3.2763 -2.0273
   16CHL1  H15B 1130   1.329   6.490   9.719 -0.9584  0.6170 -1.4111
   16CHL1   C16 1131   1.361   6.644   9.564  0.2927  0.2931  0.4275
   16CHL1  H16A 1132   1.454   6.648   9.505 -0.0653  1.1401 -0.0935
   16CHL1  H16B 1133   1.289   6.579   9.509  3.5710 -0.4208 -3.4971
   16CHL1   C17 1134   1.307   6.786   9.604 -0.3164 -0.4111  0.8761
   16CHL1   H17 1135   1.197   6.787   9.616 -0.2991  2.0691  1.3139
   16CHL1   C13 1136   1.374   6.824   9.741 -0.2452 -0.1785  0.0593
   16CHL1   C18 1137   1.526   6.857   9.702 -0.2760 -0.0448 -0.4345
   16CHL1  H18A 1138   1.600   6.822   9.777 -1.9326 -0.5846  1.0431
   16CHL1  H18B 1139   1.555   6.817   9.603  2.0489 -0.4091  0.3442
   16CHL1  H18C 1140   1.531   6.967   9.693 -1.7552  0.0022 -1.0116
   16CHL1   C12 1141   1.318   6.922   9.843  0.2919  0.2191 -0.9173
   16CHL1  H12A 1142   1.310   7.024   9.800  0.4176  0.1279 -1.1617
   16CHL1  H12B 1143   1.214   6.894   9.870  0.6157 -0.1286  0.0102
   16CHL1   C11 1144   1.397   6.924   9.978 -0.3041  0.0299 -0.1002
   16CHL1  H11A 1145   1.486   6.987   9.961 -0.3315  0.7827  2.1789
   16CHL1  H11B 1146   1.344   6.989  10.051 -1.0716  1.8575 -2.1656
   16CHL1    C9 1147   1.416   6.779  10.041 -1.2478  1.0323 -0.7431
   16CHL1    H9 1148   1.324   6.741  10.091 -0.2973 -0.8115 -0.2789
   16CHL1   C10 1149   1.511   6.772  10.169  0.4078 -0.3131 -0.6186
   16CHL1   C19 1150   1.627   6.871  10.135 -0.6171 -0.0897  0.5606
   16CHL1  H19A 1151   1.718   6.876  10.199 -1.1670 -0.5818  1.3907
   16CHL1  H19B 1152   1.663   6.857  10.031 -0.1875  1.9368  0.3911
   16CHL1  H19C 1153   1.592   6.976  10.144  0.4554  0.3592 -0.2303
   16CHL1    C1 1154   1.435   6.830  10.294  0.1082  0.2587  0.4389
   16CHL1   H1A 1155   1.404   6.936  10.281  1.1015  0.3945 -1.1576
   16CHL1   H1B 1156   1.339   6.777  10.312  0.0971 -0.0923 -0.5553
   16CHL1    C2 1157   1.517   6.815  10.426  0.2625 -0.0280 -0.5958
   16CHL1   H2A 1158   1.450   6.848  10.508  0.4810 -1.7043  0.3080
   16CHL1   H2B 1159   1.612   6.872  10.434  1.3729 -1.8366 -0.2767
   16CHL1   C20 1160   1.325   6.891   9.488  0.2788 -0.0312 -0.2809
   16CHL1   H20 1161   1.432   6.897   9.457  0.2400  2.0808 -0.1614
   16CHL1   C21 1162   1.279   7.028   9.543  0.2267  0.9316 -0.5915
   16CHL1  H21A 1163   1.353   7.088   9.600 -0.5842  1.7372 -0.3529
   16CHL1  H21B 1164   1.183   7.024   9.599  0.0577 -2.2307 -0.9151
   16CHL1  H21C 1165   1.244   7.093   9.459 -2.8244 -0.4696 -0.5435
   16CHL1   C22 1166   1.256   6.837   9.364  0.0706  0.4182  0.5773
   16CHL1  H22A 1167   1.281   6.730   9.343 -2.2856 -0.0923  0.1127
   16CHL1  H22B 1168   1.147   6.840   9.383  0.1616 -0.0502  1.1970
   16CHL1   C23 1169   1.284   6.904   9.234  0.6724 -0.5674  0.3273
   16CHL1  H23A 1170   1.262   7.012   9.251 -0.6243 -0.9579  1.2945
   16CHL1  H23B 1171   1.393   6.893   9.214  0.7322  1.4379 -0.7067
   16CHL1   C24 1172   1.210   6.846   9.111  0.1852 -0.0521  0.0731
   16CHL1  H24A 1173   1.215   6.735   9.113 -3.7818 -0.3542 -0.1171
   16CHL1  H24B 1174   1.103   6.858   9.138 -0.7085 -1.0918 -2.6439
   16CHL1   C25 1175   1.236   6.910   8.978 -0.5910 -0.3669 -0.7392
   16CHL1   H25 1176   1.340   6.903   8.942  0.2697  1.1014  1.2651
   16CHL1   C26 1177   1.155   6.845   8.865  0.5358 -0.2609  0.4818
   16CHL1  H26A 1178   1.051   6.841   8.905  0.8788  0.9197  1.5438
   16CHL1  H26B 1179   1.166   6.903   8.771  1.1176 -1.3828 -0.1565
   16CHL1  H26C 1180   1.200   6.747   8.838  1.8862  0.9939 -2.2356
   16CHL1   C27 1181   1.218   7.061   8.980 -0.3724 -0.2983  0.6649
   16CHL1  H27A 1182   1.235   7.104   8.879 -2.2084 -1.8174 -0.3779
   16CHL1  H27B 1183   1.117   7.103   9.001  0.6409  3.0191 -0.5332
   16CHL1  H27C 1184   1.288   7.115   9.047 -0.1490  1.8258 -1.1346
   17CHL1    C3 1185   4.709   3.022  10.289  0.2049  0.0162  0.2259
   17CHL1    H3 1186   4.695   3.111  10.224  3.2079  0.7395  0.4474
   17CHL1    O3 1187   4.705   3.055  10.429  0.5659  0.2952  0.0153
   17CHL1   H3' 1188   4.637   3.122  10.437  0.2776  0.1962 -1.4053
   17CHL1    C4 1189   4.594   2.915  10.258 -0.3826  0.2896 -0.4245
   17CHL1   H4A 1190   4.591   2.825  10.323  0.8647 -0.0746 -0.8250
   17CHL1   H4B 1191   4.501   2.969  10.283 -0.7356 -0.1804 -0.7157
   17CHL1    C5 1192   4.594   2.875  10.109  0.0304 -0.0581  0.2868
   17CHL1    C6 1193   4.478   2.890  10.042 -0.1239 -1.0461  0.4544
   17CHL1    H6 1194   4.380   2.919  10.083 -0.5240 -0.0207 -1.1074
   17CHL1    C7 1195   4.468   2.861   9.896  0.0679 -0.7464  0.8968
   17CHL1   H7A 1196   4.376   2.804   9.871 -1.8227  2.1066  0.8089
   17CHL1   H7B 1197   4.448   2.965   9.862  2.9015 -0.2435  0.4985
   17CHL1    C8 1198   4.601   2.798   9.834 -0.0763  0.6285  0.3320
   17CHL1    H8 1199   4.596   2.690   9.860 -1.0292  0.1707 -1.5525
   17CHL1   C14 1200   4.604   2.822   9.684  0.4753 -0.7138  0.1615
   17CHL1   H14 1201   4.618   2.931   9.675  2.1640 -0.9889 -1.1111
   17CHL1   C15 1202   4.476   2.784   9.598 -0.1500 -0.1960  0.8007
   17CHL1  H15A 1203   4.427   2.688   9.626 -0.9982 -0.0599 -0.1604
   17CHL1  H15B 1204   4.403   2.867   9.608  0.0998  0.1704 -0.2483
   17CHL1   C16 1205   4.535   2.773   9.456 -0.9522 -0.1000 -0.0941
   17CHL1  H16A 1206   4.518   2.669   9.420 -0.2175  0.1924 -1.3300
   17CHL1  H16B 1207   4.504   2.851   9.383 -0.3842  2.7921  2.5236
   17CHL1   C17 1208   4.691   2.786   9.472 -0.0169  0.7135  0.5064
   17CHL1   H17 1209   4.713   2.895   9.475  1.1952  0.5803 -1.6650
   17CHL1   C13 1210   4.728   2.756   9.618  0.1682 -0.4270 -0.3109
   17CHL1   C18 1211   4.712   2.603   9.635  0.5733 -0.8882 -0.3576
   17CHL1  H18A 1212   4.728   2.573   9.741  0.3381 -0.5796 -0.2332
   17CHL1  H18B 1213   4.616   2.559   9.602  0.4166 -1.7196  1.1274
   17CHL1  H18C 1214   4.802   2.568   9.580  0.8159  0.0582 -0.5903
   17CHL1   C12 1215   4.857   2.812   9.684 -0.2238 -0.1648  0.2521
   17CHL1  H12A 1216   4.937   2.749   9.642  0.4181  0.2480  0.8260
   17CHL1  H12B 1217   4.870   2.922   9.671 -2.5031  0.2157  0.7364
   17CHL1   C11 1218   4.863   2.793   9.835 -0.2404 -0.4553  0.2995
   17CHL1  H11A 1219   4.864   2.684   9.855 -0.7237 -0.8924 -1.8384
   17CHL1  H11B 1220   4.952   2.841   9.881 -0.1102  1.0041 -1.3464
   17CHL1    C9 1221   4.736   2.852   9.898  0.6032  0.0170 -0.2692
   17CHL1    H9 1222   4.727   2.959   9.868 -2.0841 -0.1705 -0.3609
   17CHL1   C10 1223   4.732   2.847  10.051 -0.5275 -0.3206  0.0039
   17CHL1   C19 1224   4.765   2.705  10.101 -0.5660 -0.2989 -0.0138
   17CHL1  H19A 1225   4.743   2.700  10.210 -2.2990  2.7537 -0.1102
   17CHL1  H19B 1226   4.713   2.618  10.055 -0.7317 -0.3271  0.2269
   17CHL1  H19C 1227   4.875   2.695  10.091 -0.3358  1.1235  0.7700
   17CHL1    C1 1228   4.845   2.933  10.109 -0.3329  0.3083  0.1555
   17CHL1   H1A 1229   4.950   2.899  10.092  0.2152  0.6392  2.5493
   17CHL1   H1B 1230   4.844   3.035  10.066  2.7933  0.6794  0.6977
   17CHL1    C2 1231   4.838   2.965  10.258 -0.5963 -0.0794  0.1119
   17CHL1   H2A 1232   4.927   3.028  10.283 -1.1318  1.3801 -1.4095
   17CHL1   H2B 1233   4.843   2.870  10.314  0.4296  0.4203  0.9128
   17CHL1   C20 1234   4.784   2.735   9.360  0.4389  0.0473 -0.7546
   17CHL1   H20 1235   4.770   2.625   9.354  0.0331  0.1125 -1.0561
   17CHL1   C21 1236   4.936   2.766   9.370 -0.2923  0.7625 -0.8204
   17CHL1  H21A 1237   4.953   2.874   9.389 -1.9402  0.8889  0.1874
   17CHL1  H21B 1238   4.994   2.732   9.282  2.2633 -0.9560  1.3691
   17CHL1  H21C 1239   4.980   2.720   9.461  0.4058 -1.0981 -2.0378
   17CHL1   C22 1240   4.737   2.777   9.221  0.4135 -0.2675 -0.6405
   17CHL1  H22A 1241   4.796   2.727   9.142  0.2412  0.1870 -1.0638
   17CHL1  H22B 1242   4.629   2.759   9.201  0.1864  0.0371  0.2412
   17CHL1   C23 1243   4.748   2.927   9.198 -0.1997 -0.4544  0.3127
   17CHL1  H23A 1244   4.702   2.985   9.281 -0.4876 -0.0422 -0.1322
   17CHL1  H23B 1245   4.856   2.955   9.201 -0.4539  0.7913 -0.9257
   17CHL1   C24 1246   4.687   2.972   9.070  0.6274  0.3350 -0.0203
   17CHL1  H24A 1247   4.576   2.964   9.080  0.4425  2.6364  0.4497
   17CHL1  H24B 1248   4.700   3.081   9.052 -1.0577  0.7134  0.8244
   17CHL1   C25 1249   4.723   2.887   8.949 -0.8100  0.2317  0.8350
   17CHL1   H25 1250   4.708   2.780   8.972  0.4714  0.0572  0.8937
   17CHL1   C26 1251   4.648   2.912   8.822 -0.2310  0.6367 -0.1617
   17CHL1  H26A 1252   4.679   2.841   8.743 -0.5286  0.5199 -0.1745
   17CHL1  H26B 1253   4.539   2.908   8.841 -0.6750  0.6196 -2.4214
   17CHL1  H26C 1254   4.665   3.012   8.775 -0.4628 -0.2306 -2.2121
   17CHL1   C27 1255   4.868   2.894   8.911  0.5639  0.6492 -0.6262
   17CHL1  H27A 1256   4.931   2.853   8.994 -1.6019  1.6382  1.6205
   17CHL1  H27B 1257   4.907   2.839   8.823 -0.5173 -2.0681  0.4700
   17CHL1  H27C 1258   4.884   3.002   8.894  0.6105  0.5630 -1.1502
   18CHL1    C3 1259   4.238   1.126  10.004 -0.3473  0.4157 -0.1677
   18CHL1    H3 1260   4.333   1.072  10.027  0.2816  0.4546 -2.5033
   18CHL1    O3 1261   4.157   1.155  10.113  0.3259  0.2030 -0.5002
   18CHL1   H3' 1262   4.205   1.213  10.173  0.6116 -0.3455 -0.1902
   18CHL1    C4 1263   4.281   1.254   9.932 -0.5218  0.1092  0.2995
   18CHL1   H4A 1264   4.184   1.307   9.922 -2.0230 -2.8687 -3.9700
   18CHL1   H4B 1265   4.339   1.321   9.998  0.2979  1.2462 -1.5049
   18CHL1    C5 1266   4.350   1.249   9.796 -0.1690  0.0921 -0.8072
   18CHL1    C6 1267   4.472   1.307   9.774 -0.7466 -0.1209 -0.0490
   18CHL1    H6 1268   4.518   1.353   9.863  1.7265  0.6306 -1.6220
   18CHL1    C7 1269   4.555   1.297   9.643  0.8071  0.3112 -0.1305
   18CHL1   H7A 1270   4.587   1.397   9.606 -1.8895  0.5242 -2.2479
   18CHL1   H7B 1271   4.640   1.227   9.656  0.5902 -0.2807 -1.6371
   18CHL1    C8 1272   4.470   1.238   9.529  0.5980  0.9156 -0.2068
   18CHL1    H8 1273   4.395   1.314   9.500  0.1272 -0.0242 -1.5937
   18CHL1   C14 1274   4.552   1.200   9.404 -0.5444 -0.0339 -0.5561
   18CHL1   H14 1275   4.630   1.128   9.437  0.6281  1.7291  0.7331
   18CHL1   C15 1276   4.642   1.323   9.353  0.6448  0.5928 -0.1142
   18CHL1  H15A 1277   4.587   1.419   9.366  0.5786  0.8293 -1.8642
   18CHL1  H15B 1278   4.731   1.334   9.418  0.9757 -2.0622 -0.0294
   18CHL1   C16 1279   4.673   1.278   9.212  0.2177 -0.5613 -0.1169
   18CHL1  H16A 1280   4.639   1.363   9.149  1.8789  0.7387  0.6376
   18CHL1  H16B 1281   4.777   1.242   9.195 -0.9149 -2.7601 -3.1160
   18CHL1   C17 1282   4.589   1.147   9.180 -0.5093 -0.7455 -0.0030
   18CHL1   H17 1283   4.656   1.063   9.207 -2.9706 -3.6562 -2.3117
   18CHL1   C13 1284   4.480   1.146   9.289  0.6555  0.2502  0.3739
   18CHL1   C18 1285   4.372   1.249   9.240  0.3457 -0.1371  1.0839
   18CHL1  H18A 1286   4.290   1.208   9.178  0.1235 -0.8381  1.8366
   18CHL1  H18B 1287   4.314   1.299   9.320  0.5379 -2.1075  2.5180
   18CHL1  H18C 1288   4.416   1.331   9.179  2.0144 -1.6566  0.1327
   18CHL1   C12 1289   4.406   1.019   9.343  0.6684 -0.2085  0.1900
   18CHL1  H12A 1290   4.346   0.974   9.261  0.5248  2.0824 -1.0332
   18CHL1  H12B 1291   4.491   0.950   9.364  0.0236 -1.2911 -0.6734
   18CHL1   C11 1292   4.316   1.049   9.462  0.3407  0.1723  0.7136
   18CHL1  H11A 1293   4.232   1.114   9.431  0.4093 -0.3973 -0.7272
   18CHL1  H11B 1294   4.271   0.950   9.485 -1.0314  0.7883  0.7548
   18CHL1    C9 1295   4.387   1.114   9.583  1.3426  0.2365 -0.8484
   18CHL1    H9 1296   4.463   1.047   9.631  0.6543  0.9248  1.3108
   18CHL1   C10 1297   4.285   1.156   9.697 -0.3713  0.7985 -0.4307
   18CHL1   C19 1298   4.165   1.229   9.643  0.2611 -0.0315  0.3162
   18CHL1  H19A 1299   4.193   1.301   9.563 -1.0335 -0.0878 -0.2007
   18CHL1  H19B 1300   4.082   1.163   9.613  0.4774 -0.6445  1.0277
   18CHL1  H19C 1301   4.117   1.296   9.718  1.8093 -0.1701  1.4879
   18CHL1    C1 1302   4.240   1.030   9.767  1.0536  0.1079  0.7502
   18CHL1   H1A 1303   4.181   0.972   9.693  2.1212 -1.6369  1.2057
   18CHL1   H1B 1304   4.333   0.972   9.788  0.0718 -1.6572  0.4717
   18CHL1    C2 1305   4.166   1.036   9.903 -0.9243  0.0627  0.1341
   18CHL1   H2A 1306   4.146   0.933   9.941 -1.5380 -0.0722 -0.5147
   18CHL1   H2B 1307   4.069   1.086   9.882 -0.3071  0.5760 -1.7270
   18CHL1   C20 1308   4.553   1.135   9.027 -0.0633 -0.2501  1.1404
   18CHL1   H20 1309   4.471   1.207   9.005  1.7909  1.6442  0.0447
   18CHL1   C21 1310   4.505   0.988   9.006  0.2704  0.5058  0.2497
   18CHL1  H21A 1311   4.461   0.977   8.904 -0.9084  0.7551  0.7143
   18CHL1  H21B 1312   4.427   0.960   9.079  1.0111 -1.3181  0.3876
   18CHL1  H21C 1313   4.590   0.918   9.014  0.9372  1.4785  2.5744
   18CHL1   C22 1314   4.657   1.168   8.922  0.4837  0.2653  0.5838
   18CHL1  H22A 1315   4.716   1.261   8.934 -0.7803  1.0686  0.6817
   18CHL1  H22B 1316   4.742   1.099   8.940  1.6285  0.8391 -2.2261
   18CHL1   C23 1317   4.611   1.167   8.770  0.2935 -0.7831  0.3439
   18CHL1  H23A 1318   4.565   1.067   8.752 -1.3671 -0.2943  1.6151
   18CHL1  H23B 1319   4.530   1.243   8.762 -0.7626 -1.7632  1.3214
   18CHL1   C24 1320   4.720   1.202   8.671  0.6898 -0.1191 -0.8534
   18CHL1  H24A 1321   4.781   1.291   8.698 -0.2269  0.5590 -0.9546
   18CHL1  H24B 1322   4.793   1.119   8.660  3.8827  2.3037  0.4142
   18CHL1   C25 1323   4.661   1.233   8.526  0.1678  0.7781 -1.1090
   18CHL1   H25 1324   4.585   1.313   8.538 -0.9945 -0.1405 -2.1460
   18CHL1   C26 1325   4.784   1.291   8.446  0.8920  0.0386 -0.4208
   18CHL1  H26A 1326   4.844   1.200   8.428  0.5730 -0.5041  1.1342
   18CHL1  H26B 1327   4.749   1.322   8.345  0.2741 -3.5155 -1.4466
   18CHL1  H26C 1328   4.840   1.369   8.502  3.3554 -1.1388 -1.1320
   18CHL1   C27 1329   4.593   1.117   8.447  0.4003  0.5107  0.0608
   18CHL1  H27A 1330   4.671   1.061   8.392  0.6996  1.0144 -0.0355
   18CHL1  H27B 1331   4.536   1.044   8.508  0.1823 -1.2315 -2.0829
   18CHL1  H27C 1332   4.534   1.158   8.362  2.3968 -0.5519 -1.9358
   19CHL1    C3 1333   5.572   5.325   9.998 -0.7272  0.9706 -0.1171
   19CHL1    H3 1334   5.478   5.381   9.984  0.0185  2.0036 -1.2493
   19CHL1    O3 1335   5.606   5.325  10.131  0.1149  0.5049 -0.1755
   19CHL1   H3' 1336   5.698   5.297  10.128  0.4025  1.3255  0.6009
   19CHL1    C4 1337   5.573   5.173   9.951 -0.1873  0.3272  0.0962
   19CHL1   H4A 1338   5.670   5.128   9.983 -1.2390  0.1045  3.4233
   19CHL1   H4B 1339   5.501   5.110  10.009  1.2115 -0.1965  1.3587
   19CHL1    C5 1340   5.560   5.165   9.804  0.9239  0.0051  0.6760
   19CHL1    C6 1341   5.462   5.084   9.756 -0.1378 -0.6690 -0.1534
   19CHL1    H6 1342   5.419   5.019   9.833 -2.4152  2.0748  1.0690
   19CHL1    C7 1343   5.417   5.083   9.608  0.2316  0.4429  0.0095
   19CHL1   H7A 1344   5.396   4.975   9.588  0.0128  0.1588  1.6450
   19CHL1   H7B 1345   5.319   5.135   9.608  1.3047  2.5636  0.8130
   19CHL1    C8 1346   5.524   5.146   9.509  0.1131  0.3237 -0.0983
   19CHL1    H8 1347   5.603   5.069   9.499  1.2035  1.3732  0.1183
   19CHL1   C14 1348   5.465   5.166   9.374 -0.0031  0.1976  0.3650
   19CHL1   H14 1349   5.375   5.228   9.396 -1.0735 -1.9500  2.6121
   19CHL1   C15 1350   5.399   5.043   9.305 -0.0448 -0.2884  0.0743
   19CHL1  H15A 1351   5.460   4.950   9.307  0.4179 -0.3306 -4.6176
   19CHL1  H15B 1352   5.295   5.022   9.339 -0.6638  1.2328 -0.7683
   19CHL1   C16 1353   5.393   5.081   9.156  0.2308 -0.0472  0.6316
   19CHL1  H16A 1354   5.441   5.005   9.091  0.3138 -0.7380  1.5006
   19CHL1  H16B 1355   5.293   5.101   9.110  0.2694  1.0669  0.9950
   19CHL1   C17 1356   5.470   5.222   9.142 -0.1943 -0.7746 -0.0640
   19CHL1   H17 1357   5.393   5.301   9.155  0.7468 -0.1895  2.8896
   19CHL1   C13 1358   5.562   5.226   9.269  0.1262 -0.5986  0.2518
   19CHL1   C18 1359   5.680   5.128   9.241  0.4366  0.2072  0.5193
   19CHL1  H18A 1360   5.650   5.036   9.187  0.1700  0.2634  0.5691
   19CHL1  H18B 1361   5.748   5.182   9.173 -0.3210 -0.4442 -0.8016
   19CHL1  H18C 1362   5.736   5.096   9.332 -0.9897 -0.0868  1.3278
   19CHL1   C12 1363   5.603   5.366   9.321  0.2795 -0.0548 -0.0685
   19CHL1  H12A 1364   5.649   5.427   9.240  0.6540  0.3558  0.4508
   19CHL1  H12B 1365   5.508   5.422   9.335  0.4284 -0.1487  1.4413
   19CHL1   C11 1366   5.675   5.351   9.460 -0.4111 -0.0523 -0.0482
   19CHL1  H11A 1367   5.758   5.282   9.434 -3.0381 -2.8508 -1.7617
   19CHL1  H11B 1368   5.698   5.453   9.498 -1.8831  0.5039 -0.5893
   19CHL1    C9 1369   5.575   5.279   9.558 -0.3383  0.1865 -0.2728
   19CHL1    H9 1370   5.480   5.337   9.567 -1.9228 -2.1178 -1.3700
   19CHL1   C10 1371   5.634   5.264   9.704 -0.4783 -0.3538  0.1271
   19CHL1   C19 1372   5.781   5.212   9.691  0.3853 -0.7508  0.1120
   19CHL1  H19A 1373   5.818   5.184   9.792  1.3681  0.7633  0.1984
   19CHL1  H19B 1374   5.785   5.127   9.620 -0.0519 -0.1251 -0.6803
   19CHL1  H19C 1375   5.846   5.288   9.642  0.7465 -0.7379  0.6061
   19CHL1    C1 1376   5.642   5.403   9.770  0.4375 -0.1849 -0.3942
   19CHL1   H1A 1377   5.723   5.464   9.725  1.3981 -0.9934  0.1855
   19CHL1   H1B 1378   5.545   5.456   9.762  0.1853 -0.4745  0.5941
   19CHL1    C2 1379   5.678   5.404   9.924  0.3535 -0.1445 -0.4960
   19CHL1   H2A 1380   5.661   5.511   9.946  1.0462  0.6090 -3.2532
   19CHL1   H2B 1381   5.780   5.364   9.941  0.4804 -0.7280 -2.3526
   19CHL1   C20 1382   5.528   5.237   8.998  0.6887  0.2926  0.2970
   19CHL1   H20 1383   5.614   5.168   8.983  0.3358 -0.2028  0.5329
   19CHL1   C21 1384   5.594   5.373   8.992 -0.0236  0.1786 -0.3511
   19CHL1  H21A 1385   5.534   5.452   9.041 -0.3145 -0.2088 -0.0769
   19CHL1  H21B 1386   5.616   5.412   8.890 -0.8022 -0.8528 -0.9360
   19CHL1  H21C 1387   5.691   5.371   9.045  0.5081  1.0038 -1.2443
   19CHL1   C22 1388   5.421   5.214   8.889  0.3380  0.1129  0.2784
   19CHL1  H22A 1389   5.317   5.227   8.926  0.4477  0.7113  0.3942
   19CHL1  H22B 1390   5.458   5.285   8.812 -0.0539 -0.4219 -0.4083
   19CHL1   C23 1391   5.423   5.076   8.824 -0.5244  0.0372 -0.3248
   19CHL1  H23A 1392   5.523   5.032   8.805 -0.3687  0.0352  0.4565
   19CHL1  H23B 1393   5.383   4.987   8.877  1.1841  0.5198  1.9073
   19CHL1   C24 1394   5.339   5.099   8.694 -0.3921 -0.4525  0.6588
   19CHL1  H24A 1395   5.237   5.124   8.729 -0.2761  0.4541  0.3563
   19CHL1  H24B 1396   5.378   5.188   8.640  1.4159 -2.1866 -1.0714
   19CHL1   C25 1397   5.330   4.985   8.605  0.0130 -0.0512 -0.0571
   19CHL1   H25 1398   5.417   4.916   8.615  1.1583  1.6329  2.8196
   19CHL1   C26 1399   5.215   4.897   8.644 -0.3121  0.1434 -0.3473
   19CHL1  H26A 1400   5.225   4.877   8.753  1.6576  0.4318 -0.4377
   19CHL1  H26B 1401   5.119   4.951   8.624  0.3162  1.1083 -0.8452
   19CHL1  H26C 1402   5.205   4.796   8.598 -1.6215 -0.0293  0.2822
   19CHL1   C27 1403   5.315   5.043   8.463 -1.1750 -0.4381 -0.5055
   19CHL1  H27A 1404   5.298   4.962   8.388  0.6517 -0.5760 -0.8241
   19CHL1  H27B 1405   5.237   5.122   8.460  2.2105  3.1897 -0.7933
   19CHL1  H27C 1406   5.409   5.098   8.442 -0.3160 -1.4984  0.4217
   20CHL1    C3 1407   2.664   5.751  10.344  0.3135  0.4717  0.1652
   20CHL1    H3 1408   2.555   5.770  10.339  0.6812  2.5199 -1.3098
   20CHL1    O3 1409   2.708   5.760  10.484  0.0982 -0.2490  0.4295
   20CHL1   H3' 1410   2.790   5.809  10.485 -0.4951  0.7708  1.3295
   20CHL1    C4 1411   2.705   5.617  10.289 -0.1866  0.3184 -0.5833
   20CHL1   H4A 1412   2.815   5.610  10.306 -0.4835 -0.3306  1.2548
   20CHL1   H4B 1413   2.655   5.538  10.349 -1.1396  0.1020 -1.6365
   20CHL1    C5 1414   2.677   5.589  10.150 -0.2312  0.1614  0.3516
   20CHL1    C6 1415   2.605   5.486  10.093  0.4279  0.4621 -0.2511
   20CHL1    H6 1416   2.557   5.413  10.159  1.6392 -0.1085  0.0383
   20CHL1    C7 1417   2.582   5.477   9.948  0.2067  0.4156 -0.0923
   20CHL1   H7A 1418   2.591   5.371   9.916  0.5085  0.9722 -1.9856
   20CHL1   H7B 1419   2.479   5.505   9.918 -0.2429 -2.6641 -1.8302
   20CHL1    C8 1420   2.678   5.555   9.853  0.6509 -0.5867  0.2075
   20CHL1    H8 1421   2.773   5.498   9.858  1.0173 -0.3766 -2.7831
   20CHL1   C14 1422   2.627   5.555   9.707 -0.2855  0.3452 -0.1966
   20CHL1   H14 1423   2.531   5.610   9.705 -0.6348 -0.1413  1.2860
   20CHL1   C15 1424   2.603   5.417   9.645  0.0306  0.3414  0.2910
   20CHL1  H15A 1425   2.667   5.330   9.669  1.4055  0.4943 -2.4508
   20CHL1  H15B 1426   2.505   5.373   9.672 -0.6215 -0.2658 -2.6534
   20CHL1   C16 1427   2.607   5.450   9.496  0.3223 -0.3301 -0.2481
   20CHL1  H16A 1428   2.678   5.381   9.445 -0.8642 -1.6211 -0.2400
   20CHL1  H16B 1429   2.503   5.442   9.455  0.5341 -1.4265 -0.6213
   20CHL1   C17 1430   2.645   5.604   9.482 -0.2270 -0.8116 -0.1162
   20CHL1   H17 1431   2.548   5.658   9.476  0.8850  1.1523 -1.6057
   20CHL1   C13 1432   2.721   5.639   9.616  0.8909  0.6622  0.4035
   20CHL1   C18 1433   2.868   5.572   9.600 -0.4140 -0.1649 -0.9756
   20CHL1  H18A 1434   2.919   5.577   9.698  1.2048  2.4007 -1.8656
   20CHL1  H18B 1435   2.871   5.467   9.562 -0.1178 -0.6776  0.4060
   20CHL1  H18C 1436   2.933   5.637   9.538  4.1275  0.1827  3.5329
   20CHL1   C12 1437   2.716   5.780   9.661 -0.7068 -0.3847  0.6086
   20CHL1  H12A 1438   2.781   5.850   9.603 -1.2729  2.9692  3.6354
   20CHL1  H12B 1439   2.614   5.822   9.651  0.3471  1.9845 -1.4265
   20CHL1   C11 1440   2.767   5.791   9.800 -0.0816  0.6480  0.1330
   20CHL1  H11A 1441   2.878   5.778   9.799 -0.0149  0.9376  1.4263
   20CHL1  H11B 1442   2.762   5.896   9.835  1.7057  0.8140  0.0034
   20CHL1    C9 1443   2.695   5.695   9.911 -0.2155 -0.2912  0.6544
   20CHL1    H9 1444   2.596   5.747   9.912  0.7754  1.7333 -0.5485
   20CHL1   C10 1445   2.748   5.700  10.061  0.1226  0.0198  0.8285
   20CHL1   C19 1446   2.902   5.671  10.051  1.3675 -0.1461 -0.2823
   20CHL1  H19A 1447   2.949   5.756   9.998  0.2814  0.8045  0.2233
   20CHL1  H19B 1448   2.938   5.677  10.156 -2.6558 -1.4544  1.3849
   20CHL1  H19C 1449   2.923   5.573  10.002  1.2273  0.0085 -0.6498
   20CHL1    C1 1450   2.723   5.843  10.116 -0.1744  1.4215  0.5183
   20CHL1   H1A 1451   2.797   5.913  10.070  1.6766  0.0313  1.2552
   20CHL1   H1B 1452   2.617   5.863  10.093 -0.0257  0.3264 -1.3384
   20CHL1    C2 1453   2.746   5.855  10.260  1.0342 -0.5783 -0.0898
   20CHL1   H2A 1454   2.720   5.958  10.293  1.6560  0.2898 -2.1503
   20CHL1   H2B 1455   2.853   5.845  10.288  0.5624 -1.4525  1.5162
   20CHL1   C20 1456   2.709   5.646   9.348  0.0049 -0.0699 -0.1393
   20CHL1   H20 1457   2.801   5.584   9.349 -1.8286 -3.0155  1.2467
   20CHL1   C21 1458   2.748   5.799   9.342  0.1262  0.4245 -0.9368
   20CHL1  H21A 1459   2.850   5.818   9.383 -0.8452  1.5798  1.1307
   20CHL1  H21B 1460   2.674   5.864   9.393  1.5775  0.5845  1.1113
   20CHL1  H21C 1461   2.756   5.823   9.234  1.6743  0.6870 -0.7855
   20CHL1   C22 1462   2.620   5.605   9.228 -0.0051 -0.0714  0.9320
   20CHL1  H22A 1463   2.562   5.511   9.240 -1.0335  0.0879 -2.0005
   20CHL1  H22B 1464   2.546   5.687   9.217 -0.9875 -1.0871 -0.4621
   20CHL1   C23 1465   2.697   5.601   9.096 -0.6965 -0.4246 -0.3780
   20CHL1  H23A 1466   2.756   5.694   9.079 -0.9586 -0.1761  0.0383
   20CHL1  H23B 1467   2.773   5.521   9.110 -0.0592  0.2751  0.2454
   20CHL1   C24 1468   2.617   5.585   8.967  0.2660 -0.3975 -0.6282
   20CHL1  H24A 1469   2.566   5.487   8.968  0.8838 -0.7221 -0.0284
   20CHL1  H24B 1470   2.539   5.663   8.982  1.7947  0.8750  1.3614
   20CHL1   C25 1471   2.693   5.603   8.836  0.1210 -0.4084  0.4881
   20CHL1   H25 1472   2.766   5.520   8.820  0.9523  0.6518 -1.6548
   20CHL1   C26 1473   2.581   5.581   8.722  0.6312 -0.1367 -0.6570
   20CHL1  H26A 1474   2.493   5.645   8.744  1.3327  0.7152 -0.2499
   20CHL1  H26B 1475   2.624   5.601   8.622 -0.2284 -0.3218 -1.0736
   20CHL1  H26C 1476   2.541   5.480   8.747 -1.0371  1.2217  3.0129
   20CHL1   C27 1477   2.766   5.744   8.825 -0.6781  0.0749 -0.7657
   20CHL1  H27A 1478   2.800   5.771   8.723 -0.1531  1.8175 -0.1608
   20CHL1  H27B 1479   2.696   5.828   8.844 -0.1944  0.3880 -0.3519
   20CHL1  H27C 1480   2.853   5.759   8.892  1.1447  0.1013 -3.0158
   21CHL1    C3 1481   2.236   0.991  10.230 -0.3397  0.5213  0.1130
   21CHL1    H3 1482   2.127   1.014  10.225 -0.5390 -0.5613 -0.6967
   21CHL1    O3 1483   2.268   0.904  10.330 -1.2679  0.2767 -0.0355
   21CHL1   H3' 1484   2.357   0.920  10.362 -1.1964  1.5493 -0.7957
   21CHL1    C4 1485   2.288   0.928  10.099 -0.3533 -0.6013  0.0096
   21CHL1   H4A 1486   2.396   0.906  10.117 -0.3197 -2.1088 -1.6873
   21CHL1   H4B 1487   2.242   0.827  10.090 -0.1443 -0.8396  1.3593
   21CHL1    C5 1488   2.266   1.024   9.988  0.3702  0.2393  0.1870
   21CHL1    C6 1489   2.195   0.981   9.879  0.0910  0.1424 -0.6689
   21CHL1    H6 1490   2.159   0.878   9.885 -2.3706  1.0340  3.2279
   21CHL1    C7 1491   2.185   1.057   9.750  0.0881 -0.3224  0.0570
   21CHL1   H7A 1492   2.209   0.996   9.660 -1.1799  1.1727 -1.3746
   21CHL1   H7B 1493   2.082   1.086   9.719  1.2377  1.8047 -2.1375
   21CHL1    C8 1494   2.275   1.186   9.748  0.2135 -0.1746  0.1393
   21CHL1    H8 1495   2.377   1.145   9.738  0.2977  0.0721 -0.0172
   21CHL1   C14 1496   2.229   1.263   9.628  0.5235  0.4154  0.4810
   21CHL1   H14 1497   2.123   1.292   9.643  0.2025 -0.4800 -0.0137
   21CHL1   C15 1498   2.237   1.198   9.486 -0.5143  0.9461 -0.6143
   21CHL1  H15A 1499   2.338   1.154   9.477 -1.5524 -1.6935 -0.4412
   21CHL1  H15B 1500   2.166   1.114   9.469  1.2811 -0.4682 -1.4919
   21CHL1   C16 1501   2.247   1.315   9.391 -0.4859  0.6412 -0.0181
   21CHL1  H16A 1502   2.337   1.304   9.327 -0.2672 -1.5038  0.5808
   21CHL1  H16B 1503   2.150   1.319   9.338  0.2243 -0.3153 -1.4433
   21CHL1   C17 1504   2.254   1.440   9.485 -0.5466 -0.1838  0.6534
   21CHL1   H17 1505   2.149   1.475   9.496 -0.6355  0.5022 -1.6883
   21CHL1   C13 1506   2.302   1.390   9.625  0.0060 -0.0616  0.4982
   21CHL1   C18 1507   2.453   1.360   9.612 -0.2684 -0.3662  0.1699
   21CHL1  H18A 1508   2.486   1.306   9.521 -1.2316  0.2393 -0.5598
   21CHL1  H18B 1509   2.492   1.464   9.607 -0.7705 -0.1780  0.0299
   21CHL1  H18C 1510   2.498   1.306   9.698  0.8827  1.7100  0.9544
   21CHL1   C12 1511   2.273   1.472   9.755  0.2118 -0.3227 -0.2922
   21CHL1  H12A 1512   2.319   1.573   9.750 -0.5419 -0.0152 -1.5531
   21CHL1  H12B 1513   2.165   1.493   9.771  0.1447 -2.0090  2.1163
   21CHL1   C11 1514   2.324   1.402   9.887 -0.1547  0.4195 -0.3324
   21CHL1  H11A 1515   2.434   1.419   9.896 -0.4540  3.0907 -0.9461
   21CHL1  H11B 1516   2.286   1.460   9.973 -1.8481 -1.1268  0.0248
   21CHL1    C9 1517   2.276   1.255   9.892  0.4503 -0.5206 -0.3482
   21CHL1    H9 1518   2.170   1.274   9.920  0.8891  1.2869  0.2746
   21CHL1   C10 1519   2.330   1.163  10.004  0.1335 -0.2759 -0.2224
   21CHL1   C19 1520   2.480   1.150   9.991 -0.5140  0.5264 -0.0729
   21CHL1  H19A 1521   2.516   1.093  10.079 -2.9717 -0.0569  0.6535
   21CHL1  H19B 1522   2.504   1.081   9.907 -0.9117  1.3429 -0.8645
   21CHL1  H19C 1523   2.534   1.246  10.000  1.6957 -0.4369 -2.1144
   21CHL1    C1 1524   2.294   1.222  10.150  0.5663 -0.5095  0.4556
   21CHL1   H1A 1525   2.353   1.315  10.166 -0.4214  0.1777  0.2284
   21CHL1   H1B 1526   2.192   1.266  10.149  1.2184  1.1361 -1.8371
   21CHL1    C2 1527   2.314   1.119  10.264 -0.3755 -0.0019 -0.0658
   21CHL1   H2A 1528   2.267   1.165  10.353 -2.3529  1.0847 -1.5652
   21CHL1   H2B 1529   2.424   1.102  10.264 -0.4705 -0.9637 -1.9302
   21CHL1   C20 1530   2.333   1.559   9.405  0.0576 -0.2445  0.0367
   21CHL1   H20 1531   2.440   1.531   9.395 -0.1966 -1.5351  0.6696
   21CHL1   C21 1532   2.320   1.688   9.498 -0.5038  0.1967  0.2906
   21CHL1  H21A 1533   2.352   1.776   9.438  1.4920 -0.9826 -0.4482
   21CHL1  H21B 1534   2.383   1.681   9.589 -1.5743  2.7702  1.3312
   21CHL1  H21C 1535   2.220   1.703   9.545 -0.9297 -0.5586 -0.3510
   21CHL1   C22 1536   2.272   1.596   9.267  0.0459  0.3631  0.4473
   21CHL1  H22A 1537   2.237   1.504   9.215 -1.5210  1.5863 -0.7393
   21CHL1  H22B 1538   2.191   1.670   9.282 -0.4371 -0.4791  2.3253
   21CHL1   C23 1539   2.372   1.660   9.175 -0.6089 -0.1635 -0.3256
   21CHL1  H23A 1540   2.420   1.753   9.211  1.3486 -0.9740 -0.7321
   21CHL1  H23B 1541   2.466   1.601   9.173  0.4770  1.4527 -2.9292
   21CHL1   C24 1542   2.327   1.682   9.028 -0.7772  0.0049 -0.5514
   21CHL1  H24A 1543   2.335   1.579   8.988 -0.7217 -1.4529  2.8230
   21CHL1  H24B 1544   2.222   1.719   9.022 -0.8831  0.0403  1.0182
   21CHL1   C25 1545   2.419   1.780   8.951  0.8939 -0.5171 -0.0948
   21CHL1   H25 1546   2.392   1.776   8.843 -1.7583  2.5737  0.3022
   21CHL1   C26 1547   2.374   1.932   8.972 -0.2121 -0.1051  0.3710
   21CHL1  H26A 1548   2.394   1.959   9.078 -0.4710  1.2734  0.0910
   21CHL1  H26B 1549   2.446   1.981   8.903 -1.7385  0.8091 -0.6284
   21CHL1  H26C 1550   2.271   1.958   8.941 -0.3504 -0.6483  0.3722
   21CHL1   C27 1551   2.567   1.751   8.975  0.8216  0.3112  0.4109
   21CHL1  H27A 1552   2.624   1.824   8.913 -0.1150  0.9295  0.2697
   21CHL1  H27B 1553   2.601   1.763   9.080  2.0957 -0.6771  0.1366
   21CHL1  H27C 1554   2.591   1.647   8.945 -2.3086 -0.2674 -0.3935
   22CHL1    C3 1555   0.995   2.899  10.367 -0.4223  0.4780  0.6325
   22CHL1    H3 1556   0.993   2.788  10.360 -1.1980  0.5682 -1.1809
   22CHL1    O3 1557   1.018   2.936  10.503  0.3601  0.9784  0.1740
   22CHL1   H3' 1558   1.044   3.028  10.501 -0.2003  1.2110  1.8772
   22CHL1    C4 1559   1.111   2.952  10.293 -0.3231  0.7163 -0.0683
   22CHL1   H4A 1560   1.109   3.057  10.330  4.5887  0.7588  0.6529
   22CHL1   H4B 1561   1.212   2.923  10.329  0.2649 -0.3423 -2.3699
   22CHL1    C5 1562   1.104   2.930  10.145  0.0663  0.2208 -0.4889
   22CHL1    C6 1563   1.191   2.845  10.079  0.0673 -0.2132 -0.7402
   22CHL1    H6 1564   1.267   2.791  10.138  0.5806  2.4883  1.2793
   22CHL1    C7 1565   1.190   2.832   9.930  0.3145  0.4790 -0.1541
   22CHL1   H7A 1566   1.291   2.819   9.887  0.3577 -0.5659  0.2369
   22CHL1   H7B 1567   1.132   2.741   9.908 -0.1391  1.0864 -1.5693
   22CHL1    C8 1568   1.119   2.954   9.870  0.1754  0.0904 -0.6544
   22CHL1    H8 1569   1.180   3.046   9.882 -0.7292  0.6301 -0.0402
   22CHL1   C14 1570   1.097   2.930   9.724 -0.1170  0.2326 -0.0477
   22CHL1   H14 1571   1.051   2.830   9.710  0.8860 -0.2755  0.2100
   22CHL1   C15 1572   1.228   2.905   9.649  0.3918 -0.7317 -0.6848
   22CHL1  H15A 1573   1.304   2.971   9.697 -0.6092 -1.1814  1.6444
   22CHL1  H15B 1574   1.258   2.800   9.669 -1.2684 -1.0489  0.3375
   22CHL1   C16 1575   1.202   2.933   9.496  0.2649 -0.3256 -0.6410
   22CHL1  H16A 1576   1.264   3.020   9.469  1.8561 -1.1200  0.2987
   22CHL1  H16B 1577   1.220   2.846   9.429  3.0673 -0.5073  0.2274
   22CHL1   C17 1578   1.048   2.975   9.494  0.8896 -1.0210 -0.4423
   22CHL1   H17 1579   1.000   2.875   9.497  0.1586 -0.6672  1.6937
   22CHL1   C13 1580   1.020   3.032   9.640  0.2519 -0.3393 -0.6506
   22CHL1   C18 1581   1.079   3.175   9.653  0.0828  0.0174  0.6038
   22CHL1  H18A 1582   1.189   3.164   9.648 -0.0601 -2.2790  1.3479
   22CHL1  H18B 1583   1.032   3.236   9.573 -0.5491 -1.3325 -0.0908
   22CHL1  H18C 1584   1.063   3.204   9.760 -0.9761 -2.0504  1.0605
   22CHL1   C12 1585   0.882   3.035   9.690  0.5442 -0.0484  0.0173
   22CHL1  H12A 1586   0.814   3.116   9.658 -1.4578 -1.7820 -0.3852
   22CHL1  H12B 1587   0.833   2.938   9.666  1.1415  0.3795 -3.4744
   22CHL1   C11 1588   0.877   3.053   9.844  0.3207 -0.7304 -0.6178
   22CHL1  H11A 1589   0.907   3.159   9.854  2.4379 -1.1783 -1.6730
   22CHL1  H11B 1590   0.780   3.035   9.894 -0.7430  0.1688 -2.2602
   22CHL1    C9 1591   0.981   2.971   9.933  0.1825 -0.2883  0.3410
   22CHL1    H9 1592   0.937   2.870   9.924  2.3502 -1.1567 -1.3002
   22CHL1   C10 1593   0.990   3.011  10.083 -0.4787  0.4039 -0.6013
   22CHL1   C19 1594   1.005   3.164  10.086  0.2991  0.3177  0.4770
   22CHL1  H19A 1595   0.905   3.207  10.061 -1.2304 -1.7985  2.4922
   22CHL1  H19B 1596   1.036   3.191  10.189 -0.8286 -0.4843  1.0616
   22CHL1  H19C 1597   1.080   3.209  10.017 -0.3556 -2.9426 -2.6498
   22CHL1    C1 1598   0.859   2.973  10.163 -0.2327  0.0245 -0.1132
   22CHL1   H1A 1599   0.782   3.047  10.134  0.0786  1.4229  2.3202
   22CHL1   H1B 1600   0.820   2.874  10.133 -0.2128  0.1948 -0.7198
   22CHL1    C2 1601   0.872   2.973  10.324  0.2965 -0.5142 -0.4779
   22CHL1   H2A 1602   0.777   2.930  10.363  0.6903 -1.9520 -1.0520
   22CHL1   H2B 1603   0.879   3.077  10.361  2.5369 -0.3045 -1.3552
   22CHL1   C20 1604   1.008   3.062   9.372  0.3023 -0.4267 -0.6833
   22CHL1   H20 1605   1.086   3.142   9.371  0.8974 -0.9606  0.4793
   22CHL1   C21 1606   0.869   3.121   9.381  0.0756 -0.5493 -0.2778
   22CHL1  H21A 1607   0.845   3.170   9.285  2.2019  1.6893  0.2242
   22CHL1  H21B 1608   0.856   3.189   9.468  2.9161  0.9773 -0.9380
   22CHL1  H21C 1609   0.792   3.040   9.385 -0.3737 -0.1158 -0.0488
   22CHL1   C22 1610   1.031   2.989   9.238 -0.5390 -0.1172  0.3033
   22CHL1  H22A 1611   1.114   2.915   9.242  0.0317  0.5284  0.4591
   22CHL1  H22B 1612   0.931   2.943   9.221 -2.6696  4.0111  0.5618
   22CHL1   C23 1613   1.052   3.089   9.120 -0.3460 -0.0736 -0.7876
   22CHL1  H23A 1614   0.973   3.166   9.107 -0.5813 -0.1682  0.0269
   22CHL1  H23B 1615   1.148   3.132   9.155 -1.1828 -0.3580  2.1272
   22CHL1   C24 1616   1.081   3.031   8.982 -0.5697  0.1167 -0.4770
   22CHL1  H24A 1617   1.181   2.982   8.977 -0.7667 -0.1586 -3.1010
   22CHL1  H24B 1618   1.009   2.954   8.949 -1.0530 -1.2716  3.2952
   22CHL1   C25 1619   1.082   3.141   8.869  0.2262 -0.2358  0.5030
   22CHL1   H25 1620   1.141   3.229   8.900 -1.2227  1.4700 -1.3570
   22CHL1   C26 1621   1.161   3.087   8.747  0.2629 -0.0733 -0.5873
   22CHL1  H26A 1622   1.254   3.041   8.788  0.4708  0.6257 -0.2578
   22CHL1  H26B 1623   1.102   3.007   8.697 -1.5076  0.9266 -0.1527
   22CHL1  H26C 1624   1.186   3.153   8.661 -0.7904  0.1152 -0.7565
   22CHL1   C27 1625   0.938   3.177   8.820 -0.5179 -0.2073 -0.0941
   22CHL1  H27A 1626   0.892   3.085   8.779 -3.1105 -0.7322  3.4613
   22CHL1  H27B 1627   0.870   3.207   8.903 -0.2490 -1.3020  0.5395
   22CHL1  H27C 1628   0.940   3.251   8.738  1.0915  1.4909  1.3779
   23CHL1    C3 1629   5.539   4.338  10.254 -0.2542  0.0270  0.1638
   23CHL1    H3 1630   5.520   4.441  10.215  0.7712  0.3167  0.3808
   23CHL1    O3 1631   5.532   4.338  10.397 -0.1031  0.3135  0.1760
   23CHL1   H3' 1632   5.437   4.338  10.412 -0.0288  0.1705  0.6684
   23CHL1    C4 1633   5.445   4.234  10.196 -0.2875  0.4070  0.8209
   23CHL1   H4A 1634   5.468   4.131  10.231  0.5828 -0.3440 -1.7208
   23CHL1   H4B 1635   5.350   4.256  10.249 -0.5233 -0.0295  0.5893
   23CHL1    C5 1636   5.436   4.241  10.045  0.4015 -0.2463 -0.1176
   23CHL1    C6 1637   5.324   4.282   9.978 -0.2884  0.5330 -0.1909
   23CHL1    H6 1638   5.230   4.314  10.026 -1.1887 -0.8076 -0.9848
   23CHL1    C7 1639   5.311   4.262   9.831  0.0104  0.0523 -0.5781
   23CHL1   H7A 1640   5.221   4.203   9.803  1.3787 -2.7276  0.5025
   23CHL1   H7B 1641   5.306   4.360   9.779  1.2814 -1.1619 -3.1490
   23CHL1    C8 1642   5.429   4.179   9.767  0.0477 -0.0848  0.1297
   23CHL1    H8 1643   5.419   4.070   9.783 -1.1402  0.4051  3.5713
   23CHL1   C14 1644   5.420   4.201   9.617  0.0394 -0.8502  0.2360
   23CHL1   H14 1645   5.417   4.311   9.603 -2.3250 -0.8218  0.6637
   23CHL1   C15 1646   5.295   4.155   9.539 -0.3126 -0.2124  0.7353
   23CHL1  H15A 1647   5.286   4.044   9.545  0.6613 -0.3162  0.4316
   23CHL1  H15B 1648   5.204   4.205   9.577  0.1689  0.1578  1.4278
   23CHL1   C16 1649   5.335   4.187   9.389 -0.5862  0.1046  0.4251
   23CHL1  H16A 1650   5.310   4.097   9.328  3.4071 -0.2805 -0.9313
   23CHL1  H16B 1651   5.281   4.275   9.350  1.4861  1.3209  0.1700
   23CHL1   C17 1652   5.495   4.207   9.393  0.6563 -0.1621  0.6952
   23CHL1   H17 1653   5.504   4.318   9.393  0.8228 -0.1734  0.3249
   23CHL1   C13 1654   5.543   4.164   9.534  0.6119  0.5553  0.0231
   23CHL1   C18 1655   5.556   4.007   9.544 -0.1793  0.4591 -1.2222
   23CHL1  H18A 1656   5.482   3.959   9.476  0.6982  1.3290 -2.8537
   23CHL1  H18B 1657   5.653   3.971   9.504 -0.5320 -3.0953  0.6730
   23CHL1  H18C 1658   5.548   3.968   9.647  0.0181  0.7194 -1.1093
   23CHL1   C12 1659   5.667   4.227   9.597 -0.4242  0.1062 -0.1742
   23CHL1  H12A 1660   5.764   4.193   9.557 -0.0050 -0.7878  1.4905
   23CHL1  H12B 1661   5.651   4.337   9.588 -0.2666  0.2307  0.9692
   23CHL1   C11 1662   5.687   4.204   9.746  0.8348 -0.0265 -0.2422
   23CHL1  H11A 1663   5.717   4.097   9.758  0.6747  0.0831  1.4325
   23CHL1  H11B 1664   5.766   4.271   9.784  0.1470  0.7855 -0.2197
   23CHL1    C9 1665   5.558   4.238   9.826  0.1751  0.2009  0.4476
   23CHL1    H9 1666   5.554   4.349   9.820  3.0424  0.3410 -0.1726
   23CHL1   C10 1667   5.567   4.206   9.979 -0.5634  0.3555  0.1317
   23CHL1   C19 1668   5.619   4.054   9.987  0.5141 -0.6413  0.2901
   23CHL1  H19A 1669   5.726   4.051   9.958  1.1166  2.3709  1.7948
   23CHL1  H19B 1670   5.615   4.010  10.089  2.9182 -0.5489  0.4879
   23CHL1  H19C 1671   5.547   4.003   9.920  1.1500 -2.2299  0.7787
   23CHL1    C1 1672   5.682   4.291  10.052  0.4592 -0.3555  0.7969
   23CHL1   H1A 1673   5.780   4.257  10.012  0.3103 -0.1592  0.2494
   23CHL1   H1B 1674   5.665   4.397  10.022 -1.0266 -0.5342  0.9468
   23CHL1    C2 1675   5.678   4.304  10.199 -0.0714  0.5073 -0.6773
   23CHL1   H2A 1676   5.758   4.375  10.230 -0.8361  1.7525 -1.4503
   23CHL1   H2B 1677   5.701   4.207  10.248 -0.2431  0.9642  0.3213
   23CHL1   C20 1678   5.563   4.147   9.268  0.4604 -0.4335  0.2570
   23CHL1   H20 1679   5.531   4.042   9.254 -0.2087 -0.2339  0.2515
   23CHL1   C21 1680   5.715   4.148   9.275  0.3264 -0.0437 -0.2994
   23CHL1  H21A 1681   5.742   4.252   9.304 -1.1183  1.0378 -2.5463
   23CHL1  H21B 1682   5.765   4.135   9.177 -0.9052 -0.7152 -0.8577
   23CHL1  H21C 1683   5.765   4.076   9.344  1.0159  1.1636  0.5078
   23CHL1   C22 1684   5.515   4.238   9.152  0.1440 -0.3755  0.3537
   23CHL1  H22A 1685   5.404   4.243   9.156  0.0814 -1.4079  0.2445
   23CHL1  H22B 1686   5.552   4.341   9.167  0.0406 -0.3541  0.4663
   23CHL1   C23 1687   5.549   4.197   9.009  0.2356  0.6198  0.1738
   23CHL1  H23A 1688   5.653   4.225   8.981  0.7206 -3.3575 -2.8637
   23CHL1  H23B 1689   5.536   4.089   8.988 -1.8723  0.4849  1.8547
   23CHL1   C24 1690   5.449   4.264   8.915  0.8222 -0.6006 -0.8572
   23CHL1  H24A 1691   5.348   4.217   8.922  0.4688  0.0402 -1.5331
   23CHL1  H24B 1692   5.445   4.368   8.954  1.7760 -1.2881  1.1857
   23CHL1   C25 1693   5.496   4.276   8.770  0.0770 -0.0346  0.5019
   23CHL1   H25 1694   5.581   4.347   8.769  1.0266 -1.0922  1.8659
   23CHL1   C26 1695   5.545   4.129   8.721 -0.0920 -0.0549  1.0581
   23CHL1  H26A 1696   5.632   4.105   8.786  1.2617  2.2444  0.2082
   23CHL1  H26B 1697   5.465   4.053   8.728  0.1148 -0.5153 -0.9293
   23CHL1  H26C 1698   5.584   4.129   8.617  0.0114 -0.7122  1.0947
   23CHL1   C27 1699   5.381   4.323   8.674  0.6208 -0.2113 -0.1165
   23CHL1  H27A 1700   5.338   4.418   8.713  0.7776  0.1802 -0.8832
   23CHL1  H27B 1701   5.411   4.343   8.569 -3.7248 -1.9752 -1.9451
   23CHL1  H27C 1702   5.300   4.248   8.666  0.4860  0.0652 -1.5672
   24CHL1    C3 1703   0.686   5.743  10.040  0.6556  0.5418 -0.7692
   24CHL1    H3 1704   0.623   5.823   9.996  2.4216  2.4796  0.0229
   24CHL1    O3 1705   0.677   5.765  10.178  0.7537  0.6252  0.0602
   24CHL1   H3' 1706   0.648   5.677  10.204  1.7168  0.4430  0.5836
   24CHL1    C4 1707   0.621   5.605   9.999  0.4498 -0.0635  0.4821
   24CHL1   H4A 1708   0.667   5.518  10.049 -1.0972  0.1771  2.4378
   24CHL1   H4B 1709   0.519   5.603  10.044 -0.3365  1.9131 -1.0685
   24CHL1    C5 1710   0.617   5.597   9.849 -0.4424  0.0122  0.2965
   24CHL1    C6 1711   0.497   5.592   9.789 -0.4363  0.1750  0.1717
   24CHL1    H6 1712   0.411   5.572   9.855 -0.1390 -1.4695  0.1171
   24CHL1    C7 1713   0.471   5.582   9.643 -0.1033 -0.1294  0.2152
   24CHL1   H7A 1714   0.394   5.505   9.623  0.7596 -0.6412 -1.3260
   24CHL1   H7B 1715   0.436   5.677   9.598 -1.5456 -0.9154 -0.3671
   24CHL1    C8 1716   0.606   5.544   9.569 -0.2673 -0.7393 -0.6002
   24CHL1    H8 1717   0.612   5.435   9.589 -2.0826 -1.0870 -1.6858
   24CHL1   C14 1718   0.597   5.578   9.415 -0.4795 -0.1323 -0.7304
   24CHL1   H14 1719   0.605   5.688   9.403 -1.6238  0.1018  0.4593
   24CHL1   C15 1720   0.460   5.541   9.342 -0.2679  0.5710  0.3313
   24CHL1  H15A 1721   0.427   5.437   9.363 -0.8468  0.2974 -1.7238
   24CHL1  H15B 1722   0.371   5.605   9.363 -1.9900 -1.9134  1.0894
   24CHL1   C16 1723   0.506   5.538   9.193 -0.0313 -0.1363 -0.0774
   24CHL1  H16A 1724   0.458   5.447   9.150 -2.3159  0.0748  1.7618
   24CHL1  H16B 1725   0.458   5.624   9.142 -1.2300 -1.3980 -1.1592
   24CHL1   C17 1726   0.658   5.555   9.186 -0.2878  0.2366  0.1622
   24CHL1   H17 1727   0.674   5.664   9.170 -0.5625 -0.0662 -2.6860
   24CHL1   C13 1728   0.707   5.521   9.328 -0.8321  0.1126 -0.4854
   24CHL1   C18 1729   0.697   5.368   9.344  0.4215  0.4535  0.8565
   24CHL1  H18A 1730   0.682   5.339   9.450 -1.7756  1.1308  0.7738
   24CHL1  H18B 1731   0.627   5.311   9.279  1.6550  0.5159 -0.5729
   24CHL1  H18C 1732   0.797   5.328   9.317  0.3595  0.7023  0.2518
   24CHL1   C12 1733   0.842   5.573   9.380 -0.1828  0.1845  1.0284
   24CHL1  H12A 1734   0.927   5.521   9.330 -0.5187 -1.5628  2.2053
   24CHL1  H12B 1735   0.851   5.682   9.356 -2.5635  0.7234  2.2772
   24CHL1   C11 1736   0.863   5.565   9.534  0.3078  0.3130  1.1942
   24CHL1  H11A 1737   0.890   5.458   9.543  0.0109  0.0518 -0.7061
   24CHL1  H11B 1738   0.954   5.619   9.568  2.0919 -2.0851  0.4410
   24CHL1    C9 1739   0.733   5.616   9.622 -0.4280  0.2551 -0.6172
   24CHL1    H9 1740   0.717   5.725   9.609 -0.2340  0.3919  0.2347
   24CHL1   C10 1741   0.754   5.613   9.777 -0.0349  0.5155 -0.0209
   24CHL1   C19 1742   0.837   5.487   9.820  0.1472 -0.0818 -0.5173
   24CHL1  H19A 1743   0.776   5.402   9.781 -0.5815 -0.6279  1.6731
   24CHL1  H19B 1744   0.940   5.483   9.778 -0.3509 -3.3624 -1.6968
   24CHL1  H19C 1745   0.850   5.468   9.928 -0.2294 -3.1276 -0.9070
   24CHL1    C1 1746   0.832   5.741   9.828 -0.0402 -0.1708  0.2764
   24CHL1   H1A 1747   0.931   5.751   9.780 -1.2299 -0.3253 -2.3569
   24CHL1   H1B 1748   0.779   5.828   9.784  0.7524  0.1491 -0.0568
   24CHL1    C2 1749   0.830   5.758   9.987 -0.2065  0.0842 -0.1912
   24CHL1   H2A 1750   0.880   5.855  10.008  2.2785 -0.8901 -1.1846
   24CHL1   H2B 1751   0.891   5.678  10.034 -1.4400 -1.5549 -1.2326
   24CHL1   C20 1752   0.722   5.485   9.063 -0.4417  0.3266 -0.1475
   24CHL1   H20 1753   0.705   5.378   9.091 -2.0490  0.9678  1.6023
   24CHL1   C21 1754   0.868   5.502   9.056  0.0702 -0.3223 -0.3169
   24CHL1  H21A 1755   0.904   5.463   8.959 -0.6115  0.5206 -0.9302
   24CHL1  H21B 1756   0.934   5.455   9.132 -0.0282 -0.8662 -0.5669
   24CHL1  H21C 1757   0.893   5.610   9.062 -1.1061 -0.0981  1.1716
   24CHL1   C22 1758   0.669   5.513   8.922  0.1167  0.2264  0.2464
   24CHL1  H22A 1759   0.720   5.445   8.851 -1.7261  2.0724 -3.0866
   24CHL1  H22B 1760   0.561   5.489   8.916  0.2405 -0.4185  0.5703
   24CHL1   C23 1761   0.696   5.658   8.877 -0.1583 -0.4673 -0.5147
   24CHL1  H23A 1762   0.649   5.746   8.924  0.1486 -0.0764 -0.9285
   24CHL1  H23B 1763   0.807   5.670   8.882  0.0702 -2.6047  1.9185
   24CHL1   C24 1764   0.652   5.659   8.731  0.0164  0.0306  0.1578
   24CHL1  H24A 1765   0.668   5.765   8.701  0.5026 -0.2481 -0.6087
   24CHL1  H24B 1766   0.720   5.600   8.666  0.6525  1.6279 -0.6893
   24CHL1   C25 1767   0.505   5.619   8.702 -0.3637  1.0161 -0.1428
   24CHL1   H25 1768   0.498   5.509   8.719 -0.2134  0.8600 -1.0655
   24CHL1   C26 1769   0.405   5.688   8.803  0.2792 -0.5415 -0.4169
   24CHL1  H26A 1770   0.424   5.649   8.905 -0.0295  2.6288  0.9630
   24CHL1  H26B 1771   0.413   5.798   8.792  1.6197 -0.5791 -0.0391
   24CHL1  H26C 1772   0.297   5.667   8.789 -0.2002  0.5424  1.3690
   24CHL1   C27 1773   0.470   5.643   8.553 -0.3463 -0.1683 -0.1157
   24CHL1  H27A 1774   0.387   5.584   8.509 -1.9257  1.4491  0.5810
   24CHL1  H27B 1775   0.438   5.748   8.539 -2.2288 -0.7192 -0.1462
   24CHL1  H27C 1776   0.559   5.625   8.489  0.2604  0.7068  0.4650
   25CHL1    C3 1777   2.220   5.838  10.348  0.2178 -0.1385 -0.7441
   25CHL1    H3 1778   2.300   5.914  10.356 -0.8343  1.0590 -1.2505
   25CHL1    O3 1779   2.198   5.791  10.477 -0.0099  0.1872 -0.6986
   25CHL1   H3' 1780   2.113   5.827  10.503  0.6430 -0.1545  2.2522
   25CHL1    C4 1781   2.098   5.915  10.287  0.4843  0.3529  0.0029
   25CHL1   H4A 1782   2.008   5.850  10.295 -0.7795  2.2528  2.3880
   25CHL1   H4B 1783   2.076   6.005  10.348 -0.1983  0.7982 -0.8761
   25CHL1    C5 1784   2.121   5.965  10.145 -0.4910  0.4161 -0.1566
   25CHL1    C6 1785   2.103   6.092  10.115 -0.3406  0.0234  0.4319
   25CHL1    H6 1786   2.055   6.163  10.184 -0.2732  1.9743 -1.4203
   25CHL1    C7 1787   2.131   6.146   9.979  0.2196 -0.3930  0.3234
   25CHL1   H7A 1788   2.050   6.219   9.955  0.0598 -0.7977 -0.4002
   25CHL1   H7B 1789   2.230   6.196   9.985  1.6459 -3.1231  1.5006
   25CHL1    C8 1790   2.138   6.032   9.869  0.3254  0.5528  0.4872
   25CHL1    H8 1791   2.034   5.998   9.848  0.3065  2.1224 -2.5728
   25CHL1   C14 1792   2.203   6.086   9.737  0.1519  0.6010  0.1192
   25CHL1   H14 1793   2.302   6.128   9.763 -0.7726  3.7594 -1.0753
   25CHL1   C15 1794   2.138   6.205   9.664 -0.5561 -0.5141  0.6346
   25CHL1  H15A 1795   2.028   6.190   9.668 -0.5497 -1.5579 -1.5066
   25CHL1  H15B 1796   2.167   6.300   9.714 -1.4704 -0.0672  0.3369
   25CHL1   C16 1797   2.201   6.199   9.522 -0.3957  0.5434  0.0973
   25CHL1  H16A 1798   2.109   6.203   9.461 -0.6558  1.0528  0.5192
   25CHL1  H16B 1799   2.269   6.286   9.504  2.6692 -1.0485  2.8598
   25CHL1   C17 1800   2.277   6.065   9.509 -0.2781  0.3871 -0.0139
   25CHL1   H17 1801   2.383   6.086   9.534 -0.7360  1.6495  1.0090
   25CHL1   C13 1802   2.220   5.978   9.630  0.0164  0.1533 -0.0680
   25CHL1   C18 1803   2.076   5.918   9.593  0.1439 -0.4169 -0.3366
   25CHL1  H18A 1804   2.012   6.000   9.554  0.7105  0.2442  0.0962
   25CHL1  H18B 1805   2.093   5.840   9.516 -0.7324  0.9749 -2.0154
   25CHL1  H18C 1806   2.034   5.873   9.686  0.5640  0.4447  0.2916
   25CHL1   C12 1807   2.321   5.874   9.693 -0.0239  0.0534  0.3719
   25CHL1  H12A 1808   2.334   5.795   9.616 -2.2755 -0.4753  0.4552
   25CHL1  H12B 1809   2.423   5.916   9.709 -0.2316  1.0471 -0.7990
   25CHL1   C11 1810   2.262   5.816   9.823  0.2904 -0.1087 -0.0088
   25CHL1  H11A 1811   2.170   5.758   9.800 -1.2455  2.0204  0.3609
   25CHL1  H11B 1812   2.335   5.742   9.860 -0.6394 -0.8131  0.4592
   25CHL1    C9 1813   2.227   5.924   9.930 -0.5721  0.3540 -0.4065
   25CHL1    H9 1814   2.323   5.978   9.946 -0.5614  1.2961 -3.0335
   25CHL1   C10 1815   2.184   5.857  10.056  0.2373 -0.4689 -0.6507
   25CHL1   C19 1816   2.084   5.753  10.034 -0.1283  0.3361  0.2939
   25CHL1  H19A 1817   2.131   5.664   9.987 -2.1268 -1.6808  1.8461
   25CHL1  H19B 1818   2.049   5.714  10.132  0.0433 -0.3028  0.1092
   25CHL1  H19C 1819   2.005   5.793   9.966 -0.1660 -0.0100  0.1297
   25CHL1    C1 1820   2.312   5.794  10.128  0.5976 -0.6492 -0.3695
   25CHL1   H1A 1821   2.351   5.710  10.066 -0.4208 -1.8089  0.5014
   25CHL1   H1B 1822   2.387   5.872  10.153  0.7343 -0.8144 -0.2573
   25CHL1    C2 1823   2.275   5.734  10.259 -0.2160 -0.2038 -0.3682
   25CHL1   H2A 1824   2.371   5.700  10.304 -1.7696 -0.7818  2.8217
   25CHL1   H2B 1825   2.209   5.646  10.252 -0.0987 -0.3526  0.2577
   25CHL1   C20 1826   2.278   5.997   9.371  0.6840 -0.1038  0.0690
   25CHL1   H20 1827   2.191   5.928   9.367  2.1209 -2.0429  0.2489
   25CHL1   C21 1828   2.401   5.908   9.345 -0.4670  0.4088 -0.4911
   25CHL1  H21A 1829   2.497   5.965   9.347  0.2429 -0.6764  2.9995
   25CHL1  H21B 1830   2.405   5.845   9.253  1.2333  0.5632 -0.5595
   25CHL1  H21C 1831   2.406   5.838   9.431  0.1371  0.3686 -0.5543
   25CHL1   C22 1832   2.263   6.094   9.252  0.0668 -0.5752  0.2866
   25CHL1  H22A 1833   2.252   6.030   9.162  0.8566  0.7281 -0.7804
   25CHL1  H22B 1834   2.172   6.158   9.253  0.4192 -0.0538 -0.2726
   25CHL1   C23 1835   2.396   6.176   9.229  0.1541  0.3374  0.0043
   25CHL1  H23A 1836   2.439   6.214   9.324  0.7336  0.3744 -0.2665
   25CHL1  H23B 1837   2.467   6.100   9.191  1.1016  0.3714  1.6097
   25CHL1   C24 1838   2.389   6.291   9.125 -0.2758  0.2733 -0.0707
   25CHL1  H24A 1839   2.318   6.369   9.159 -0.5906  0.3360 -0.8524
   25CHL1  H24B 1840   2.488   6.340   9.129 -1.1917  2.2703 -0.7220
   25CHL1   C25 1841   2.341   6.254   8.989  0.2800 -0.2288  0.0640
   25CHL1   H25 1842   2.243   6.202   9.001 -0.0535 -0.0836 -1.6909
   25CHL1   C26 1843   2.305   6.388   8.919 -1.1363  0.3201 -0.5841
   25CHL1  H26A 1844   2.245   6.372   8.826 -1.1992 -0.1142 -0.4698
   25CHL1  H26B 1845   2.241   6.455   8.979 -1.8070  0.3046 -1.2670
   25CHL1  H26C 1846   2.398   6.440   8.887  0.8507 -3.1804 -1.0031
   25CHL1   C27 1847   2.425   6.160   8.907  0.7610 -0.0069 -0.5645
   25CHL1  H27A 1848   2.462   6.071   8.963 -2.5843 -0.4553  1.1859
   25CHL1  H27B 1849   2.373   6.138   8.812  0.8818  0.8557 -0.8348
   25CHL1  H27C 1850   2.515   6.212   8.868  0.7190 -0.6167 -1.4906
   26CHL1    C3 1851   3.285   1.778  10.260 -0.6499  0.5520 -0.6229
   26CHL1    H3 1852   3.299   1.884  10.292  0.5016  0.0983  0.4446
   26CHL1    O3 1853   3.226   1.709  10.375 -0.5540  0.0028 -0.1288
   26CHL1   H3' 1854   3.224   1.618  10.345 -1.3072  0.2853 -0.9735
   26CHL1    C4 1855   3.184   1.778  10.148 -0.1676 -0.2292 -0.2039
   26CHL1   H4A 1856   3.129   1.683  10.129 -3.4393  1.7483 -1.4967
   26CHL1   H4B 1857   3.097   1.835  10.188  0.4210  0.4322  0.1709
   26CHL1    C5 1858   3.236   1.836  10.023  0.6226 -0.4466 -0.3332
   26CHL1    C6 1859   3.171   1.944   9.968  0.8501 -0.2741  0.0281
   26CHL1    H6 1860   3.081   1.983  10.018  0.8546 -0.7871  0.4434
   26CHL1    C7 1861   3.213   2.008   9.838 -0.3156 -0.1625 -0.7173
   26CHL1   H7A 1862   3.128   2.031   9.771 -2.4457  1.3132  2.2725
   26CHL1   H7B 1863   3.252   2.106   9.873  0.2320 -0.6608  0.1188
   26CHL1    C8 1864   3.324   1.934   9.761 -0.3371 -0.1637 -0.1977
   26CHL1    H8 1865   3.286   1.845   9.707  1.8686 -1.2402 -0.1123
   26CHL1   C14 1866   3.398   2.030   9.668  0.0073  0.3456  0.8126
   26CHL1   H14 1867   3.447   2.107   9.731  1.7409 -0.4567  0.5075
   26CHL1   C15 1868   3.318   2.109   9.560 -0.2087  0.3768  0.6078
   26CHL1  H15A 1869   3.245   2.033   9.524  0.3418  0.6717 -1.2658
   26CHL1  H15B 1870   3.257   2.189   9.606 -1.6167  0.7634 -1.7427
   26CHL1   C16 1871   3.417   2.152   9.451  0.1026  0.5818  0.0391
   26CHL1  H16A 1872   3.378   2.115   9.353  1.3489 -0.9002  0.0650
   26CHL1  H16B 1873   3.425   2.263   9.448  1.3831  0.4879 -1.5783
   26CHL1   C17 1874   3.552   2.078   9.480 -0.4149  0.8097  0.2206
   26CHL1   H17 1875   3.608   2.148   9.546 -0.1780 -1.1256  2.1933
   26CHL1   C13 1876   3.509   1.963   9.587 -0.0102  0.4183 -0.4617
   26CHL1   C18 1877   3.454   1.850   9.496  0.0432 -0.1273 -0.1584
   26CHL1  H18A 1878   3.534   1.800   9.438 -0.7327 -0.4196 -1.0128
   26CHL1  H18B 1879   3.392   1.772   9.546  1.4377 -1.9249 -1.0921
   26CHL1  H18C 1880   3.403   1.907   9.415 -1.1623  1.2033  1.4636
   26CHL1   C12 1881   3.623   1.921   9.682  0.5378 -0.0175  0.6854
   26CHL1  H12A 1882   3.705   1.870   9.628  0.3933  1.3819 -0.9395
   26CHL1  H12B 1883   3.664   2.004   9.744 -1.7654  0.7176  1.3548
   26CHL1   C11 1884   3.552   1.820   9.775  0.0863 -0.2568 -0.0019
   26CHL1  H11A 1885   3.520   1.739   9.707 -1.1426  0.3149 -0.1375
   26CHL1  H11B 1886   3.618   1.787   9.858  0.9744  0.2266 -0.4979
   26CHL1    C9 1887   3.432   1.882   9.857 -0.0383  0.5759  0.0372
   26CHL1    H9 1888   3.474   1.966   9.917 -3.1115  1.7136  0.8034
   26CHL1   C10 1889   3.371   1.789   9.969  0.0886  0.0847  0.1436
   26CHL1   C19 1890   3.342   1.649   9.911 -0.1922  0.4134 -0.4342
   26CHL1  H19A 1891   3.280   1.659   9.819 -2.3874  0.2315  0.9472
   26CHL1  H19B 1892   3.434   1.592   9.885  1.8889  1.9982  2.7672
   26CHL1  H19C 1893   3.299   1.585   9.990 -0.8241  0.3236 -0.8447
   26CHL1    C1 1894   3.472   1.778  10.089  0.5674 -0.0662 -0.3269
   26CHL1   H1A 1895   3.559   1.718  10.055  0.7165 -0.3169  0.4552
   26CHL1   H1B 1896   3.510   1.880  10.110  3.0796 -0.9595 -0.1679
   26CHL1    C2 1897   3.420   1.717  10.219  0.4419  0.3503 -1.3272
   26CHL1   H2A 1898   3.492   1.730  10.303 -0.0360  1.5968 -1.0821
   26CHL1   H2B 1899   3.414   1.607  10.212 -0.6643  0.3155 -0.2822
   26CHL1   C20 1900   3.626   2.036   9.347 -0.5283  0.2693  0.8609
   26CHL1   H20 1901   3.571   1.958   9.290  3.1347 -1.0478 -1.1658
   26CHL1   C21 1902   3.757   1.964   9.387  0.1001 -0.3681  0.2261
   26CHL1  H21A 1903   3.745   1.858   9.416 -0.5912 -0.4170 -0.2295
   26CHL1  H21B 1904   3.824   2.028   9.450  0.4840 -3.2932  3.0317
   26CHL1  H21C 1905   3.818   1.956   9.295 -0.0844  1.1613 -0.0675
   26CHL1   C22 1906   3.662   2.155   9.255 -0.3472 -0.7211 -0.8536
   26CHL1  H22A 1907   3.597   2.245   9.251  0.8742  0.4282  2.2166
   26CHL1  H22B 1908   3.753   2.199   9.300 -0.6535 -0.5459 -0.4028
   26CHL1   C23 1909   3.696   2.113   9.113  0.7539  0.3809  0.5520
   26CHL1  H23A 1910   3.778   2.040   9.098  1.5160  0.4738  3.6646
   26CHL1  H23B 1911   3.608   2.064   9.066  0.4287  0.5355  0.9949
   26CHL1   C24 1912   3.729   2.232   9.031 -0.1185 -0.5579  0.3581
   26CHL1  H24A 1913   3.661   2.315   9.059  0.1126 -0.6875  1.3469
   26CHL1  H24B 1914   3.832   2.270   9.051  0.2304 -0.0815 -2.0005
   26CHL1   C25 1915   3.708   2.208   8.875 -0.1652  0.0573  0.0382
   26CHL1   H25 1916   3.598   2.198   8.866 -0.2669  1.4776 -0.3848
   26CHL1   C26 1917   3.748   2.325   8.793 -0.6634 -0.9378  0.4341
   26CHL1  H26A 1918   3.711   2.414   8.847  0.1828  0.2724 -0.8987
   26CHL1  H26B 1919   3.858   2.339   8.787 -0.9587  2.4927  0.9950
   26CHL1  H26C 1920   3.706   2.323   8.690  1.3480 -0.6601 -0.4453
   26CHL1   C27 1921   3.774   2.076   8.833  0.2964 -0.1676  0.3013
   26CHL1  H27A 1922   3.722   1.993   8.886 -0.9316  0.6370  0.3834
   26CHL1  H27B 1923   3.770   2.058   8.724  5.3744 -0.2912 -0.1148
   26CHL1  H27C 1924   3.881   2.080   8.865  0.6016 -0.4462 -0.6628
   27CHL1    C3 1925   1.807   0.480  10.503 -0.1760 -0.0112 -0.4246
   27CHL1    H3 1926   1.895   0.419  10.474  0.3016  1.0009 -1.1892
   27CHL1    O3 1927   1.804   0.478  10.645  0.1953  0.4642  0.4605
   27CHL1   H3' 1928   1.715   0.485  10.681  0.8515 -0.8679  2.5100
   27CHL1    C4 1929   1.833   0.629  10.463  0.5327 -0.0722 -0.5036
   27CHL1   H4A 1930   1.743   0.680  10.504 -1.0059 -0.3663 -3.3190
   27CHL1   H4B 1931   1.925   0.678  10.501 -0.6366  2.3441 -0.6008
   27CHL1    C5 1932   1.826   0.639  10.314 -0.7933 -0.3079 -0.0002
   27CHL1    C6 1933   1.929   0.693  10.242 -0.6030  0.2245 -0.3050
   27CHL1    H6 1934   2.020   0.730  10.293 -0.8961  0.1150  0.3060
   27CHL1    C7 1935   1.920   0.726  10.091 -0.1035 -0.1198 -0.5320
   27CHL1   H7A 1936   1.953   0.832  10.085 -5.1196  1.9503  2.1903
   27CHL1   H7B 1937   1.999   0.668  10.038 -0.1079 -0.9808  0.3728
   27CHL1    C8 1938   1.777   0.708  10.029  0.0049  0.3886  0.0082
   27CHL1    H8 1939   1.716   0.796  10.057 -0.3407  0.1707 -0.0613
   27CHL1   C14 1940   1.783   0.712   9.874 -0.4366 -0.3215  0.6340
   27CHL1   H14 1941   1.857   0.638   9.837  0.3114  1.0028 -0.6295
   27CHL1   C15 1942   1.845   0.840   9.812  0.6950  0.4469 -0.2386
   27CHL1  H15A 1943   1.810   0.929   9.870  2.1592 -0.2538  1.8635
   27CHL1  H15B 1944   1.955   0.829   9.825  0.5781 -1.4364 -0.5209
   27CHL1   C16 1945   1.804   0.831   9.664 -0.1817  0.8344  0.3967
   27CHL1  H16A 1946   1.763   0.928   9.628  0.6208  0.8945 -0.4139
   27CHL1  H16B 1947   1.892   0.800   9.603  1.3845  3.0775  1.4104
   27CHL1   C17 1948   1.693   0.717   9.656 -0.3135 -0.0259 -0.1432
   27CHL1   H17 1949   1.748   0.627   9.623  0.4419  0.7519 -1.0506
   27CHL1   C13 1950   1.646   0.707   9.807 -0.7573  0.0286  0.3007
   27CHL1   C18 1951   1.547   0.817   9.841 -0.3641 -0.3651  0.0054
   27CHL1  H18A 1952   1.455   0.802   9.781 -0.1099 -1.8245 -0.0435
   27CHL1  H18B 1953   1.503   0.811   9.943 -1.2009  2.5350 -0.0954
   27CHL1  H18C 1954   1.580   0.916   9.802  2.3482 -1.0570  0.3508
   27CHL1   C12 1955   1.593   0.572   9.844 -0.5345  0.1575 -0.8869
   27CHL1  H12A 1956   1.491   0.556   9.802 -0.8990 -0.2273  0.1028
   27CHL1  H12B 1957   1.661   0.493   9.806 -1.2345 -0.3280 -1.1437
   27CHL1   C11 1958   1.579   0.558   9.999 -0.5360 -0.4352  1.0564
   27CHL1  H11A 1959   1.492   0.618  10.034 -1.2010 -0.0584 -1.0983
   27CHL1  H11B 1960   1.550   0.455  10.028 -3.1284  0.1391  0.8113
   27CHL1    C9 1961   1.705   0.585  10.084 -0.4177 -0.4144 -0.5561
   27CHL1    H9 1962   1.773   0.501  10.060 -1.4429 -1.2534 -0.5972
   27CHL1   C10 1963   1.704   0.586  10.242  0.5496 -0.0974 -0.2845
   27CHL1   C19 1964   1.588   0.679  10.278 -0.2230 -0.2651  0.1227
   27CHL1  H19A 1965   1.502   0.609  10.271  0.5120 -1.1737  0.0293
   27CHL1  H19B 1966   1.593   0.726  10.379 -2.0951 -0.1435  0.1991
   27CHL1  H19C 1967   1.577   0.757  10.199  0.0064 -1.1223 -0.7767
   27CHL1    C1 1968   1.686   0.439  10.297  0.2078 -0.0215  0.4885
   27CHL1   H1A 1969   1.592   0.399  10.255  0.1814  2.7480 -2.4765
   27CHL1   H1B 1970   1.768   0.375  10.258 -0.4395 -1.3485  1.2305
   27CHL1    C2 1971   1.676   0.421  10.447 -0.5655 -0.5195 -0.5511
   27CHL1   H2A 1972   1.668   0.315  10.478 -0.9177 -0.5420 -0.7151
   27CHL1   H2B 1973   1.583   0.468  10.483 -0.2396 -0.2821 -0.0126
   27CHL1   C20 1974   1.587   0.729   9.540 -1.0253 -0.4378 -0.4518
   27CHL1   H20 1975   1.531   0.824   9.555  0.6177  0.3303  1.2691
   27CHL1   C21 1976   1.495   0.609   9.547 -0.2202 -0.4190 -0.5470
   27CHL1  H21A 1977   1.423   0.608   9.463  0.2681  0.2870 -0.9883
   27CHL1  H21B 1978   1.427   0.611   9.635  1.7517  1.2396  1.0433
   27CHL1  H21C 1979   1.550   0.513   9.559  0.1660  0.1793  4.1395
   27CHL1   C22 1980   1.654   0.736   9.405  0.3776 -0.0465  0.7476
   27CHL1  H22A 1981   1.730   0.816   9.399 -0.3831  0.8657  2.4687
   27CHL1  H22B 1982   1.713   0.642   9.395  0.8318  0.4033 -1.4468
   27CHL1   C23 1983   1.552   0.758   9.282 -0.3213  0.0879  0.6178
   27CHL1  H23A 1984   1.490   0.667   9.267  0.2686 -0.4647  1.4007
   27CHL1  H23B 1985   1.504   0.858   9.290  0.2678  0.4460 -0.1216
   27CHL1   C24 1986   1.631   0.759   9.138 -0.7386 -0.9968  0.1740
   27CHL1  H24A 1987   1.694   0.850   9.146  1.0227 -2.0362 -1.2701
   27CHL1  H24B 1988   1.693   0.668   9.147  1.2707  0.5051  2.8919
   27CHL1   C25 1989   1.554   0.754   9.004  0.0991 -0.3283 -0.6887
   27CHL1   H25 1990   1.504   0.656   8.995  3.2323 -2.0015 -1.4925
   27CHL1   C26 1991   1.474   0.875   8.972 -0.5799 -0.4672 -0.9394
   27CHL1  H26A 1992   1.537   0.967   8.981 -1.6361  0.5113 -2.8438
   27CHL1  H26B 1993   1.429   0.878   8.870 -1.6470 -1.4882 -0.5135
   27CHL1  H26C 1994   1.398   0.885   9.052  0.6260 -2.1727  0.4831
   27CHL1   C27 1995   1.658   0.741   8.892  0.2236  0.1370 -0.1490
   27CHL1  H27A 1996   1.738   0.817   8.887  0.7656 -0.3788  0.4968
   27CHL1  H27B 1997   1.716   0.646   8.895  1.7128  1.0143 -0.1694
   27CHL1  H27C 1998   1.605   0.736   8.794  0.0742  2.5929 -0.2566
   28CHL1    C3 1999   1.334   5.030  10.274  0.0458  0.1300  0.4303
   28CHL1    H3 2000   1.441   5.016  10.248 -0.0360  1.3763 -0.6860
   28CHL1    O3 2001   1.306   4.995  10.411  0.4351 -0.0557 -0.1895
   28CHL1   H3' 2002   1.224   5.042  10.429  0.1580 -0.6221  0.0326
   28CHL1    C4 2003   1.295   5.177  10.248 -0.5525 -0.5255  0.6816
   28CHL1   H4A 2004   1.193   5.182  10.291 -0.9304 -0.7893 -0.1761
   28CHL1   H4B 2005   1.367   5.240  10.305 -1.8219  2.0239 -0.3993
   28CHL1    C5 2006   1.290   5.221  10.097 -0.5146  0.3140  0.0563
   28CHL1    C6 2007   1.348   5.337  10.056  0.1651 -0.3135 -0.2871
   28CHL1    H6 2008   1.400   5.403  10.127 -0.1395  0.3036 -0.6331
   28CHL1    C7 2009   1.359   5.378   9.913  0.0691 -0.3976 -0.5335
   28CHL1   H7A 2010   1.345   5.485   9.887 -0.4355 -0.4428 -0.4738
   28CHL1   H7B 2011   1.465   5.350   9.899 -0.2365 -0.7604 -2.3160
   28CHL1    C8 2012   1.278   5.290   9.814 -0.0428 -0.4589  0.5185
   28CHL1    H8 2013   1.171   5.312   9.834  0.1965 -0.1443  1.4995
   28CHL1   C14 2014   1.329   5.314   9.673 -0.4977  0.1703  0.3957
   28CHL1   H14 2015   1.436   5.284   9.661 -0.8721 -0.7173 -0.8746
   28CHL1   C15 2016   1.333   5.461   9.612 -0.1333 -0.3459  0.1621
   28CHL1  H15A 2017   1.238   5.508   9.646  0.3169 -0.7326  2.0941
   28CHL1  H15B 2018   1.414   5.521   9.658  0.5982 -0.3209 -1.1352
   28CHL1   C16 2019   1.346   5.447   9.462 -0.4121  0.5863  0.4598
   28CHL1  H16A 2020   1.268   5.510   9.415 -1.4342 -0.1626  1.0984
   28CHL1  H16B 2021   1.439   5.487   9.417 -0.3634  0.5370  0.5184
   28CHL1   C17 2022   1.314   5.299   9.426 -0.0058  0.0244 -0.6689
   28CHL1   H17 2023   1.414   5.253   9.410  1.1972  0.8808  3.3669
   28CHL1   C13 2024   1.257   5.237   9.561 -0.4670 -0.4489  0.6097
   28CHL1   C18 2025   1.105   5.270   9.568  0.1561 -1.0324  1.1863
   28CHL1  H18A 2026   1.089   5.380   9.568 -0.4806 -1.0446 -2.1505
   28CHL1  H18B 2027   1.047   5.227   9.484  1.2768 -2.0651  0.9108
   28CHL1  H18C 2028   1.057   5.237   9.663  0.5320 -1.4823  1.2228
   28CHL1   C12 2029   1.275   5.087   9.590  0.2807 -0.0757  0.0212
   28CHL1  H12A 2030   1.209   5.024   9.527  0.6774 -1.6966  1.1739
   28CHL1  H12B 2031   1.383   5.058   9.592  0.8302  1.8179  1.7400
   28CHL1   C11 2032   1.237   5.050   9.736 -0.0153  0.5283 -0.4805
   28CHL1  H11A 2033   1.125   5.050   9.736 -0.0570  2.1267  1.3041
   28CHL1  H11B 2034   1.273   4.948   9.759 -0.1972  0.7521  0.8685
   28CHL1    C9 2035   1.288   5.143   9.846 -0.1226  0.0094  0.7876
   28CHL1    H9 2036   1.398   5.127   9.849  0.0569  1.2058  0.9207
   28CHL1   C10 2037   1.238   5.116   9.993 -0.5028 -1.1994  1.0140
   28CHL1   C19 2038   1.075   5.119   9.993  0.4982 -0.8776 -0.3541
   28CHL1  H19A 2039   1.032   5.083  10.089 -2.0738  0.9383 -0.6927
   28CHL1  H19B 2040   1.047   5.226   9.979  2.7128 -0.2125 -0.0569
   28CHL1  H19C 2041   1.025   5.058   9.915 -0.5088  2.1661 -2.3091
   28CHL1    C1 2042   1.284   4.975  10.033  0.3011  0.2398 -0.0436
   28CHL1   H1A 2043   1.232   4.904   9.966  0.3641 -0.1959  0.3621
   28CHL1   H1B 2044   1.394   4.969  10.019  0.2237 -1.7711 -0.0399
   28CHL1    C2 2045   1.247   4.940  10.178 -0.4378  0.1238 -0.4473
   28CHL1   H2A 2046   1.262   4.831  10.195  1.2684  0.3087 -0.5931
   28CHL1   H2B 2047   1.141   4.963  10.202 -0.6224  0.3154 -1.4157
   28CHL1   C20 2048   1.234   5.288   9.296 -0.8266 -0.5335 -0.6093
   28CHL1   H20 2049   1.136   5.341   9.302 -0.4891  0.1316 -0.8720
   28CHL1   C21 2050   1.210   5.139   9.264 -0.0505  0.7914 -0.3630
   28CHL1  H21A 2051   1.181   5.120   9.159 -0.7658 -1.1317  0.1309
   28CHL1  H21B 2052   1.140   5.088   9.334  0.8387  0.2697  0.1792
   28CHL1  H21C 2053   1.309   5.088   9.271  0.7541  2.1601 -1.2417
   28CHL1   C22 2054   1.320   5.353   9.189  0.3572  0.1130  0.3032
   28CHL1  H22A 2055   1.270   5.351   9.090  3.6821 -0.2728 -1.4926
   28CHL1  H22B 2056   1.326   5.464   9.195  3.4537  0.0796 -0.5890
   28CHL1   C23 2057   1.460   5.300   9.164  0.3792  0.9609 -0.6501
   28CHL1  H23A 2058   1.529   5.313   9.250  0.3253 -0.4562 -0.3589
   28CHL1  H23B 2059   1.451   5.190   9.149 -0.4034  0.6610  1.6971
   28CHL1   C24 2060   1.521   5.370   9.036 -0.1086 -0.0063 -0.7494
   28CHL1  H24A 2061   1.459   5.342   8.949 -1.8260 -1.7990  0.9485
   28CHL1  H24B 2062   1.511   5.480   9.051  1.6223  0.1710 -0.6600
   28CHL1   C25 2063   1.673   5.329   9.026  0.1724 -0.4077  0.2546
   28CHL1   H25 2064   1.706   5.321   9.132 -1.5922 -0.2120  0.8499
   28CHL1   C26 2065   1.693   5.197   8.956  0.3265 -0.1130  1.0172
   28CHL1  H26A 2066   1.610   5.124   8.967  0.3957 -0.1818  1.0791
   28CHL1  H26B 2067   1.704   5.218   8.847 -1.0718  0.1505  0.9079
   28CHL1  H26C 2068   1.792   5.155   8.983  0.1925  0.0597  1.7978
   28CHL1   C27 2069   1.754   5.432   8.955  0.0422  0.5088 -0.3723
   28CHL1  H27A 2070   1.737   5.525   9.013  1.7512 -0.9243  2.7102
   28CHL1  H27B 2071   1.863   5.413   8.949  0.3681  0.4709  3.2233
   28CHL1  H27C 2072   1.722   5.451   8.850 -0.3722  0.5312 -0.2420
   29CHL1    C3 2073   6.553   0.931   6.880 -0.5520 -0.0309  0.2847
   29CHL1    H3 2074   6.594   1.033   6.894 -1.1177 -0.1255  3.3584
   29CHL1    O3 2075   6.578   0.916   6.741  0.8335 -1.0377 -0.0994
   29CHL1   H3' 2076   6.508   0.856   6.714 -0.2762  0.3045 -0.3200
   29CHL1    C4 2077   6.615   0.822   6.965 -0.0889 -0.1850  0.7013
   29CHL1   H4A 2078   6.576   0.724   6.930 -0.5791  0.5577 -0.9570
   29CHL1   H4B 2079   6.720   0.815   6.929 -0.0295 -0.4457  0.9227
   29CHL1    C5 2080   6.596   0.835   7.111  0.8215  0.7873 -0.3341
   29CHL1    C6 2081   6.706   0.842   7.195  0.2559 -0.1278 -0.0596
   29CHL1    H6 2082   6.809   0.826   7.158 -0.0644  0.7595 -1.4209
   29CHL1    C7 2083   6.695   0.870   7.343 -0.1369 -0.0531 -0.9002
   29CHL1   H7A 2084   6.774   0.813   7.397  0.7821  1.7169 -0.2977
   29CHL1   H7B 2085   6.728   0.971   7.376 -1.1505  0.9619 -2.8143
   29CHL1    C8 2086   6.547   0.847   7.390  0.9117 -0.3341 -0.1378
   29CHL1    H8 2087   6.523   0.739   7.403 -2.0811  0.2519 -0.0778
   29CHL1   C14 2088   6.529   0.896   7.529 -0.0790 -0.1046  0.1198
   29CHL1   H14 2089   6.546   1.006   7.521 -4.8954  0.7744 -1.1277
   29CHL1   C15 2090   6.627   0.843   7.645 -0.2352  0.8518  0.3849
   29CHL1  H15A 2091   6.631   0.732   7.642 -1.8056  0.7829 -0.3634
   29CHL1  H15B 2092   6.732   0.878   7.642  0.9697 -2.4730 -0.9681
   29CHL1   C16 2093   6.555   0.898   7.776 -0.3057 -0.2541  0.1741
   29CHL1  H16A 2094   6.556   0.815   7.849  0.8080 -0.2406  0.1934
   29CHL1  H16B 2095   6.612   0.978   7.828 -2.2074 -0.3664  2.5678
   29CHL1   C17 2096   6.421   0.954   7.736 -0.1244 -0.1069  0.4386
   29CHL1   H17 2097   6.428   1.062   7.714  3.0526 -0.4488 -0.6532
   29CHL1   C13 2098   6.387   0.882   7.596  0.2861  0.1143 -0.0604
   29CHL1   C18 2099   6.354   0.733   7.627 -0.1860  0.1962  0.2867
   29CHL1  H18A 2100   6.252   0.722   7.670  0.2040 -3.7419  0.5470
   29CHL1  H18B 2101   6.348   0.666   7.538 -0.2545 -2.2774  2.0618
   29CHL1  H18C 2102   6.427   0.685   7.696  0.6521 -0.2691 -0.8845
   29CHL1   C12 2103   6.284   0.946   7.495 -0.3934 -0.1093 -0.0035
   29CHL1  H12A 2104   6.181   0.922   7.528 -0.6611 -0.3923 -0.9942
   29CHL1  H12B 2105   6.294   1.057   7.493  0.2913 -0.1140 -3.0640
   29CHL1   C11 2106   6.299   0.879   7.361 -0.7190 -0.2703 -0.0637
   29CHL1  H11A 2107   6.276   0.770   7.360  1.1842 -0.7160  0.8767
   29CHL1  H11B 2108   6.227   0.925   7.289 -0.7235  0.2885  0.2967
   29CHL1    C9 2109   6.442   0.903   7.295  1.0617 -0.3179 -0.1612
   29CHL1    H9 2110   6.448   1.014   7.293  0.4405 -0.1831  2.2377
   29CHL1   C10 2111   6.449   0.854   7.150 -0.1049  0.1506  0.4152
   29CHL1   C19 2112   6.380   0.717   7.134  0.4500  1.0611  0.1787
   29CHL1  H19A 2113   6.421   0.636   7.199  0.2476  0.5483 -0.3231
   29CHL1  H19B 2114   6.271   0.721   7.152  0.5375 -1.0698  1.5703
   29CHL1  H19C 2115   6.385   0.682   7.029 -1.3680  0.8738  0.1304
   29CHL1    C1 2116   6.379   0.959   7.056  0.2141 -0.4776 -0.6113
   29CHL1   H1A 2117   6.271   0.959   7.082  0.7580 -0.9355  1.9776
   29CHL1   H1B 2118   6.414   1.061   7.082  1.2556 -0.9572 -0.0502
   29CHL1    C2 2119   6.401   0.927   6.906 -0.1528 -0.8435  1.1366
   29CHL1   H2A 2120   6.348   1.007   6.849 -1.5230 -1.3728  1.6285
   29CHL1   H2B 2121   6.348   0.834   6.877 -0.3412 -0.9560  1.8287
   29CHL1   C20 2122   6.322   0.943   7.855 -0.2309  0.0754 -0.1451
   29CHL1   H20 2123   6.307   0.837   7.886 -0.0578 -0.1483 -0.8072
   29CHL1   C21 2124   6.192   1.006   7.805  0.1295 -0.9511 -0.2654
   29CHL1  H21A 2125   6.114   1.011   7.884  0.0175  1.7569 -0.4721
   29CHL1  H21B 2126   6.147   0.942   7.726 -0.3604  0.0180 -0.7852
   29CHL1  H21C 2127   6.203   1.108   7.763  3.0544 -1.3243 -0.5552
   29CHL1   C22 2128   6.367   1.015   7.986 -0.6049  0.6134  0.3051
   29CHL1  H22A 2129   6.473   0.992   8.010 -1.4961 -1.4402  2.6934
   29CHL1  H22B 2130   6.363   1.120   7.950 -1.0769 -0.7320 -4.1229
   29CHL1   C23 2131   6.289   0.982   8.110 -0.4298 -0.3841 -0.3392
   29CHL1  H23A 2132   6.181   0.970   8.085 -0.2085 -4.0537 -0.0747
   29CHL1  H23B 2133   6.331   0.897   8.168 -0.9483  0.7482  1.7976
   29CHL1   C24 2134   6.300   1.099   8.210 -0.4478  0.6025  0.7208
   29CHL1  H24A 2135   6.407   1.107   8.238  0.6179  0.8308 -2.9348
   29CHL1  H24B 2136   6.273   1.190   8.152 -1.0523  0.8512  1.3751
   29CHL1   C25 2137   6.212   1.081   8.335 -0.3385 -0.3670 -0.6325
   29CHL1   H25 2138   6.115   1.049   8.292  0.6879 -1.0002 -2.6382
   29CHL1   C26 2139   6.272   0.981   8.435 -0.1876  0.3791  0.2456
   29CHL1  H26A 2140   6.379   0.998   8.463 -0.4800 -1.3488  2.7804
   29CHL1  H26B 2141   6.215   0.974   8.530  1.0116  1.7365  1.1163
   29CHL1  H26C 2142   6.273   0.878   8.393 -3.0342  0.3645  0.0158
   29CHL1   C27 2143   6.197   1.218   8.398  0.0447 -0.8128 -0.6642
   29CHL1  H27A 2144   6.159   1.281   8.314  0.3460  0.4658  0.1296
   29CHL1  H27B 2145   6.117   1.215   8.475 -1.5875 -1.2479 -2.2864
   29CHL1  H27C 2146   6.294   1.242   8.447 -0.7207 -0.6757  0.8493
   30CHL1    C3 2147   6.165   4.109   7.469 -0.3375 -1.0249  0.9224
   30CHL1    H3 2148   6.060   4.138   7.490 -0.8357 -1.5774 -0.6681
   30CHL1    O3 2149   6.184   4.138   7.328 -0.1755  0.1288  0.0360
   30CHL1   H3' 2150   6.279   4.131   7.317  0.0558  0.4330  1.6101
   30CHL1    C4 2151   6.253   4.204   7.554 -0.0447  0.2621  0.5102
   30CHL1   H4A 2152   6.356   4.174   7.527 -0.2759 -1.3137  1.2224
   30CHL1   H4B 2153   6.230   4.308   7.522  2.7576  1.0579  0.8658
   30CHL1    C5 2154   6.223   4.170   7.699 -0.0412  0.7509 -0.3139
   30CHL1    C6 2155   6.185   4.268   7.782 -1.0351 -0.6214  0.3521
   30CHL1    H6 2156   6.188   4.372   7.746  0.1490 -1.0301 -0.7937
   30CHL1    C7 2157   6.161   4.247   7.926  0.2032  0.4180 -0.0464
   30CHL1   H7A 2158   6.200   4.339   7.975  0.3511  1.1047 -1.4101
   30CHL1   H7B 2159   6.052   4.245   7.952 -0.2979 -0.9661 -2.0337
   30CHL1    C8 2160   6.223   4.115   7.982  0.1784  0.1614 -0.0582
   30CHL1    H8 2161   6.333   4.129   7.980  0.1927  0.1732  0.5108
   30CHL1   C14 2162   6.172   4.082   8.122  0.5543  0.3130  0.0389
   30CHL1   H14 2163   6.062   4.068   8.111  0.3221  1.8565  0.0848
   30CHL1   C15 2164   6.185   4.191   8.222 -0.0441  0.6503 -0.4676
   30CHL1  H15A 2165   6.284   4.239   8.208  0.1100  0.1461 -1.1487
   30CHL1  H15B 2166   6.107   4.269   8.215  0.6726  1.4357  0.0615
   30CHL1   C16 2167   6.175   4.112   8.352 -0.4043 -0.2468 -0.2878
   30CHL1  H16A 2168   6.267   4.143   8.404 -1.8742  1.2935  1.5290
   30CHL1  H16B 2169   6.093   4.138   8.422  0.5017 -0.4093  0.8719
   30CHL1   C17 2170   6.175   3.963   8.324 -0.5816  0.3697  0.3059
   30CHL1   H17 2171   6.069   3.932   8.311 -0.6688  0.4547  0.7979
   30CHL1   C13 2172   6.227   3.951   8.182 -0.5515  0.2015 -0.3174
   30CHL1   C18 2173   6.381   3.961   8.173  0.1729  0.7030 -0.4795
   30CHL1  H18A 2174   6.426   4.043   8.233  0.8799  0.0159 -0.0478
   30CHL1  H18B 2175   6.410   3.860   8.209 -1.1122  1.6840  3.9363
   30CHL1  H18C 2176   6.422   3.959   8.070 -0.2665 -3.7220 -0.7568
   30CHL1   C12 2177   6.174   3.837   8.086 -0.0455  0.1708 -0.3536
   30CHL1  H12A 2178   6.198   3.739   8.132 -2.1415  0.0523  0.6150
   30CHL1  H12B 2179   6.064   3.856   8.084 -0.6274 -2.6449  0.7253
   30CHL1   C11 2180   6.216   3.856   7.935  0.3279  0.4765 -0.4095
   30CHL1  H11A 2181   6.320   3.816   7.930  0.2683  0.2351  0.1804
   30CHL1  H11B 2182   6.160   3.774   7.886 -1.4109 -0.2298  2.4840
   30CHL1    C9 2183   6.184   4.002   7.880 -0.5824  0.1688 -0.5831
   30CHL1    H9 2184   6.073   4.006   7.872 -0.4669  0.6922 -2.1528
   30CHL1   C10 2185   6.238   4.025   7.741 -0.0511  0.0873  0.6158
   30CHL1   C19 2186   6.389   3.991   7.737 -0.1332  0.3207 -0.6193
   30CHL1  H19A 2187   6.421   3.996   7.631 -0.8191 -0.5780 -0.8937
   30CHL1  H19B 2188   6.458   4.053   7.797  0.3695 -1.3819  0.6519
   30CHL1  H19C 2189   6.418   3.886   7.762 -2.0227  0.6203  3.6868
   30CHL1    C1 2190   6.157   3.936   7.644  0.1716 -0.1245 -0.3981
   30CHL1   H1A 2191   6.189   3.833   7.666 -1.9527 -0.4396  1.5764
   30CHL1   H1B 2192   6.050   3.951   7.670  0.0013  1.0831 -1.6577
   30CHL1    C2 2193   6.180   3.961   7.491 -0.0375 -0.0923  0.4862
   30CHL1   H2A 2194   6.106   3.908   7.427 -0.7218  1.8914 -0.4655
   30CHL1   H2B 2195   6.279   3.917   7.469 -0.8515 -1.4920 -0.5820
   30CHL1   C20 2196   6.231   3.877   8.439 -1.0456  0.8687  0.3668
   30CHL1   H20 2197   6.339   3.894   8.454 -1.6537  2.1692  4.8850
   30CHL1   C21 2198   6.210   3.726   8.403  0.1466 -0.7744 -0.0733
   30CHL1  H21A 2199   6.105   3.689   8.403 -0.1891  0.0218 -2.1889
   30CHL1  H21B 2200   6.272   3.664   8.471 -0.2410 -0.4426  0.5944
   30CHL1  H21C 2201   6.253   3.698   8.305  0.9971 -2.0053  0.6226
   30CHL1   C22 2202   6.168   3.905   8.575 -0.3759  0.2304 -0.0048
   30CHL1  H22A 2203   6.208   3.838   8.654  1.4915  0.4575 -0.7091
   30CHL1  H22B 2204   6.199   4.006   8.611  0.9332 -0.2695  0.3306
   30CHL1   C23 2205   6.011   3.887   8.580  0.2069  0.1546 -0.4875
   30CHL1  H23A 2206   5.974   3.984   8.540 -0.4074 -1.3444 -3.9071
   30CHL1  H23B 2207   5.979   3.806   8.512 -0.3453 -1.0648  1.1519
   30CHL1   C24 2208   5.977   3.854   8.724  0.3261 -0.0960 -0.1119
   30CHL1  H24A 2209   6.028   3.763   8.762  0.2424  0.0058  0.2535
   30CHL1  H24B 2210   6.014   3.939   8.785 -3.6760  1.4984  0.3761
   30CHL1   C25 2211   5.830   3.863   8.770  0.3752 -1.1859 -0.2972
   30CHL1   H25 2212   5.795   3.968   8.761 -1.2852 -1.7742 -1.2498
   30CHL1   C26 2213   5.734   3.769   8.701  0.1633 -0.4672 -0.1768
   30CHL1  H26A 2214   5.639   3.772   8.759 -0.8567 -2.1369 -1.6747
   30CHL1  H26B 2215   5.690   3.805   8.606  0.4561 -0.5440 -0.3430
   30CHL1  H26C 2216   5.773   3.666   8.689  0.4871 -0.5269  1.2496
   30CHL1   C27 2217   5.814   3.834   8.922  0.1883 -0.3678  0.0749
   30CHL1  H27A 2218   5.818   3.724   8.939  1.8262 -0.8032 -2.4894
   30CHL1  H27B 2219   5.896   3.882   8.980  0.0742 -0.2177  0.1112
   30CHL1  H27C 2220   5.719   3.871   8.967  1.3758  2.7396  0.2529
   31CHL1    C3 2221   0.761   1.575   6.914 -0.1982 -0.1201 -0.6924
   31CHL1    H3 2222   0.861   1.526   6.918 -0.9515 -1.6741  1.3400
   31CHL1    O3 2223   0.724   1.618   6.785  0.7870  0.1026  0.0390
   31CHL1   H3' 2224   0.767   1.558   6.724  2.7196  0.5437  0.9016
   31CHL1    C4 2225   0.639   1.499   6.969 -0.3916  0.5597  0.6624
   31CHL1   H4A 2226   0.549   1.559   6.942  0.0959 -0.0614 -2.8017
   31CHL1   H4B 2227   0.619   1.410   6.906 -0.1064  1.1412 -0.2712
   31CHL1    C5 2228   0.640   1.463   7.115  0.1216 -0.1325  0.2946
   31CHL1    C6 2229   0.639   1.337   7.168 -0.1401  0.3794  0.3805
   31CHL1    H6 2230   0.638   1.251   7.100 -0.4095 -0.8361  1.8544
   31CHL1    C7 2231   0.645   1.306   7.316  0.1779  0.1484 -0.1216
   31CHL1   H7A 2232   0.574   1.221   7.321 -0.4650  0.6158 -0.9653
   31CHL1   H7B 2233   0.749   1.272   7.332  0.3445  0.3905 -0.6485
   31CHL1    C8 2234   0.614   1.428   7.412 -0.8378 -0.3111  0.1814
   31CHL1    H8 2235   0.506   1.454   7.417 -0.7250 -0.0610  1.9274
   31CHL1   C14 2236   0.664   1.396   7.560 -0.1324 -1.2414  0.1648
   31CHL1   H14 2237   0.774   1.382   7.555  0.5031  2.8369 -1.3726
   31CHL1   C15 2238   0.605   1.275   7.626 -0.3626  0.4768  0.1996
   31CHL1  H15A 2239   0.496   1.279   7.609 -0.5353 -1.4013  0.6914
   31CHL1  H15B 2240   0.644   1.176   7.596  0.4026  0.2976  1.6595
   31CHL1   C16 2241   0.636   1.294   7.778 -0.6814 -0.6840  0.1002
   31CHL1  H16A 2242   0.538   1.281   7.831 -0.7607  1.4166  0.5530
   31CHL1  H16B 2243   0.714   1.227   7.820  0.9480  0.9346 -0.2364
   31CHL1   C17 2244   0.685   1.445   7.791  0.0280  0.9856 -0.7580
   31CHL1   H17 2245   0.796   1.442   7.791  0.0477 -2.3042 -0.2759
   31CHL1   C13 2246   0.639   1.512   7.653  0.1613  0.0663  0.8149
   31CHL1   C18 2247   0.495   1.556   7.662  0.2763 -0.4333 -0.6626
   31CHL1  H18A 2248   0.491   1.644   7.730 -1.4219 -1.9281  1.2547
   31CHL1  H18B 2249   0.443   1.590   7.569  1.6241 -1.3239 -1.7942
   31CHL1  H18C 2250   0.430   1.478   7.705  1.1401 -0.8316 -0.0547
   31CHL1   C12 2251   0.721   1.632   7.602 -0.8692  0.2315  0.1400
   31CHL1  H12A 2252   0.716   1.718   7.672  0.3127  1.4763 -1.2301
   31CHL1  H12B 2253   0.828   1.601   7.600 -0.4984  1.4880 -0.7239
   31CHL1   C11 2254   0.695   1.673   7.451 -0.7875  0.1146  0.0598
   31CHL1  H11A 2255   0.600   1.730   7.458 -2.1437 -2.1428  1.9627
   31CHL1  H11B 2256   0.778   1.739   7.420 -0.3453 -0.7621 -0.6644
   31CHL1    C9 2257   0.691   1.547   7.358  0.2601  0.3109  0.7247
   31CHL1    H9 2258   0.798   1.515   7.353  0.6530  1.6179 -3.3654
   31CHL1   C10 2259   0.654   1.586   7.208 -0.0446  0.2866 -0.8408
   31CHL1   C19 2260   0.518   1.665   7.205 -0.2731 -0.4482 -0.4538
   31CHL1  H19A 2261   0.514   1.760   7.263  0.4080 -0.3626 -0.5442
   31CHL1  H19B 2262   0.506   1.706   7.102  1.3203  1.7372  0.1480
   31CHL1  H19C 2263   0.441   1.592   7.238 -2.0234 -0.1305 -3.4189
   31CHL1    C1 2264   0.778   1.673   7.154  0.0629  0.3879  0.9023
   31CHL1   H1A 2265   0.798   1.763   7.216 -1.3155  0.7658  0.8388
   31CHL1   H1B 2266   0.858   1.598   7.171  1.7188  2.1138  0.9472
   31CHL1    C2 2267   0.774   1.706   7.002 -0.0960 -0.5451 -0.9276
   31CHL1   H2A 2268   0.863   1.763   6.968 -1.7432  2.1465 -1.0270
   31CHL1   H2B 2269   0.689   1.773   6.979  0.4852  1.0896  1.3939
   31CHL1   C20 2270   0.652   1.514   7.928  0.9752  0.2278  0.5914
   31CHL1   H20 2271   0.545   1.545   7.926  0.8548 -0.1949 -0.8429
   31CHL1   C21 2272   0.742   1.638   7.944 -0.0405  0.2795  0.5569
   31CHL1  H21A 2273   0.848   1.605   7.957  0.9847  1.0033 -4.2343
   31CHL1  H21B 2274   0.724   1.693   8.039  4.2057 -2.4199  3.3149
   31CHL1  H21C 2275   0.741   1.716   7.865 -0.0824 -0.3817 -0.1066
   31CHL1   C22 2276   0.678   1.426   8.052  0.3287  0.0259 -0.5031
   31CHL1  H22A 2277   0.629   1.328   8.037  0.4379 -0.1490  0.2649
   31CHL1  H22B 2278   0.787   1.405   8.050  0.3735  0.0862  0.8077
   31CHL1   C23 2279   0.629   1.479   8.190  0.4700  0.1746 -0.6674
   31CHL1  H23A 2280   0.688   1.569   8.214  0.4949  0.5247 -1.9384
   31CHL1  H23B 2281   0.526   1.520   8.181 -0.0137 -0.4228  1.6371
   31CHL1   C24 2282   0.650   1.378   8.301  0.9568 -0.3428  0.1792
   31CHL1  H24A 2283   0.653   1.275   8.260  0.2964 -1.1335  2.0258
   31CHL1  H24B 2284   0.752   1.404   8.337  0.2357  0.6219  1.6137
   31CHL1   C25 2285   0.552   1.384   8.418  0.4757  0.2981  0.1502
   31CHL1   H25 2286   0.449   1.360   8.386  0.4006  1.1007 -0.2157
   31CHL1   C26 2287   0.596   1.295   8.537  1.0342 -0.1588  0.1476
   31CHL1  H26A 2288   0.618   1.191   8.505  1.5125  0.0960 -0.3894
   31CHL1  H26B 2289   0.685   1.341   8.586  0.2829 -0.6537  2.0779
   31CHL1  H26C 2290   0.511   1.291   8.608  0.2669  2.0642 -0.5711
   31CHL1   C27 2291   0.535   1.531   8.476  0.5366 -0.3137  0.3461
   31CHL1  H27A 2292   0.449   1.537   8.546  0.9027 -0.1825  0.7874
   31CHL1  H27B 2293   0.517   1.595   8.387 -0.6248 -1.2499 -0.1227
   31CHL1  H27C 2294   0.628   1.567   8.524 -0.3063  0.4352  1.4640
   32CHL1    C3 2295   2.018   3.643   6.880  0.7447  0.3741  0.1600
   32CHL1    H3 2296   1.937   3.708   6.841  1.0681  0.7372  0.0873
   32CHL1    O3 2297   2.078   3.573   6.773  0.2679 -0.2871 -0.1760
   32CHL1   H3' 2298   2.106   3.649   6.722  0.2232  1.0131  1.6636
   32CHL1    C4 2299   2.123   3.718   6.957  0.0328  0.4656 -0.4920
   32CHL1   H4A 2300   2.209   3.653   6.985  0.3186  0.8446 -0.4902
   32CHL1   H4B 2301   2.165   3.791   6.885 -0.0080  1.0394  0.0622
   32CHL1    C5 2302   2.072   3.780   7.081 -0.0695  0.4855 -0.4327
   32CHL1    C6 2303   2.094   3.913   7.107  0.4762  0.2336  0.2462
   32CHL1    H6 2304   2.153   3.969   7.034  1.0593 -0.5200  0.1295
   32CHL1    C7 2305   2.052   3.995   7.222 -0.3558  0.6248 -1.0070
   32CHL1   H7A 2306   2.140   4.046   7.268  0.2736  0.1624 -1.6778
   32CHL1   H7B 2307   1.985   4.082   7.204 -0.5188  1.1778  1.7078
   32CHL1    C8 2308   1.993   3.905   7.335 -0.3142 -0.3567 -0.6434
   32CHL1    H8 2309   2.084   3.869   7.387 -1.5150 -3.1813 -0.3332
   32CHL1   C14 2310   1.907   3.974   7.434 -0.3187  0.0876 -0.3222
   32CHL1   H14 2311   1.823   4.004   7.368 -0.7512 -2.9109 -1.3162
   32CHL1   C15 2312   1.969   4.102   7.489  0.0030 -0.3917  0.7972
   32CHL1  H15A 2313   2.072   4.082   7.527  0.2824  0.4236  0.5054
   32CHL1  H15B 2314   1.977   4.178   7.407 -1.7937 -2.7435 -1.7326
   32CHL1   C16 2315   1.865   4.143   7.594  0.5193  0.8658 -0.0270
   32CHL1  H16A 2316   1.922   4.172   7.685  1.2399  0.6477 -0.3974
   32CHL1  H16B 2317   1.798   4.228   7.572 -1.1793 -0.4221 -0.0425
   32CHL1   C17 2318   1.777   4.011   7.625 -0.7519 -0.7669 -0.4342
   32CHL1   H17 2319   1.686   4.017   7.561 -1.0190 -1.2039 -0.1016
   32CHL1   C13 2320   1.852   3.895   7.552  0.2362  0.3164  0.3188
   32CHL1   C18 2321   1.970   3.842   7.638 -0.2190  0.0684  0.1913
   32CHL1  H18A 2322   2.052   3.792   7.581  0.8087  2.0265 -0.1341
   32CHL1  H18B 2323   2.015   3.929   7.691 -1.0645 -0.0991  1.2127
   32CHL1  H18C 2324   1.938   3.765   7.712 -0.4665 -1.2445 -1.2358
   32CHL1   C12 2325   1.772   3.780   7.498 -0.4100  0.0596  0.2742
   32CHL1  H12A 2326   1.738   3.704   7.572  1.5006 -1.1676 -0.0525
   32CHL1  H12B 2327   1.687   3.824   7.442 -0.1060  0.6149  0.2500
   32CHL1   C11 2328   1.849   3.699   7.390  0.2396  0.5651  0.2621
   32CHL1  H11A 2329   1.925   3.631   7.433 -0.9813 -0.5183  0.7489
   32CHL1  H11B 2330   1.776   3.632   7.339 -2.2740  2.4245  1.1630
   32CHL1    C9 2331   1.920   3.780   7.283  0.6014 -0.7274 -0.1601
   32CHL1    H9 2332   1.829   3.822   7.235 -0.9378 -0.2588  2.9480
   32CHL1   C10 2333   1.995   3.690   7.180  0.1896 -0.7430 -0.0974
   32CHL1   C19 2334   2.090   3.590   7.257  0.3012  0.0793  0.0290
   32CHL1  H19A 2335   2.156   3.644   7.327 -0.6065  0.3988  0.6573
   32CHL1  H19B 2336   2.034   3.506   7.304  1.2421 -1.2999 -1.2066
   32CHL1  H19C 2337   2.153   3.546   7.177 -2.0034  1.2496 -2.6165
   32CHL1    C1 2338   1.891   3.610   7.099 -0.0447  0.1052  0.0310
   32CHL1   H1A 2339   1.837   3.532   7.156  0.7923 -1.5433 -1.3288
   32CHL1   H1B 2340   1.815   3.677   7.052  1.3887  1.5180 -0.3676
   32CHL1    C2 2341   1.957   3.540   6.974  0.7287  0.0100 -0.1718
   32CHL1   H2A 2342   1.875   3.486   6.922  0.3605  0.0823  0.3294
   32CHL1   H2B 2343   2.033   3.461   6.993  0.0938 -0.3079  1.1781
   32CHL1   C20 2344   1.745   3.991   7.774 -0.2506 -0.9864 -0.1782
   32CHL1   H20 2345   1.833   3.979   7.840  1.0071 -1.4272 -1.8649
   32CHL1   C21 2346   1.671   3.863   7.793  0.5110  0.8126 -0.5289
   32CHL1  H21A 2347   1.740   3.777   7.780 -2.3293 -1.5373 -1.2148
   32CHL1  H21B 2348   1.606   3.856   7.703  0.6272 -1.1296 -0.5009
   32CHL1  H21C 2349   1.626   3.851   7.893  2.4115  0.7291  0.3605
   32CHL1   C22 2350   1.647   4.107   7.822 -0.2122 -0.4153  0.1806
   32CHL1  H22A 2351   1.684   4.204   7.781  0.8867 -0.6677  0.5349
   32CHL1  H22B 2352   1.550   4.084   7.774 -0.4509 -1.5027  1.1501
   32CHL1   C23 2353   1.635   4.123   7.975  0.8003  0.1055 -0.2109
   32CHL1  H23A 2354   1.550   4.066   8.019 -0.2551  2.0240  0.3099
   32CHL1  H23B 2355   1.722   4.081   8.030  0.3326 -0.1554  0.3322
   32CHL1   C24 2356   1.612   4.270   8.019 -0.2199 -0.3034  0.0883
   32CHL1  H24A 2357   1.705   4.329   8.003 -1.2796  1.2673 -0.4173
   32CHL1  H24B 2358   1.551   4.312   7.937 -1.4037 -2.1073 -0.0039
   32CHL1   C25 2359   1.541   4.296   8.153 -0.0738 -0.0655  0.2833
   32CHL1   H25 2360   1.444   4.243   8.161 -0.3600  0.5622  1.0313
   32CHL1   C26 2361   1.624   4.244   8.273 -0.2813  0.4513  0.0993
   32CHL1  H26A 2362   1.679   4.150   8.251  0.2065  1.1723 -1.9677
   32CHL1  H26B 2363   1.697   4.326   8.288  1.0775 -0.4669 -1.1913
   32CHL1  H26C 2364   1.552   4.232   8.357 -0.1806  2.4962  0.5160
   32CHL1   C27 2365   1.517   4.446   8.169  0.1253  0.4254 -0.6388
   32CHL1  H27A 2366   1.485   4.478   8.270  4.1739  0.7889  0.6972
   32CHL1  H27B 2367   1.616   4.492   8.152  0.1595  0.4597 -0.3465
   32CHL1  H27C 2368   1.440   4.467   8.091  0.8642 -1.1006 -1.8276
   33CHL1    C3 2369   1.496   4.568   6.892  0.2253  0.4563  0.2097
   33CHL1    H3 2370   1.486   4.460   6.912 -0.8474  0.6831  0.9460
   33CHL1    O3 2371   1.537   4.582   6.754 -0.6878 -0.0438 -0.6895
   33CHL1   H3' 2372   1.593   4.505   6.745  0.0401  0.0083  2.3361
   33CHL1    C4 2373   1.361   4.639   6.914 -0.7811 -0.4367  0.3753
   33CHL1   H4A 2374   1.376   4.744   6.878  0.8815 -0.7745 -0.0266
   33CHL1   H4B 2375   1.282   4.588   6.855  0.3533 -1.6903 -0.1252
   33CHL1    C5 2376   1.316   4.638   7.057  0.1401  0.3942 -0.1033
   33CHL1    C6 2377   1.196   4.586   7.096 -0.6898 -0.2281  0.4586
   33CHL1    H6 2378   1.122   4.548   7.024 -2.0404  1.3588  0.9281
   33CHL1    C7 2379   1.142   4.578   7.239 -0.3238 -0.3612  0.6410
   33CHL1   H7A 2380   1.035   4.610   7.244 -0.0444  0.6745  0.3594
   33CHL1   H7B 2381   1.149   4.471   7.264  0.1056 -0.3375  0.6263
   33CHL1    C8 2382   1.232   4.659   7.332  0.2806  0.0577 -0.0066
   33CHL1    H8 2383   1.214   4.768   7.324 -0.5341 -0.1730 -1.6448
   33CHL1   C14 2384   1.216   4.608   7.476  0.2885 -0.4199 -0.1562
   33CHL1   H14 2385   1.264   4.508   7.476 -0.0021 -0.6250 -2.5657
   33CHL1   C15 2386   1.072   4.594   7.530 -0.3393  0.1445 -0.6671
   33CHL1  H15A 2387   0.997   4.672   7.507 -2.0658 -0.8589  1.1679
   33CHL1  H15B 2388   1.033   4.500   7.485  2.7320 -1.1645 -0.8532
   33CHL1   C16 2389   1.088   4.573   7.675 -0.6120 -0.6283  0.2368
   33CHL1  H16A 2390   1.019   4.628   7.743  0.2195  0.8169 -0.0307
   33CHL1  H16B 2391   1.079   4.467   7.706  0.3545 -0.8642 -0.2461
   33CHL1   C17 2392   1.235   4.615   7.707  0.2838  0.2329  0.3679
   33CHL1   H17 2393   1.292   4.521   7.722 -0.3359 -0.3664 -0.8988
   33CHL1   C13 2394   1.289   4.689   7.584  0.9382 -0.3434  0.0751
   33CHL1   C18 2395   1.233   4.837   7.582  0.2784  0.5850 -0.0441
   33CHL1  H18A 2396   1.122   4.844   7.578  0.2915  0.9924  0.2659
   33CHL1  H18B 2397   1.265   4.891   7.673  2.0116  0.7214 -0.7002
   33CHL1  H18C 2398   1.268   4.904   7.500  0.5965  0.2998 -0.1444
   33CHL1   C12 2399   1.439   4.676   7.556  0.9660  0.2157 -0.6954
   33CHL1  H12A 2400   1.494   4.733   7.634  1.8829 -2.8394  1.0796
   33CHL1  H12B 2401   1.459   4.571   7.587 -1.6469  0.4967  2.4191
   33CHL1   C11 2402   1.475   4.712   7.413 -0.1135  0.2473 -0.0665
   33CHL1  H11A 2403   1.476   4.823   7.409 -0.3772  0.2874  0.8559
   33CHL1  H11B 2404   1.581   4.680   7.404 -0.6429 -2.8312  2.7213
   33CHL1    C9 2405   1.384   4.649   7.305 -0.2180 -0.0887  0.2358
   33CHL1    H9 2406   1.407   4.541   7.312  1.2369  0.2759  1.9573
   33CHL1   C10 2407   1.423   4.684   7.156  0.3055 -0.9098  0.0215
   33CHL1   C19 2408   1.416   4.839   7.137  0.4365 -1.0330 -0.7221
   33CHL1  H19A 2409   1.493   4.877   7.207 -0.6594  1.3539 -0.6996
   33CHL1  H19B 2410   1.440   4.876   7.035 -0.2278  2.4467  0.2583
   33CHL1  H19C 2411   1.314   4.876   7.160  0.5771 -1.6647  1.0432
   33CHL1    C1 2412   1.556   4.619   7.130  0.2928 -0.3017 -0.0915
   33CHL1   H1A 2413   1.627   4.681   7.189  0.6425 -1.4961  0.7616
   33CHL1   H1B 2414   1.551   4.514   7.166 -2.0937 -0.0034  0.6499
   33CHL1    C2 2415   1.604   4.628   6.978 -0.4121 -0.6841  0.2444
   33CHL1   H2A 2416   1.702   4.584   6.950  0.7900  2.0584 -0.2227
   33CHL1   H2B 2417   1.612   4.735   6.949 -2.5183 -0.1249  1.5075
   33CHL1   C20 2418   1.245   4.687   7.845 -0.3222  0.4387  0.3994
   33CHL1   H20 2419   1.175   4.773   7.837  0.9713  1.4096 -1.5147
   33CHL1   C21 2420   1.387   4.744   7.877  0.2250 -0.1315 -0.3543
   33CHL1  H21A 2421   1.376   4.805   7.970 -0.3131 -0.7475 -0.0062
   33CHL1  H21B 2422   1.407   4.821   7.799  1.3664  1.1375  1.1179
   33CHL1  H21C 2423   1.467   4.667   7.881 -1.3465 -1.8043  0.5621
   33CHL1   C22 2424   1.192   4.603   7.961  0.1089  0.5891  0.2175
   33CHL1  H22A 2425   1.082   4.584   7.961 -0.3195  2.3391  3.2898
   33CHL1  H22B 2426   1.243   4.505   7.966 -1.7975 -0.6578 -2.4398
   33CHL1   C23 2427   1.191   4.678   8.097 -0.6579 -0.2789  0.6389
   33CHL1  H23A 2428   1.296   4.699   8.129  0.0783 -0.5039 -1.4483
   33CHL1  H23B 2429   1.148   4.778   8.074  2.7205  1.5132  1.3455
   33CHL1   C24 2430   1.111   4.607   8.203  0.2195  0.2578  0.1619
   33CHL1  H24A 2431   1.009   4.582   8.167  0.3318 -1.2422  0.8035
   33CHL1  H24B 2432   1.176   4.519   8.222  0.6560  0.2698 -1.1659
   33CHL1   C25 2433   1.111   4.687   8.334  0.1471  0.2692 -0.9955
   33CHL1   H25 2434   1.212   4.727   8.358 -0.6291  1.7123  0.0564
   33CHL1   C26 2435   1.011   4.807   8.351 -0.2757  0.7780 -0.9223
   33CHL1  H26A 2436   1.015   4.847   8.455  0.4694  0.0462 -0.6611
   33CHL1  H26B 2437   1.031   4.879   8.269 -1.1272  0.9113 -1.0319
   33CHL1  H26C 2438   0.907   4.768   8.344 -0.9499  2.6378 -2.2693
   33CHL1   C27 2439   1.076   4.586   8.447 -0.3792 -0.2375 -0.3770
   33CHL1  H27A 2440   1.150   4.503   8.440 -0.0423  0.1010 -0.9219
   33CHL1  H27B 2441   1.071   4.636   8.547  1.7040 -2.0555  0.7333
   33CHL1  H27C 2442   0.974   4.546   8.429 -1.1089  1.8445 -1.1982
   34CHL1    C3 2443   1.995   1.643   7.125 -0.3664 -0.7265  0.3336
   34CHL1    H3 2444   1.897   1.689   7.149 -0.1139 -0.7911  1.5639
   34CHL1    O3 2445   2.008   1.604   6.985 -0.5079  0.1408 -0.6240
   34CHL1   H3' 2446   2.095   1.563   6.992 -0.6325  0.1667  1.8677
   34CHL1    C4 2447   2.105   1.732   7.156 -0.6139  0.0061 -0.5517
   34CHL1   H4A 2448   2.204   1.682   7.147  0.1309  0.9617  1.5721
   34CHL1   H4B 2449   2.120   1.820   7.090 -1.7665  0.1120 -0.6942
   34CHL1    C5 2450   2.111   1.783   7.299 -0.1978 -0.1375  0.8950
   34CHL1    C6 2451   2.111   1.916   7.333  0.8369  0.3608  0.2521
   34CHL1    H6 2452   2.104   1.985   7.247  2.9571  0.2537 -0.0541
   34CHL1    C7 2453   2.128   1.967   7.474  0.7037  0.5238  0.2335
   34CHL1   H7A 2454   2.221   2.027   7.476  0.5279  0.7798  0.7914
   34CHL1   H7B 2455   2.035   2.019   7.505 -1.9035 -1.6790 -3.0997
   34CHL1    C8 2456   2.167   1.858   7.577  0.4574 -0.1806  0.4274
   34CHL1    H8 2457   2.275   1.842   7.557  0.3781  0.2140 -0.3808
   34CHL1   C14 2458   2.147   1.903   7.726 -0.4244  0.1007 -0.4393
   34CHL1   H14 2459   2.038   1.906   7.746 -0.6006  1.4788 -1.4540
   34CHL1   C15 2460   2.205   2.034   7.774 -0.2622 -0.4000 -0.0385
   34CHL1  H15A 2461   2.312   2.046   7.749  0.8520 -2.2245  3.2080
   34CHL1  H15B 2462   2.146   2.118   7.731  1.1048 -0.1526 -1.5338
   34CHL1   C16 2463   2.194   2.031   7.932  0.1590  0.0397  0.3838
   34CHL1  H16A 2464   2.295   2.068   7.959  0.2159  0.5934 -0.5478
   34CHL1  H16B 2465   2.113   2.086   7.985  0.7380 -0.7175  2.1354
   34CHL1   C17 2466   2.169   1.882   7.964  0.0584 -0.2485  0.2157
   34CHL1   H17 2467   2.060   1.874   7.978 -0.3864  2.7563 -0.7131
   34CHL1   C13 2468   2.197   1.806   7.831  0.3388  0.6453 -0.0819
   34CHL1   C18 2469   2.345   1.765   7.816  0.1002  0.2195  0.1611
   34CHL1  H18A 2470   2.375   1.694   7.896  0.9333  1.6290  1.1519
   34CHL1  H18B 2471   2.371   1.722   7.717 -0.0384 -0.5366  0.4500
   34CHL1  H18C 2472   2.418   1.847   7.835 -0.2558  0.2500  1.5566
   34CHL1   C12 2473   2.119   1.676   7.806 -0.5542  0.3888  0.4173
   34CHL1  H12A 2474   2.151   1.587   7.864  2.5303 -2.3701 -4.7370
   34CHL1  H12B 2475   2.009   1.686   7.811 -1.0101 -1.6710 -2.5910
   34CHL1   C11 2476   2.125   1.624   7.657  0.2163 -0.3770 -0.0673
   34CHL1  H11A 2477   2.231   1.596   7.640  0.4152 -0.0475  0.5947
   34CHL1  H11B 2478   2.059   1.534   7.662 -0.7931  0.4208  2.5433
   34CHL1    C9 2479   2.095   1.722   7.550 -0.4728 -0.1544  0.0491
   34CHL1    H9 2480   1.988   1.751   7.550 -0.2293  0.9421 -1.6516
   34CHL1   C10 2481   2.118   1.669   7.406  0.1891 -0.6408  0.4275
   34CHL1   C19 2482   2.256   1.607   7.395  0.2250  0.2729  0.4061
   34CHL1  H19A 2483   2.333   1.682   7.420 -1.8952  2.0785  1.9705
   34CHL1  H19B 2484   2.278   1.526   7.467  1.2218  0.6840  0.5840
   34CHL1  H19C 2485   2.266   1.569   7.291 -2.5635  0.7579 -0.1233
   34CHL1    C1 2486   2.011   1.560   7.363 -0.1411 -0.2675  0.3416
   34CHL1   H1A 2487   2.034   1.472   7.427 -0.3593 -0.5429  0.0436
   34CHL1   H1B 2488   1.911   1.602   7.388 -1.1735 -1.7120 -1.1560
   34CHL1    C2 2489   1.996   1.516   7.213  0.3625 -0.6968 -0.3719
   34CHL1   H2A 2490   1.904   1.455   7.200  0.5962 -0.8057 -1.6943
   34CHL1   H2B 2491   2.086   1.459   7.181 -0.0752 -1.7638  0.2482
   34CHL1   C20 2492   2.241   1.840   8.093 -0.0382  0.6790 -0.1903
   34CHL1   H20 2493   2.348   1.851   8.063 -0.2333  2.0082 -0.4889
   34CHL1   C21 2494   2.203   1.699   8.114  0.6928  0.2546  0.3545
   34CHL1  H21A 2495   2.244   1.627   8.040 -2.7108 -1.5244  0.0017
   34CHL1  H21B 2496   2.093   1.684   8.118  0.7495 -0.7870 -1.1223
   34CHL1  H21C 2497   2.243   1.663   8.211  1.0655 -0.7872 -0.1700
   34CHL1   C22 2498   2.229   1.923   8.226 -0.0206 -0.7091  0.6069
   34CHL1  H22A 2499   2.296   1.878   8.302  3.2987  2.5906 -0.0942
   34CHL1  H22B 2500   2.263   2.027   8.209 -1.3266  0.7507  5.3886
   34CHL1   C23 2501   2.079   1.948   8.265 -0.4465 -0.0398  0.1013
   34CHL1  H23A 2502   2.026   2.008   8.189 -1.5477  1.8614  2.2489
   34CHL1  H23B 2503   2.033   1.847   8.271  0.2134 -0.7448 -3.9736
   34CHL1   C24 2504   2.056   2.031   8.396 -0.4452  0.0437  0.1772
   34CHL1  H24A 2505   2.092   2.129   8.359  3.0241 -1.5044 -0.9818
   34CHL1  H24B 2506   1.945   2.025   8.406 -0.3336  0.7328  2.6642
   34CHL1   C25 2507   2.113   1.976   8.524 -0.3691  0.1043  0.6831
   34CHL1   H25 2508   2.224   1.976   8.513 -0.5270  1.7838 -1.5093
   34CHL1   C26 2509   2.074   2.071   8.638 -0.3770 -0.4801 -0.4931
   34CHL1  H26A 2510   2.134   2.165   8.641  0.0682 -0.7426  3.0753
   34CHL1  H26B 2511   1.965   2.088   8.653 -0.1543 -0.8187  1.8146
   34CHL1  H26C 2512   2.117   2.030   8.731 -1.1064 -1.7007 -0.6779
   34CHL1   C27 2513   2.065   1.835   8.556  0.4515  0.0671  0.1776
   34CHL1  H27A 2514   2.079   1.758   8.477 -0.4554  2.6917 -2.7269
   34CHL1  H27B 2515   2.106   1.796   8.651  2.3314  0.7466 -0.3146
   34CHL1  H27C 2516   1.956   1.843   8.577  0.3896 -2.8967  1.5282
   35CHL1    C3 2517   4.253   3.470   7.205 -0.1511  0.4674  0.1065
   35CHL1    H3 2518   4.285   3.375   7.254  0.7336  0.6734 -0.0423
   35CHL1    O3 2519   4.325   3.479   7.086  0.2483 -0.2388  0.0666
   35CHL1   H3' 2520   4.281   3.425   7.020  3.2042 -0.3046 -2.0812
   35CHL1    C4 2521   4.104   3.448   7.179  0.3978 -0.1794  0.5835
   35CHL1   H4A 2522   4.077   3.530   7.109  0.5217  0.5143  1.3298
   35CHL1   H4B 2523   4.083   3.358   7.116 -2.8717  1.5483 -1.0561
   35CHL1    C5 2524   4.017   3.445   7.309 -0.2403  0.6347 -0.0228
   35CHL1    C6 2525   3.934   3.337   7.341  0.0271 -0.2418  0.0614
   35CHL1    H6 2526   3.919   3.256   7.268  2.4659 -1.8173  1.1960
   35CHL1    C7 2527   3.850   3.340   7.466  0.9982  0.0137  0.8824
   35CHL1   H7A 2528   3.746   3.324   7.432  0.8211  0.3362  1.2708
   35CHL1   H7B 2529   3.875   3.251   7.528 -1.3101 -0.0395  1.8167
   35CHL1    C8 2530   3.849   3.467   7.544 -0.3610  0.0120 -0.6537
   35CHL1    H8 2531   3.784   3.539   7.491  1.0623  1.1026 -0.9757
   35CHL1   C14 2532   3.798   3.452   7.689 -0.0865 -0.5785 -0.0115
   35CHL1   H14 2533   3.871   3.383   7.737 -0.7826 -0.1764  1.6736
   35CHL1   C15 2534   3.666   3.379   7.707 -0.2651 -0.0295  0.2971
   35CHL1  H15A 2535   3.585   3.440   7.662  1.4345  3.5900  1.7338
   35CHL1  H15B 2536   3.662   3.273   7.673 -0.1280  0.1607 -0.3140
   35CHL1   C16 2537   3.631   3.394   7.858  0.3543 -1.2413 -0.2478
   35CHL1  H16A 2538   3.524   3.421   7.868  0.6602 -0.5371  1.3835
   35CHL1  H16B 2539   3.650   3.301   7.916  0.3400  0.1977  2.2009
   35CHL1   C17 2540   3.715   3.519   7.910  0.0105  1.3134  0.2969
   35CHL1   H17 2541   3.805   3.486   7.967 -0.1760 -0.3088 -0.2923
   35CHL1   C13 2542   3.782   3.579   7.784 -0.2710  0.5533  0.2631
   35CHL1   C18 2543   3.682   3.683   7.720 -1.1409  0.1949 -0.2217
   35CHL1  H18A 2544   3.714   3.706   7.616  1.5280  1.0036  0.6866
   35CHL1  H18B 2545   3.575   3.652   7.718 -1.7504  2.1498 -1.2217
   35CHL1  H18C 2546   3.686   3.774   7.784  1.9212  0.1464 -0.2049
   35CHL1   C12 2547   3.925   3.632   7.791  0.0289 -0.0088 -0.0348
   35CHL1  H12A 2548   3.921   3.734   7.835 -0.7214 -0.4976  1.0959
   35CHL1  H12B 2549   3.982   3.558   7.852 -2.1960 -2.0942 -0.3774
   35CHL1   C11 2550   3.991   3.646   7.652 -0.4779  0.1289  0.4214
   35CHL1  H11A 2551   3.928   3.725   7.605 -0.7548 -0.8124 -0.8410
   35CHL1  H11B 2552   4.089   3.694   7.667 -0.0524 -0.9962  1.4516
   35CHL1    C9 2553   3.984   3.524   7.556 -0.2574 -0.0512 -0.4400
   35CHL1    H9 2554   4.051   3.454   7.610  1.6377  1.4993 -0.6524
   35CHL1   C10 2555   4.053   3.556   7.415 -0.6811  0.6455  0.9452
   35CHL1   C19 2556   4.002   3.689   7.365  0.2652  0.1582 -0.5272
   35CHL1  H19A 2557   4.027   3.697   7.257 -2.0547 -2.0373 -1.3087
   35CHL1  H19B 2558   3.892   3.698   7.371  0.2646 -0.4391  0.7429
   35CHL1  H19C 2559   4.050   3.768   7.427  1.4328 -1.0560  0.1791
   35CHL1    C1 2560   4.216   3.568   7.432 -0.1867  0.4562  0.1561
   35CHL1   H1A 2561   4.241   3.646   7.507  0.2548 -1.4831  2.1689
   35CHL1   H1B 2562   4.243   3.476   7.489  0.1674  1.1595  1.1486
   35CHL1    C2 2563   4.284   3.591   7.299  0.1767  0.4596 -0.1345
   35CHL1   H2A 2564   4.393   3.599   7.314  0.7942 -4.7966 -0.0434
   35CHL1   H2B 2565   4.241   3.677   7.243 -1.2951 -0.1328  0.0256
   35CHL1   C20 2566   3.630   3.601   8.010 -0.2560 -1.0034  1.1784
   35CHL1   H20 2567   3.538   3.634   7.959 -0.7595 -0.6614  2.2853
   35CHL1   C21 2568   3.708   3.724   8.062  0.1958 -0.2641  0.4178
   35CHL1  H21A 2569   3.659   3.766   8.152 -0.3187  0.1568 -0.0538
   35CHL1  H21B 2570   3.718   3.806   7.988  0.4814 -1.0001 -0.3714
   35CHL1  H21C 2571   3.812   3.688   8.077  0.7216 -0.3337 -2.8107
   35CHL1   C22 2572   3.597   3.516   8.139 -0.1064  0.7839 -0.6070
   35CHL1  H22A 2573   3.555   3.419   8.106 -2.0637  1.0074  1.0409
   35CHL1  H22B 2574   3.686   3.506   8.204  0.3416  1.5547 -1.0890
   35CHL1   C23 2575   3.485   3.571   8.232  0.6394 -0.0742 -0.8405
   35CHL1  H23A 2576   3.526   3.657   8.288 -0.2927 -0.4663  0.5125
   35CHL1  H23B 2577   3.390   3.594   8.178  0.9177 -1.3204 -1.9181
   35CHL1   C24 2578   3.444   3.463   8.343 -0.6572 -1.0273  0.6318
   35CHL1  H24A 2579   3.424   3.366   8.292  2.7760 -0.2618 -2.6153
   35CHL1  H24B 2580   3.536   3.442   8.402  1.0351 -2.0030 -2.1295
   35CHL1   C25 2581   3.316   3.505   8.421 -0.2532  0.0112  0.3133
   35CHL1   H25 2582   3.234   3.491   8.348  0.7589 -0.1228 -0.8412
   35CHL1   C26 2583   3.287   3.422   8.542 -0.2297 -0.2010 -0.0118
   35CHL1  H26A 2584   3.242   3.328   8.505 -2.6935  0.3700  1.2823
   35CHL1  H26B 2585   3.376   3.408   8.608  0.3012 -2.7710 -1.1686
   35CHL1  H26C 2586   3.209   3.478   8.598  1.7613  1.0941  1.6143
   35CHL1   C27 2587   3.323   3.651   8.467 -0.4495  0.1316 -0.5911
   35CHL1  H27A 2588   3.222   3.678   8.506  0.0221  0.3619  0.5060
   35CHL1  H27B 2589   3.342   3.724   8.385  1.5413  1.4032  0.9242
   35CHL1  H27C 2590   3.383   3.665   8.558 -0.5648  0.8196 -0.6124
   36CHL1    C3 2591   0.534   4.706   7.255 -0.2950  0.1144  0.4996
   36CHL1    H3 2592   0.524   4.816   7.264 -0.7858  0.2877 -1.6412
   36CHL1    O3 2593   0.602   4.674   7.135 -0.0673 -0.0279 -0.5113
   36CHL1   H3' 2594   0.588   4.580   7.127 -1.5213  0.1159 -0.0183
   36CHL1    C4 2595   0.600   4.639   7.378 -0.8261  0.3443  0.4031
   36CHL1   H4A 2596   0.586   4.530   7.362 -1.7362  0.0150  2.9017
   36CHL1   H4B 2597   0.703   4.679   7.374 -0.3424 -0.6897  1.7310
   36CHL1    C5 2598   0.534   4.681   7.510 -0.7648  0.1389  0.4084
   36CHL1    C6 2599   0.601   4.749   7.604  0.0036  0.2156  0.1875
   36CHL1    H6 2600   0.706   4.777   7.592 -0.1150  0.4284 -0.3908
   36CHL1    C7 2601   0.542   4.789   7.731 -0.3641  0.6166  0.0069
   36CHL1   H7A 2602   0.618   4.761   7.807 -1.9984  0.5849  1.6705
   36CHL1   H7B 2603   0.530   4.900   7.735  0.5504  0.8667 -2.3316
   36CHL1    C8 2604   0.406   4.724   7.762  0.1666  0.2573  0.1383
   36CHL1    H8 2605   0.426   4.620   7.794 -1.0438  0.5730  2.0644
   36CHL1   C14 2606   0.339   4.806   7.864  0.5249  0.4331 -0.2936
   36CHL1   H14 2607   0.322   4.906   7.817 -1.7798  1.2351  2.0336
   36CHL1   C15 2608   0.427   4.837   7.983 -0.0063 -0.7162  0.3657
   36CHL1  H15A 2609   0.481   4.744   8.014  2.6846 -0.0744 -1.9604
   36CHL1  H15B 2610   0.505   4.913   7.963  0.6660 -1.7240 -0.9675
   36CHL1   C16 2611   0.327   4.890   8.085  0.0615 -0.2511 -0.1770
   36CHL1  H16A 2612   0.337   4.822   8.172 -0.1236  0.1370  0.1541
   36CHL1  H16B 2613   0.339   4.993   8.126  0.0857 -1.1164  2.1621
   36CHL1   C17 2614   0.186   4.865   8.023  0.0557 -0.4000  0.8639
   36CHL1   H17 2615   0.158   4.957   7.967  3.7978  0.9109  0.8259
   36CHL1   C13 2616   0.202   4.753   7.916 -0.3279 -1.0913  0.0226
   36CHL1   C18 2617   0.217   4.625   7.988 -0.1831  0.3181  0.8197
   36CHL1  H18A 2618   0.273   4.559   7.919 -0.9213 -1.6385  1.9869
   36CHL1  H18B 2619   0.281   4.640   8.077 -1.4460  1.1583  1.6197
   36CHL1  H18C 2620   0.122   4.583   8.029  0.7845 -0.4902  2.3066
   36CHL1   C12 2621   0.105   4.745   7.798 -0.7090  0.8339  0.6136
   36CHL1  H12A 2622   0.004   4.703   7.819 -0.1825  0.3993  2.5258
   36CHL1  H12B 2623   0.090   4.848   7.760 -0.1200  1.5212  2.1456
   36CHL1   C11 2624   0.168   4.665   7.680  0.2572 -0.3566 -1.0893
   36CHL1  H11A 2625   0.173   4.560   7.714 -0.1643 -0.4148 -1.2005
   36CHL1  H11B 2626   0.103   4.688   7.592  0.0350  0.9398 -0.6152
   36CHL1    C9 2627   0.311   4.720   7.641  0.5938  0.0852  0.2929
   36CHL1    H9 2628   0.297   4.821   7.597 -1.4651  0.0117  0.6568
   36CHL1   C10 2629   0.378   4.655   7.513 -0.1006 -0.0932  0.2036
   36CHL1   C19 2630   0.369   4.498   7.526 -0.4726 -0.0226  0.2710
   36CHL1  H19A 2631   0.437   4.443   7.458  0.3749  2.3404 -0.8808
   36CHL1  H19B 2632   0.391   4.462   7.629 -4.0150 -0.7774  0.9149
   36CHL1  H19C 2633   0.265   4.468   7.500 -0.4244 -1.8852  1.9734
   36CHL1    C1 2634   0.319   4.710   7.380 -0.0229  0.1143  0.9013
   36CHL1   H1A 2635   0.215   4.671   7.371 -1.2913  2.8165  2.4323
   36CHL1   H1B 2636   0.317   4.821   7.379  0.1533  0.1311 -1.0048
   36CHL1    C2 2637   0.396   4.662   7.251 -0.2636  0.0959 -0.2711
   36CHL1   H2A 2638   0.350   4.685   7.152  1.3911  0.3245 -1.0231
   36CHL1   H2B 2639   0.388   4.552   7.257  0.1669 -0.0782 -2.2162
   36CHL1   C20 2640   0.075   4.851   8.138 -0.5527  0.3382  0.1762
   36CHL1   H20 2641   0.095   4.758   8.196 -0.9412  1.9595  3.0612
   36CHL1   C21 2642  -0.059   4.832   8.069 -0.2700  0.2020 -0.2384
   36CHL1  H21A 2643  -0.149   4.829   8.135 -0.7867  1.6306 -0.8443
   36CHL1  H21B 2644  -0.069   4.741   8.007  2.7079 -0.9663  0.8073
   36CHL1  H21C 2645  -0.073   4.922   8.006 -0.4368  0.4345  0.1215
   36CHL1   C22 2646   0.064   4.967   8.239  0.0517  0.5285 -0.6263
   36CHL1  H22A 2647   0.160   5.019   8.259 -0.8601  1.6866  0.9703
   36CHL1  H22B 2648  -0.016   5.038   8.208 -0.6771  0.8692  1.7856
   36CHL1   C23 2649   0.017   4.927   8.383 -1.0263  0.5112  0.2203
   36CHL1  H23A 2650  -0.010   5.021   8.435 -1.2415  1.0409 -0.8043
   36CHL1  H23B 2651  -0.069   4.859   8.365 -0.6445  0.0057  0.3132
   36CHL1   C24 2652   0.129   4.864   8.469  0.3310  0.2577  0.1326
   36CHL1  H24A 2653   0.152   4.760   8.436 -0.5150  0.0156  0.2935
   36CHL1  H24B 2654   0.218   4.928   8.448  0.6939 -0.5209 -0.7548
   36CHL1   C25 2655   0.089   4.864   8.623 -0.5023 -0.2695  0.0412
   36CHL1   H25 2656   0.083   4.971   8.651 -2.7648 -0.7742  1.7674
   36CHL1   C26 2657  -0.047   4.811   8.642  0.0077  0.7479 -0.1429
   36CHL1  H26A 2658  -0.063   4.791   8.750  1.1214 -0.5589 -0.1917
   36CHL1  H26B 2659  -0.123   4.884   8.605 -0.9409 -0.0512  0.1745
   36CHL1  H26C 2660  -0.053   4.716   8.584  2.9916 -1.5603  2.9377
   36CHL1   C27 2661   0.187   4.794   8.707 -0.2607  1.1160  0.0994
   36CHL1  H27A 2662   0.180   4.684   8.696  1.8379  0.8777  0.6911
   36CHL1  H27B 2663   0.291   4.813   8.671 -0.1776 -2.0667 -1.6552
   36CHL1  H27C 2664   0.187   4.820   8.815  1.1236 -0.2370  0.4636
   37CHL1    C3 2665   3.462   4.436   6.991 -0.4692  0.1475  0.1147
   37CHL1    H3 2666   3.482   4.327   6.997  1.1837  0.4792  1.4556
   37CHL1    O3 2667   3.487   4.473   6.862  0.3977 -0.3943  0.4063
   37CHL1   H3' 2668   3.472   4.568   6.871  0.3722 -0.4723  1.2210
   37CHL1    C4 2669   3.317   4.469   7.030  0.4045 -0.3853 -0.2526
   37CHL1   H4A 2670   3.298   4.576   7.005  2.5054 -0.0656 -0.6581
   37CHL1   H4B 2671   3.247   4.419   6.959  0.6538 -1.9347  0.5430
   37CHL1    C5 2672   3.286   4.445   7.173  0.6313  0.8173 -0.8566
   37CHL1    C6 2673   3.187   4.359   7.207 -0.2521 -0.0969 -0.2087
   37CHL1    H6 2674   3.124   4.311   7.130  1.3719 -0.6513 -1.2297
   37CHL1    C7 2675   3.151   4.331   7.353  0.2569  0.3071 -0.4107
   37CHL1   H7A 2676   3.042   4.339   7.373  0.3300  1.5551 -0.4383
   37CHL1   H7B 2677   3.183   4.232   7.390 -2.0445  0.1187  1.2988
   37CHL1    C8 2678   3.224   4.434   7.449  0.3584  0.0409 -0.4874
   37CHL1    H8 2679   3.169   4.527   7.424  2.6850  0.8035 -3.1846
   37CHL1   C14 2680   3.206   4.386   7.596  1.1425  0.2203 -0.1608
   37CHL1   H14 2681   3.257   4.287   7.600 -1.7430 -1.4182 -0.8042
   37CHL1   C15 2682   3.064   4.355   7.643  0.3555  0.0801 -0.3186
   37CHL1  H15A 2683   3.000   4.440   7.611  0.2235  0.3410  0.6078
   37CHL1  H15B 2684   3.019   4.265   7.597 -2.0018  1.2189 -0.3540
   37CHL1   C16 2685   3.068   4.355   7.796  0.0656 -0.2187  0.0438
   37CHL1  H16A 2686   3.001   4.436   7.830 -0.0433  1.4187 -3.6500
   37CHL1  H16B 2687   3.057   4.251   7.835  2.8784 -2.1076 -3.5658
   37CHL1   C17 2688   3.216   4.391   7.827 -0.7792 -0.4124  0.6421
   37CHL1   H17 2689   3.268   4.293   7.815  0.0641  0.2712 -1.9201
   37CHL1   C13 2690   3.268   4.477   7.703  0.1824 -0.0871 -0.3870
   37CHL1   C18 2691   3.195   4.615   7.709 -0.3505 -0.0309  0.0443
   37CHL1  H18A 2692   3.203   4.656   7.606  0.6686 -1.2296 -0.3790
   37CHL1  H18B 2693   3.090   4.597   7.740 -0.9016  3.0596  0.2910
   37CHL1  H18C 2694   3.246   4.682   7.781 -2.5434  2.1133 -0.2790
   37CHL1   C12 2695   3.417   4.488   7.672 -0.2897 -0.2806 -0.5855
   37CHL1  H12A 2696   3.475   4.549   7.744 -0.8842 -1.1819  0.6957
   37CHL1  H12B 2697   3.461   4.387   7.677  1.6562  0.4815 -1.3065
   37CHL1   C11 2698   3.442   4.537   7.526  0.8189  0.1006  0.7063
   37CHL1  H11A 2699   3.412   4.644   7.528  0.3754 -0.0397  1.8176
   37CHL1  H11B 2700   3.549   4.532   7.495  0.8618  2.0002  0.4289
   37CHL1    C9 2701   3.367   4.448   7.417 -0.3905 -0.0843  0.5857
   37CHL1    H9 2702   3.409   4.346   7.434 -0.1439  0.0702  0.9174
   37CHL1   C10 2703   3.385   4.507   7.275  0.3287 -0.9192 -0.0118
   37CHL1   C19 2704   3.361   4.663   7.272 -0.4566  0.1370  0.6920
   37CHL1  H19A 2705   3.277   4.710   7.327  1.5048  5.6403 -0.3073
   37CHL1  H19B 2706   3.443   4.724   7.315 -1.2238  1.9553 -0.2989
   37CHL1  H19C 2707   3.360   4.691   7.165  0.2236  1.8056  1.0959
   37CHL1    C1 2708   3.531   4.476   7.232 -0.4125 -0.2459  0.3896
   37CHL1   H1A 2709   3.608   4.531   7.290 -0.8551 -0.3205  1.0703
   37CHL1   H1B 2710   3.545   4.366   7.243  0.4081 -0.2112 -0.2558
   37CHL1    C2 2711   3.557   4.511   7.082  0.7135 -0.7457  0.0694
   37CHL1   H2A 2712   3.661   4.488   7.051  0.2315 -0.0011 -2.3825
   37CHL1   H2B 2713   3.551   4.621   7.062  2.7294 -0.8677 -1.4252
   37CHL1   C20 2714   3.235   4.438   7.968  0.1019 -1.0287  0.0650
   37CHL1   H20 2715   3.190   4.539   7.980 -0.2842 -1.1412 -0.4194
   37CHL1   C21 2716   3.385   4.439   7.994 -0.3644  0.5409  0.5485
   37CHL1  H21A 2717   3.439   4.530   7.961  1.9558  0.0199  2.5472
   37CHL1  H21B 2718   3.430   4.343   7.959  0.8976  0.7869  1.4083
   37CHL1  H21C 2719   3.405   4.438   8.104 -1.6429  0.3899  0.7965
   37CHL1   C22 2720   3.163   4.340   8.075 -0.8817 -0.1294  0.7500
   37CHL1  H22A 2721   3.059   4.321   8.040 -0.1052 -1.7987 -0.8191
   37CHL1  H22B 2722   3.215   4.243   8.060 -0.7487  0.1529 -0.7855
   37CHL1   C23 2723   3.172   4.380   8.218 -0.0897 -0.5409 -0.0585
   37CHL1  H23A 2724   3.082   4.329   8.259 -0.8974  0.9622  0.1166
   37CHL1  H23B 2725   3.263   4.334   8.262  1.6911  0.3124 -2.6643
   37CHL1   C24 2726   3.156   4.525   8.260 -0.0333  0.3333  0.3606
   37CHL1  H24A 2727   3.223   4.597   8.208 -0.2237 -0.1034 -0.5060
   37CHL1  H24B 2728   3.049   4.553   8.244  0.3621  1.4076 -0.6145
   37CHL1   C25 2729   3.192   4.542   8.410  0.0253 -0.5611  0.1405
   37CHL1   H25 2730   3.201   4.648   8.441 -0.1908 -1.2670  2.9028
   37CHL1   C26 2731   3.091   4.482   8.504  0.1340 -0.0536 -0.1922
   37CHL1  H26A 2732   2.991   4.496   8.458  0.6152  1.0288 -0.9565
   37CHL1  H26B 2733   3.097   4.372   8.521 -1.2816 -0.3645 -1.4632
   37CHL1  H26C 2734   3.088   4.543   8.596 -0.2990 -1.1272  0.5260
   37CHL1   C27 2735   3.329   4.492   8.442  0.1787 -0.5189 -0.3712
   37CHL1  H27A 2736   3.356   4.522   8.545 -1.7127 -1.3826  0.4252
   37CHL1  H27B 2737   3.340   4.381   8.452  1.5875 -0.1889  3.0108
   37CHL1  H27C 2738   3.412   4.533   8.382 -0.9990  2.7194  0.0526
   38CHL1    C3 2739   5.578   1.501   6.641 -0.4976 -0.0433 -0.1622
   38CHL1    H3 2740   5.688   1.488   6.656 -0.6347  0.4566  1.4633
   38CHL1    O3 2741   5.566   1.546   6.508 -0.4088  0.1130  0.4038
   38CHL1   H3' 2742   5.473   1.568   6.508 -0.1767  1.2032  1.5083
   38CHL1    C4 2743   5.503   1.372   6.669 -0.9836  0.0685  0.8819
   38CHL1   H4A 2744   5.396   1.385   6.643 -1.3781  0.4706  2.5938
   38CHL1   H4B 2745   5.554   1.296   6.607 -0.5444 -0.1101  1.4515
   38CHL1    C5 2746   5.515   1.329   6.811 -0.1733  0.4956  0.1149
   38CHL1    C6 2747   5.545   1.203   6.849 -0.5442 -1.0368  0.0897
   38CHL1    H6 2748   5.549   1.131   6.766 -2.4485 -0.6396 -0.3912
   38CHL1    C7 2749   5.540   1.168   6.987 -0.1231  0.9946 -0.0330
   38CHL1   H7A 2750   5.490   1.069   6.984 -1.1215  1.4786  0.2289
   38CHL1   H7B 2751   5.646   1.158   7.018  0.1957  0.2887 -1.2786
   38CHL1    C8 2752   5.480   1.258   7.091  0.2024 -0.2393  0.2639
   38CHL1    H8 2753   5.369   1.260   7.080  0.1465  2.8370  0.4912
   38CHL1   C14 2754   5.512   1.218   7.238 -0.1491  0.1832  0.3583
   38CHL1   H14 2755   5.621   1.237   7.243 -0.3201  1.7033 -0.9541
   38CHL1   C15 2756   5.496   1.074   7.281 -0.4697  0.3489 -0.4027
   38CHL1  H15A 2757   5.394   1.048   7.246 -0.5591  0.9431 -0.5906
   38CHL1  H15B 2758   5.571   1.010   7.229 -1.4327  0.4523 -1.9804
   38CHL1   C16 2759   5.489   1.088   7.436 -0.4830 -0.4709  0.1059
   38CHL1  H16A 2760   5.390   1.045   7.464 -1.1486  0.4037 -0.8139
   38CHL1  H16B 2761   5.573   1.031   7.481 -1.5090 -2.4482 -0.3851
   38CHL1   C17 2762   5.500   1.236   7.472  0.0875 -0.4404 -0.0668
   38CHL1   H17 2763   5.603   1.275   7.483 -0.1691 -0.0460  1.0895
   38CHL1   C13 2764   5.447   1.304   7.344  0.1316  0.6032 -0.3528
   38CHL1   C18 2765   5.290   1.285   7.344 -0.2495 -0.4940  0.0969
   38CHL1  H18A 2766   5.256   1.181   7.363 -1.2556  0.1078  1.9138
   38CHL1  H18B 2767   5.253   1.351   7.425 -2.9709 -2.7877  0.8584
   38CHL1  H18C 2768   5.247   1.315   7.247 -0.8632 -3.4809 -0.6449
   38CHL1   C12 2769   5.495   1.450   7.316 -0.4548 -0.1436  0.8432
   38CHL1  H12A 2770   5.455   1.533   7.379 -2.4753 -1.9967  2.1584
   38CHL1  H12B 2771   5.606   1.458   7.324 -0.4693  0.4695  0.5113
   38CHL1   C11 2772   5.464   1.499   7.170  0.2446  0.8794  0.3958
   38CHL1  H11A 2773   5.353   1.494   7.174  0.2195  1.9212  2.2413
   38CHL1  H11B 2774   5.491   1.604   7.146  0.7442  0.7609  0.4358
   38CHL1    C9 2775   5.524   1.406   7.061  0.0287  0.0153  0.5016
   38CHL1    H9 2776   5.633   1.409   7.085 -0.1269  0.2196  1.1925
   38CHL1   C10 2777   5.489   1.441   6.909  0.6898 -1.1483 -0.1459
   38CHL1   C19 2778   5.335   1.470   6.893 -0.3424  0.0141 -0.5631
   38CHL1  H19A 2779   5.316   1.499   6.787  1.3256 -2.0082 -1.4978
   38CHL1  H19B 2780   5.265   1.390   6.925  0.7222 -0.4361  0.7191
   38CHL1  H19C 2781   5.311   1.554   6.962 -0.8105 -1.6081  1.3201
   38CHL1    C1 2782   5.568   1.575   6.873  0.2637  0.2317  0.1463
   38CHL1   H1A 2783   5.544   1.653   6.949  0.8853 -0.5608  1.1725
   38CHL1   H1B 2784   5.674   1.548   6.890 -0.5245 -2.2076  1.7879
   38CHL1    C2 2785   5.541   1.622   6.725  0.1607  0.3702  0.3548
   38CHL1   H2A 2786   5.601   1.713   6.707  1.0468  0.3156  2.7081
   38CHL1   H2B 2787   5.433   1.644   6.715 -0.2985 -2.0703 -1.0261
   38CHL1   C20 2788   5.433   1.271   7.606 -0.3214 -0.0880 -0.6340
   38CHL1   H20 2789   5.326   1.250   7.589 -0.5840  0.6900 -0.0040
   38CHL1   C21 2790   5.461   1.421   7.647 -0.0189  0.0752  0.2296
   38CHL1  H21A 2791   5.415   1.476   7.561 -1.3188 -2.0210 -0.4729
   38CHL1  H21B 2792   5.572   1.428   7.636 -0.0508 -0.7602 -0.8431
   38CHL1  H21C 2793   5.424   1.447   7.748  2.7855 -2.4927  2.0862
   38CHL1   C22 2794   5.486   1.186   7.724 -0.0503  0.8775  0.1220
   38CHL1  H22A 2795   5.480   1.077   7.705  0.1900  0.9811 -0.5683
   38CHL1  H22B 2796   5.595   1.200   7.743 -0.1437  1.0838  0.5136
   38CHL1   C23 2797   5.411   1.200   7.856  1.0416  0.5779 -0.2233
   38CHL1  H23A 2798   5.431   1.303   7.892  2.0769  0.0110  0.8905
   38CHL1  H23B 2799   5.302   1.188   7.838  1.0695 -0.5826  0.2464
   38CHL1   C24 2800   5.461   1.110   7.967 -0.0085  0.6331 -0.1460
   38CHL1  H24A 2801   5.464   1.002   7.940  2.2812 -0.0006  2.2048
   38CHL1  H24B 2802   5.569   1.133   7.981  0.4140 -1.0338 -0.4913
   38CHL1   C25 2803   5.389   1.120   8.101  0.2357 -0.0897  0.6145
   38CHL1   H25 2804   5.448   1.067   8.179  2.7370 -0.8703 -1.6266
   38CHL1   C26 2805   5.357   1.266   8.141 -0.0856 -0.3716 -0.3227
   38CHL1  H26A 2806   5.318   1.262   8.245  0.6018  0.8207  0.0075
   38CHL1  H26B 2807   5.448   1.330   8.150  0.3411 -1.1312  1.2801
   38CHL1  H26C 2808   5.276   1.291   8.070 -1.5936 -3.9272 -0.0653
   38CHL1   C27 2809   5.253   1.040   8.098  0.2028  0.4406  0.1868
   38CHL1  H27A 2810   5.286   0.939   8.064  0.1769  0.4249  0.2087
   38CHL1  H27B 2811   5.211   1.026   8.200 -3.3708 -0.8081 -1.3100
   38CHL1  H27C 2812   5.177   1.082   8.029  0.2618 -0.4595 -0.4541
   39CHL1    C3 2813   5.673   5.265   6.958  0.5328 -0.4499  0.1912
   39CHL1    H3 2814   5.609   5.355   6.972  0.6995 -0.3995  0.6423
   39CHL1    O3 2815   5.709   5.243   6.819 -0.0290  0.2959 -0.0094
   39CHL1   H3' 2816   5.770   5.316   6.805  1.6723 -0.8141  1.2479
   39CHL1    C4 2817   5.812   5.265   7.032  0.0539  0.1083 -0.7137
   39CHL1   H4A 2818   5.864   5.169   7.011 -2.0575 -2.1374  3.2297
   39CHL1   H4B 2819   5.875   5.351   6.999  1.3636 -0.0116  1.3388
   39CHL1    C5 2820   5.799   5.274   7.179 -0.1592  0.2293 -0.3919
   39CHL1    C6 2821   5.863   5.368   7.251 -0.0439  0.4628 -0.3775
   39CHL1    H6 2822   5.912   5.457   7.208 -1.5242  2.0872  1.0846
   39CHL1    C7 2823   5.864   5.372   7.405 -0.0103 -0.4246 -0.1312
   39CHL1   H7A 2824   5.968   5.378   7.445 -0.0753 -2.4825  0.4655
   39CHL1   H7B 2825   5.811   5.466   7.429  1.8858  0.7642 -0.3813
   39CHL1    C8 2826   5.796   5.251   7.469 -0.5636 -0.1190 -0.3694
   39CHL1    H8 2827   5.868   5.167   7.464 -1.3826 -0.8399 -0.4813
   39CHL1   C14 2828   5.757   5.275   7.620 -0.5028  0.7012  0.4595
   39CHL1   H14 2829   5.666   5.339   7.620 -0.7584  0.6117 -3.6695
   39CHL1   C15 2830   5.858   5.353   7.713  0.1109  0.7794  0.3464
   39CHL1  H15A 2831   5.966   5.330   7.698  0.4715  0.6433  2.7090
   39CHL1  H15B 2832   5.849   5.463   7.702  1.8724  0.7714 -1.7223
   39CHL1   C16 2833   5.830   5.298   7.854  1.0808  0.4824 -0.1697
   39CHL1  H16A 2834   5.910   5.231   7.892 -0.5652 -1.5331 -0.0899
   39CHL1  H16B 2835   5.811   5.370   7.936 -2.9678 -0.7135  0.1618
   39CHL1   C17 2836   5.701   5.209   7.832 -0.3982  0.8634  0.1461
   39CHL1   H17 2837   5.615   5.278   7.816 -1.4378 -0.2480  0.8599
   39CHL1   C13 2838   5.713   5.149   7.693 -0.8349 -0.6987  0.3967
   39CHL1   C18 2839   5.816   5.035   7.696 -0.3481  0.1160  0.1672
   39CHL1  H18A 2840   5.915   5.084   7.704  0.2033 -0.9561 -0.0181
   39CHL1  H18B 2841   5.807   4.963   7.780  0.9130 -1.2420 -0.8123
   39CHL1  H18C 2842   5.819   4.981   7.599 -0.8514  0.1142  0.1508
   39CHL1   C12 2843   5.583   5.107   7.622  1.1073  0.2403 -0.3623
   39CHL1  H12A 2844   5.554   5.009   7.666  1.9831 -0.7023 -1.8006
   39CHL1  H12B 2845   5.503   5.180   7.643 -0.6282 -1.4419 -0.8690
   39CHL1   C11 2846   5.612   5.092   7.475  0.0223 -0.2579 -0.3389
   39CHL1  H11A 2847   5.681   5.005   7.465  1.9186  1.2415 -0.7495
   39CHL1  H11B 2848   5.515   5.063   7.429 -0.4490 -0.3706  0.7016
   39CHL1    C9 2849   5.676   5.211   7.393 -0.4958  0.1459 -0.0008
   39CHL1    H9 2850   5.600   5.291   7.387  0.7087  1.2779 -0.7441
   39CHL1   C10 2851   5.710   5.173   7.247  0.2008  0.5208 -0.0111
   39CHL1   C19 2852   5.774   5.028   7.241 -0.0570 -0.2044  0.5996
   39CHL1  H19A 2853   5.702   4.951   7.278  0.9423 -1.3197  0.2801
   39CHL1  H19B 2854   5.798   5.015   7.134 -0.7886 -0.2361  0.4343
   39CHL1  H19C 2855   5.869   5.024   7.299  0.1700 -2.1524  0.1853
   39CHL1    C1 2856   5.578   5.162   7.161 -0.3123 -0.2058 -0.0245
   39CHL1   H1A 2857   5.526   5.071   7.196 -1.2439 -0.8289 -2.7342
   39CHL1   H1B 2858   5.511   5.246   7.189 -1.9627 -1.4160 -0.2083
   39CHL1    C2 2859   5.589   5.147   7.008  0.9049 -0.7010 -0.0908
   39CHL1   H2A 2860   5.488   5.136   6.964 -1.5080 -1.1330  4.8400
   39CHL1   H2B 2861   5.647   5.058   6.977 -0.6768 -1.5161 -0.8217
   39CHL1   C20 2862   5.658   5.106   7.946 -0.8714 -0.7635 -0.2706
   39CHL1   H20 2863   5.647   5.003   7.906 -0.7028 -0.8452 -0.1074
   39CHL1   C21 2864   5.525   5.167   7.992 -0.0121 -0.1264 -1.0459
   39CHL1  H21A 2865   5.445   5.173   7.916 -1.1548  0.8952  0.1820
   39CHL1  H21B 2866   5.536   5.274   8.021 -2.4888 -0.2140  0.5409
   39CHL1  H21C 2867   5.491   5.115   8.084  1.6769  2.3571  1.1214
   39CHL1   C22 2868   5.765   5.093   8.054  0.4555  0.1985 -0.4787
   39CHL1  H22A 2869   5.860   5.065   8.004  0.3403  0.7600 -1.0354
   39CHL1  H22B 2870   5.778   5.195   8.097  0.4959 -0.6421  1.6133
   39CHL1   C23 2871   5.734   4.986   8.160  0.4668 -0.1809 -0.1793
   39CHL1  H23A 2872   5.631   4.999   8.202  1.2241 -1.9823  2.4636
   39CHL1  H23B 2873   5.716   4.891   8.105  0.8469 -0.5009  0.2508
   39CHL1   C24 2874   5.852   4.952   8.254  0.4900  0.3492  0.0990
   39CHL1  H24A 2875   5.930   4.916   8.184  0.1742  1.8516 -1.0731
   39CHL1  H24B 2876   5.891   5.049   8.292  2.1822  0.2374 -1.2514
   39CHL1   C25 2877   5.824   4.860   8.368 -0.4146 -0.3854 -0.7438
   39CHL1   H25 2878   5.735   4.903   8.420 -1.1437 -2.0101 -0.5650
   39CHL1   C26 2879   5.792   4.713   8.323  1.1389 -0.3658  0.5193
   39CHL1  H26A 2880   5.882   4.671   8.274 -0.1431 -1.3887 -1.0374
   39CHL1  H26B 2881   5.745   4.651   8.402 -1.3797 -0.2041 -0.7779
   39CHL1  H26C 2882   5.722   4.711   8.238  1.1809 -1.8624  0.5027
   39CHL1   C27 2883   5.930   4.853   8.479 -0.3452 -0.2122 -0.4777
   39CHL1  H27A 2884   5.887   4.819   8.576 -0.3378 -0.4590 -0.5616
   39CHL1  H27B 2885   6.012   4.787   8.445  0.5945  0.6171  0.1296
   39CHL1  H27C 2886   5.967   4.956   8.497 -0.2991 -0.1588 -0.8767
   40CHL1    C3 2887   2.244   4.425   7.040  0.4350 -0.8606 -0.6199
   40CHL1    H3 2888   2.340   4.475   7.063 -2.1749  3.3391  2.6124
   40CHL1    O3 2889   2.250   4.365   6.914  0.0836 -0.0247 -0.2534
   40CHL1   H3' 2890   2.245   4.439   6.853  1.3744 -1.3144 -2.0270
   40CHL1    C4 2891   2.209   4.324   7.145 -0.3442  0.0356  0.2946
   40CHL1   H4A 2892   2.126   4.260   7.109 -1.0947  0.6706  0.8632
   40CHL1   H4B 2893   2.298   4.259   7.158  1.2426  2.3698  1.9305
   40CHL1    C5 2894   2.174   4.383   7.279  0.4047  0.0255  0.5201
   40CHL1    C6 2895   2.237   4.346   7.385 -0.1025  0.7075 -0.0550
   40CHL1    H6 2896   2.313   4.269   7.367  1.1720  1.8743  0.1943
   40CHL1    C7 2897   2.197   4.396   7.522  0.0002 -0.4226 -0.2793
   40CHL1   H7A 2898   2.194   4.315   7.597  2.0153  1.2022  1.6744
   40CHL1   H7B 2899   2.268   4.474   7.555  0.3061 -1.4537  1.6556
   40CHL1    C8 2900   2.060   4.465   7.536 -0.2804 -0.3824 -0.6769
   40CHL1    H8 2901   1.987   4.382   7.543  1.0241 -1.6041 -1.0103
   40CHL1   C14 2902   2.045   4.546   7.667  0.6551 -0.0545 -0.4694
   40CHL1   H14 2903   2.131   4.616   7.662 -0.3699  1.4628  1.6634
   40CHL1   C15 2904   2.062   4.460   7.796 -0.7657 -0.0416 -0.3575
   40CHL1  H15A 2905   2.022   4.357   7.801  1.0293 -0.7947 -0.6937
   40CHL1  H15B 2906   2.170   4.452   7.821 -1.2835 -0.9891  1.8080
   40CHL1   C16 2907   1.994   4.550   7.900  0.7423 -0.5385 -0.1241
   40CHL1  H16A 2908   1.912   4.504   7.958  1.4314 -0.6887  0.7677
   40CHL1  H16B 2909   2.070   4.589   7.972  1.8713 -0.0840 -1.5183
   40CHL1   C17 2910   1.922   4.671   7.832  0.2097  0.2364  0.7484
   40CHL1   H17 2911   1.996   4.754   7.841 -1.0487  1.3287  1.3743
   40CHL1   C13 2912   1.909   4.614   7.687  0.3147  0.4028  0.3322
   40CHL1   C18 2913   1.798   4.507   7.681 -0.3768  0.1506  0.8038
   40CHL1  H18A 2914   1.819   4.427   7.755  1.5025 -0.1470  0.0022
   40CHL1  H18B 2915   1.698   4.548   7.710 -0.8370  0.2822 -0.8927
   40CHL1  H18C 2916   1.791   4.457   7.583  0.9582 -0.2311  0.8817
   40CHL1   C12 2917   1.897   4.714   7.572  0.5747 -0.1639  0.1261
   40CHL1  H12A 2918   1.790   4.743   7.577  0.5039 -0.4029  0.0433
   40CHL1  H12B 2919   1.959   4.805   7.578 -0.6442  0.6407  0.8033
   40CHL1   C11 2920   1.923   4.647   7.433  0.6401  0.1255 -0.3500
   40CHL1  H11A 2921   1.825   4.599   7.414 -0.2151  2.3235 -1.8817
   40CHL1  H11B 2922   1.932   4.724   7.354 -0.5607  0.5115 -0.1328
   40CHL1    C9 2923   2.044   4.554   7.425  0.2316 -1.0227 -0.5658
   40CHL1    H9 2924   2.131   4.624   7.434 -0.0415 -0.7076 -0.3426
   40CHL1   C10 2925   2.062   4.483   7.286 -0.2963 -0.7340 -0.4963
   40CHL1   C19 2926   1.926   4.420   7.240 -0.4848 -0.1448 -0.2527
   40CHL1  H19A 2927   1.857   4.502   7.212 -0.0154  0.4591  0.3367
   40CHL1  H19B 2928   1.934   4.353   7.152  1.1358 -2.1134  1.2809
   40CHL1  H19C 2929   1.877   4.365   7.323  1.2003  0.2548  1.0532
   40CHL1    C1 2930   2.109   4.589   7.180  0.4521 -0.4503  1.7290
   40CHL1   H1A 2931   2.026   4.663   7.173  2.2221  1.5514  0.7204
   40CHL1   H1B 2932   2.203   4.640   7.208 -0.1054  1.6077  0.1220
   40CHL1    C2 2933   2.135   4.538   7.036  0.8356 -0.2715 -0.1970
   40CHL1   H2A 2934   2.171   4.623   6.974 -0.2403  1.6088  1.6267
   40CHL1   H2B 2935   2.038   4.496   7.003 -0.6451  1.3649  1.8109
   40CHL1   C20 2936   1.788   4.722   7.900  0.2381 -0.9543  0.1182
   40CHL1   H20 2937   1.706   4.647   7.892 -0.1451 -0.4523 -0.8452
   40CHL1   C21 2938   1.731   4.847   7.829 -0.2040 -0.2265 -0.1291
   40CHL1  H21A 2939   1.702   4.828   7.723 -1.1362  1.8121 -0.2935
   40CHL1  H21B 2940   1.802   4.931   7.815 -0.3121 -0.1568 -0.2619
   40CHL1  H21C 2941   1.644   4.893   7.880  0.7550  4.8603 -2.4176
   40CHL1   C22 2942   1.819   4.755   8.048 -0.3657 -0.0163 -0.7840
   40CHL1  H22A 2943   1.861   4.667   8.102  1.9830  1.8693  0.7223
   40CHL1  H22B 2944   1.888   4.843   8.054  0.8258 -0.9875  0.5008
   40CHL1   C23 2945   1.697   4.811   8.131 -0.8332 -0.0431  0.5581
   40CHL1  H23A 2946   1.658   4.906   8.090 -1.8518 -1.1993 -1.3339
   40CHL1  H23B 2947   1.610   4.742   8.125 -1.9749  1.2534  1.6420
   40CHL1   C24 2948   1.738   4.823   8.279  0.1173  0.1779 -0.8786
   40CHL1  H24A 2949   1.730   4.717   8.312 -1.7974  0.3119 -0.7842
   40CHL1  H24B 2950   1.837   4.871   8.289 -0.6384  1.6266 -0.1199
   40CHL1   C25 2951   1.641   4.906   8.378 -0.4901  0.2365  0.4824
   40CHL1   H25 2952   1.640   5.008   8.332 -0.5037 -0.4229 -1.0471
   40CHL1   C26 2953   1.487   4.868   8.367 -0.4968  0.6714 -0.2280
   40CHL1  H26A 2954   1.449   4.861   8.263  1.5790 -2.5356 -0.9253
   40CHL1  H26B 2955   1.467   4.764   8.400 -0.5982  0.3685 -1.2046
   40CHL1  H26C 2956   1.422   4.926   8.436 -0.6293 -0.6744  0.8080
   40CHL1   C27 2957   1.703   4.920   8.520  0.0942  0.2606 -0.1638
   40CHL1  H27A 2958   1.809   4.954   8.512 -0.4880  2.4629  0.7572
   40CHL1  H27B 2959   1.664   4.998   8.588  1.6596  0.6389  0.3495
   40CHL1  H27C 2960   1.703   4.821   8.570  0.7471 -1.4569 -3.3267
   41CHL1    C3 2961   2.432   4.776   7.016  0.3363  0.0363  0.3993
   41CHL1    H3 2962   2.352   4.703   7.040 -0.5315  0.6363 -0.5535
   41CHL1    O3 2963   2.463   4.768   6.879  0.0253 -0.0720 -0.1044
   41CHL1   H3' 2964   2.552   4.803   6.871  0.5315 -0.6132  2.4379
   41CHL1    C4 2965   2.374   4.915   7.046 -0.3891 -0.7329  0.2132
   41CHL1   H4A 2966   2.453   4.984   7.012 -3.1051  2.5696  0.0943
   41CHL1   H4B 2967   2.290   4.939   6.977  0.6229  0.3425 -0.6835
   41CHL1    C5 2968   2.347   4.940   7.196 -0.1563  0.1049  0.7386
   41CHL1    C6 2969   2.223   4.978   7.235  0.0522 -0.3156 -0.4350
   41CHL1    H6 2970   2.147   4.992   7.157 -0.7338 -0.0954  0.3619
   41CHL1    C7 2971   2.174   4.997   7.373 -0.9958  0.0482 -0.3319
   41CHL1   H7A 2972   2.116   5.091   7.386 -0.2552  0.4228  0.3841
   41CHL1   H7B 2973   2.106   4.914   7.401  1.5539 -1.9307  0.4480
   41CHL1    C8 2974   2.292   4.998   7.471 -0.3151  0.1172  0.1794
   41CHL1    H8 2975   2.335   5.100   7.466 -0.3377  0.2579  2.1524
   41CHL1   C14 2976   2.249   4.984   7.619 -0.1138 -0.5411  0.5066
   41CHL1   H14 2977   2.215   4.879   7.629  1.9845 -1.3156  0.0152
   41CHL1   C15 2978   2.144   5.079   7.672  0.1405  0.6064 -0.1820
   41CHL1  H15A 2979   2.171   5.182   7.639  1.8147  0.2579  0.0408
   41CHL1  H15B 2980   2.046   5.052   7.628  0.3270 -1.7137  0.7042
   41CHL1   C16 2981   2.164   5.072   7.824 -1.1267 -0.1189 -0.1353
   41CHL1  H16A 2982   2.185   5.176   7.857  2.3364 -0.2475 -1.5462
   41CHL1  H16B 2983   2.069   5.037   7.869 -0.7548 -0.3669  0.4635
   41CHL1   C17 2984   2.294   4.982   7.854 -0.1011  0.9117 -0.0756
   41CHL1   H17 2985   2.264   4.875   7.860 -1.5145  1.2721 -0.1772
   41CHL1   C13 2986   2.369   4.982   7.721 -0.3035 -0.1001 -0.2428
   41CHL1   C18 2987   2.462   5.115   7.713 -0.1948  0.0977 -0.1421
   41CHL1  H18A 2988   2.492   5.117   7.606  0.1137  2.0248 -0.0402
   41CHL1  H18B 2989   2.411   5.212   7.727  0.7715  1.0325 -2.5916
   41CHL1  H18C 2990   2.548   5.106   7.783 -0.6982 -0.6510  0.4042
   41CHL1   C12 2991   2.460   4.865   7.688  0.2453  0.6668  0.4969
   41CHL1  H12A 2992   2.550   4.846   7.751  0.9901  1.3259 -0.3452
   41CHL1  H12B 2993   2.394   4.778   7.710  0.0660  1.2094  2.3453
   41CHL1   C11 2994   2.504   4.854   7.546  0.0456 -0.2782  0.1666
   41CHL1  H11A 2995   2.591   4.923   7.540  1.4151 -1.9662 -0.0668
   41CHL1  H11B 2996   2.549   4.756   7.524  0.7676 -0.3799  1.9570
   41CHL1    C9 2997   2.393   4.884   7.439 -1.0898  0.1336  0.7008
   41CHL1    H9 2998   2.347   4.784   7.442 -0.4216 -0.1852  0.6176
   41CHL1   C10 2999   2.452   4.901   7.294 -0.3003  0.2222 -1.0250
   41CHL1   C19 3000   2.564   5.007   7.294 -0.3016  0.9499 -0.7118
   41CHL1  H19A 3001   2.544   5.093   7.361  0.4687 -0.0914  0.9025
   41CHL1  H19B 3002   2.655   4.962   7.338 -0.6846  0.2614 -0.6056
   41CHL1  H19C 3003   2.582   5.053   7.194  2.2789  3.1195  0.6318
   41CHL1    C1 3004   2.512   4.755   7.254 -0.5094 -0.7550 -0.4336
   41CHL1   H1A 3005   2.601   4.733   7.317  0.2862 -1.0671 -1.6396
   41CHL1   H1B 3006   2.443   4.672   7.283  0.8572 -1.1036  2.1319
   41CHL1    C2 3007   2.549   4.738   7.102  0.2242  0.7357  0.3929
   41CHL1   H2A 3008   2.582   4.635   7.079 -1.1150  0.3194  0.2711
   41CHL1   H2B 3009   2.632   4.808   7.076  1.8423 -0.8203  1.2252
   41CHL1   C20 3010   2.370   5.014   7.983 -0.4995  0.1633 -0.1079
   41CHL1   H20 3011   2.427   5.107   7.964 -0.8004  0.2898 -0.4074
   41CHL1   C21 3012   2.464   4.897   8.009 -0.0218  0.5590 -0.1468
   41CHL1  H21A 3013   2.514   4.913   8.107  0.4706 -2.9870  0.3155
   41CHL1  H21B 3014   2.551   4.906   7.942  0.7775  2.0053  1.0071
   41CHL1  H21C 3015   2.418   4.796   8.015 -2.0755  1.3518 -1.6025
   41CHL1   C22 3016   2.292   5.042   8.116  0.3162 -0.4848 -0.0788
   41CHL1  H22A 3017   2.214   5.117   8.093 -0.2789 -1.1649 -0.3428
   41CHL1  H22B 3018   2.244   4.947   8.149  1.4268 -0.8098  0.6544
   41CHL1   C23 3019   2.380   5.113   8.225 -0.1303  0.1395  0.3014
   41CHL1  H23A 3020   2.465   5.045   8.245 -0.0569 -0.6766 -2.3407
   41CHL1  H23B 3021   2.413   5.210   8.182  2.7428 -0.2978  1.3193
   41CHL1   C24 3022   2.305   5.135   8.351 -0.2968  0.3835 -0.5692
   41CHL1  H24A 3023   2.202   5.175   8.336  0.2590  2.0269 -0.2128
   41CHL1  H24B 3024   2.284   5.039   8.403 -0.5668  0.0103 -1.3391
   41CHL1   C25 3025   2.383   5.232   8.449  0.2035  0.6695 -0.1677
   41CHL1   H25 3026   2.424   5.306   8.378  0.0440  0.1062 -0.8629
   41CHL1   C26 3027   2.297   5.290   8.556 -0.1556  1.0332  0.2283
   41CHL1  H26A 3028   2.195   5.303   8.515  0.5375 -0.4341 -2.1990
   41CHL1  H26B 3029   2.282   5.208   8.630  1.8871 -1.1262 -1.6067
   41CHL1  H26C 3030   2.335   5.385   8.599  1.3668  0.1407  0.9557
   41CHL1   C27 3031   2.497   5.146   8.516 -0.3155  0.2473 -0.5345
   41CHL1  H27A 3032   2.441   5.060   8.560 -0.0568 -0.2483 -1.1516
   41CHL1  H27B 3033   2.563   5.096   8.442 -0.3717 -0.8366  0.1181
   41CHL1  H27C 3034   2.551   5.195   8.600 -0.1731 -2.2762  0.9515
   42CHL1    C3 3035   2.525   0.937   7.192 -0.4901  0.2103 -0.0678
   42CHL1    H3 3036   2.509   1.042   7.225 -1.6657  0.4264 -1.2462
   42CHL1    O3 3037   2.598   0.941   7.068  0.4830  0.4152 -0.3958
   42CHL1   H3' 3038   2.582   0.859   7.020  0.0150 -0.7974  1.7047
   42CHL1    C4 3039   2.615   0.875   7.300 -0.2581  0.3073  0.5123
   42CHL1   H4A 3040   2.626   0.771   7.263 -2.3003  0.1801  0.1367
   42CHL1   H4B 3041   2.707   0.937   7.290 -0.1341  0.0153 -0.2349
   42CHL1    C5 3042   2.543   0.874   7.429 -0.3930 -0.3227  0.5359
   42CHL1    C6 3043   2.590   0.950   7.533  0.7899  0.4395  0.6117
   42CHL1    H6 3044   2.683   1.007   7.519  0.8581  0.4204  0.9747
   42CHL1    C7 3045   2.538   0.935   7.670  0.3052 -0.5491  0.2782
   42CHL1   H7A 3046   2.626   0.913   7.734 -0.6902  1.4017  2.4794
   42CHL1   H7B 3047   2.491   1.034   7.691  2.8201  1.0154 -1.0253
   42CHL1    C8 3048   2.432   0.828   7.691 -0.2597  0.9322 -0.6205
   42CHL1    H8 3049   2.482   0.728   7.695 -0.3017  0.7517 -3.0678
   42CHL1   C14 3050   2.351   0.854   7.814 -0.6773  0.1360 -0.3721
   42CHL1   H14 3051   2.294   0.949   7.802 -0.0462  0.5336 -0.2736
   42CHL1   C15 3052   2.429   0.858   7.947  0.0168 -0.4526 -0.5391
   42CHL1  H15A 3053   2.502   0.774   7.953  0.3399 -0.2895 -1.9043
   42CHL1  H15B 3054   2.498   0.945   7.948  2.0370 -1.9808 -0.9449
   42CHL1   C16 3055   2.319   0.847   8.060 -0.4935 -0.3018 -0.3171
   42CHL1  H16A 3056   2.363   0.785   8.141 -0.3516 -0.0933 -0.2349
   42CHL1  H16B 3057   2.304   0.950   8.099 -1.4681 -0.7412  0.5183
   42CHL1   C17 3058   2.192   0.803   7.978  0.5671 -0.2872  0.1225
   42CHL1   H17 3059   2.137   0.896   7.952 -0.2802 -0.4596  1.2165
   42CHL1   C13 3060   2.239   0.752   7.839  0.2491  0.3174 -0.5604
   42CHL1   C18 3061   2.293   0.609   7.860  0.5533 -0.4893  0.5104
   42CHL1  H18A 3062   2.346   0.570   7.770  0.8037  0.7246  0.1208
   42CHL1  H18B 3063   2.351   0.590   7.954  1.5803 -0.9028 -0.1828
   42CHL1  H18C 3064   2.206   0.540   7.868 -1.3335  1.3025 -2.7273
   42CHL1   C12 3065   2.135   0.755   7.720  0.5789  0.2970 -0.0469
   42CHL1  H12A 3066   2.056   0.679   7.738  1.6786 -0.9600 -0.4629
   42CHL1  H12B 3067   2.095   0.859   7.717 -2.3374 -0.7205  0.2312
   42CHL1   C11 3068   2.215   0.734   7.593 -0.5528 -0.5430 -0.2862
   42CHL1  H11A 3069   2.254   0.630   7.593  0.6889 -0.0963 -0.6461
   42CHL1  H11B 3070   2.145   0.726   7.507 -1.4265  0.6423  0.3027
   42CHL1    C9 3071   2.340   0.820   7.568  0.0959  0.0132  0.5247
   42CHL1    H9 3072   2.285   0.915   7.551 -1.1886 -0.1927  3.0069
   42CHL1   C10 3073   2.417   0.790   7.434  0.1578  0.2791  0.1770
   42CHL1   C19 3074   2.468   0.638   7.427  0.5330 -0.2430  0.9716
   42CHL1  H19A 3075   2.513   0.616   7.328 -1.7681  0.2979 -0.2865
   42CHL1  H19B 3076   2.541   0.609   7.505  0.0731 -0.2915  1.3903
   42CHL1  H19C 3077   2.377   0.574   7.429 -0.5282  0.9458 -2.0467
   42CHL1    C1 3078   2.322   0.827   7.316  0.6233 -0.0922  0.4827
   42CHL1   H1A 3079   2.243   0.752   7.293  1.6218 -1.4649  1.3863
   42CHL1   H1B 3080   2.280   0.929   7.328 -1.6228 -0.9096  0.1788
   42CHL1    C2 3081   2.403   0.842   7.181 -0.5456  0.1131 -0.6083
   42CHL1   H2A 3082   2.337   0.890   7.106  0.4985  2.3789 -0.1717
   42CHL1   H2B 3083   2.442   0.745   7.145  3.5237  1.1451  0.4093
   42CHL1   C20 3084   2.083   0.725   8.051  0.3937 -0.1339 -0.3311
   42CHL1   H20 3085   2.036   0.650   7.984  1.8800 -1.8581  0.4601
   42CHL1   C21 3086   1.963   0.824   8.081  0.1238 -0.5743 -0.4927
   42CHL1  H21A 3087   1.996   0.892   8.163  0.9740  0.7049 -1.8388
   42CHL1  H21B 3088   1.874   0.768   8.115  0.0211  0.5258  1.1576
   42CHL1  H21C 3089   1.929   0.887   7.996  1.0745 -0.0358 -0.4942
   42CHL1   C22 3090   2.118   0.651   8.187  0.3560 -0.2584  0.8677
   42CHL1  H22A 3091   2.202   0.578   8.179 -0.6757 -1.3754 -0.1457
   42CHL1  H22B 3092   2.137   0.734   8.258 -3.3707  0.7592  0.8321
   42CHL1   C23 3093   2.003   0.579   8.260 -0.5348 -0.1060  0.2648
   42CHL1  H23A 3094   1.907   0.635   8.266  0.6941  2.1843 -0.3906
   42CHL1  H23B 3095   1.994   0.480   8.211  2.2239 -0.3251  0.0368
   42CHL1   C24 3096   2.056   0.562   8.399 -0.6429 -0.5932  0.2706
   42CHL1  H24A 3097   2.151   0.504   8.400 -0.9772 -1.2062  2.6219
   42CHL1  H24B 3098   2.078   0.668   8.423 -2.2170  0.5817 -2.8912
   42CHL1   C25 3099   1.963   0.495   8.498 -0.4642  0.1066 -0.6030
   42CHL1   H25 3100   1.918   0.410   8.442  1.7546 -1.0177 -0.8054
   42CHL1   C26 3101   2.042   0.437   8.605 -0.3052  0.4001 -0.6434
   42CHL1  H26A 3102   2.086   0.517   8.669 -0.6395  1.0590 -1.2232
   42CHL1  H26B 3103   1.977   0.387   8.680 -0.6266 -0.0139 -1.1910
   42CHL1  H26C 3104   2.122   0.374   8.562  3.0904  1.4263  3.5170
   42CHL1   C27 3105   1.858   0.595   8.546  0.7589 -0.1837 -0.1444
   42CHL1  H27A 3106   1.783   0.553   8.616  0.8509  0.7732  0.5542
   42CHL1  H27B 3107   1.803   0.643   8.462  0.7045 -2.5870 -1.5741
   42CHL1  H27C 3108   1.920   0.668   8.603  1.2431 -0.1057 -0.7558
   43CHL1    C3 3109   3.707   5.505   7.003  0.1676 -0.3542  0.6466
   43CHL1    H3 3110   3.623   5.576   7.021  0.7149  0.1483  1.2391
   43CHL1    O3 3111   3.742   5.510   6.862  0.4036  0.1198  0.4742
   43CHL1   H3' 3112   3.823   5.459   6.863 -0.4651 -1.3531  2.2043
   43CHL1    C4 3113   3.831   5.546   7.086 -0.3102 -1.1122  0.2318
   43CHL1   H4A 3114   3.915   5.480   7.057 -0.7171 -2.6077  2.1897
   43CHL1   H4B 3115   3.869   5.643   7.050 -0.0281 -1.9076 -1.7647
   43CHL1    C5 3116   3.792   5.540   7.236  0.0559 -0.2503  0.4686
   43CHL1    C6 3117   3.799   5.651   7.317  0.3501  0.6657  0.6144
   43CHL1    H6 3118   3.829   5.747   7.271 -0.7157  1.4460  1.4839
   43CHL1    C7 3119   3.765   5.652   7.462 -0.0713 -0.6628 -0.1221
   43CHL1   H7A 3120   3.839   5.712   7.520 -1.6251  1.6782 -0.3907
   43CHL1   H7B 3121   3.666   5.697   7.486 -0.9102 -2.5125  0.0457
   43CHL1    C8 3122   3.767   5.506   7.522  0.1927 -0.9411 -0.3412
   43CHL1    H8 3123   3.875   5.480   7.525  2.0535  5.2337  1.3184
   43CHL1   C14 3124   3.712   5.510   7.663  1.0512 -0.8724  0.9935
   43CHL1   H14 3125   3.605   5.540   7.655  0.7301 -2.1609  0.1875
   43CHL1   C15 3126   3.771   5.609   7.770 -0.1869  0.2065  0.6023
   43CHL1  H15A 3127   3.879   5.604   7.745  0.6376  3.9444  2.5747
   43CHL1  H15B 3128   3.728   5.707   7.741 -0.5054 -0.6459 -2.0272
   43CHL1   C16 3129   3.737   5.550   7.908 -0.0717 -0.9934 -0.7727
   43CHL1  H16A 3130   3.821   5.537   7.980 -0.9438 -2.1396  0.0750
   43CHL1  H16B 3131   3.659   5.617   7.951  1.8453 -0.0337  1.4287
   43CHL1   C17 3132   3.665   5.417   7.879  0.0693 -0.7516  0.3011
   43CHL1   H17 3133   3.557   5.439   7.864  0.0541 -0.8099  0.3269
   43CHL1   C13 3134   3.703   5.378   7.738  0.9369 -0.2448  0.6556
   43CHL1   C18 3135   3.837   5.311   7.748 -0.0016 -0.5251  0.5018
   43CHL1  H18A 3136   3.829   5.210   7.795  0.4432 -1.7193 -1.8382
   43CHL1  H18B 3137   3.875   5.285   7.647 -0.3856 -2.0848  0.7252
   43CHL1  H18C 3138   3.914   5.367   7.805 -0.1182 -0.7592  0.8968
   43CHL1   C12 3139   3.609   5.288   7.652  0.6023 -0.0131  0.0654
   43CHL1  H12A 3140   3.607   5.187   7.699 -2.9031  0.4787  1.2813
   43CHL1  H12B 3141   3.507   5.331   7.657  0.1057 -1.0647 -0.5430
   43CHL1   C11 3142   3.646   5.278   7.508  0.1083 -0.5572  0.2984
   43CHL1  H11A 3143   3.725   5.202   7.496  1.1148  0.3448  1.0037
   43CHL1  H11B 3144   3.556   5.243   7.454  0.4213  0.9498 -1.2752
   43CHL1    C9 3145   3.679   5.412   7.431 -0.0637  0.2060  0.6033
   43CHL1    H9 3146   3.585   5.469   7.419 -0.3433 -0.2818  0.4559
   43CHL1   C10 3147   3.746   5.402   7.288 -0.0847  0.1752 -0.0563
   43CHL1   C19 3148   3.873   5.317   7.296  0.1935 -0.1934 -0.8750
   43CHL1  H19A 3149   3.911   5.299   7.193  0.6007  0.4490 -0.8409
   43CHL1  H19B 3150   3.958   5.351   7.359  1.1551 -2.0669 -1.0939
   43CHL1  H19C 3151   3.841   5.219   7.338 -1.4463  0.3230 -0.8709
   43CHL1    C1 3152   3.640   5.345   7.191  0.7328  0.2408  0.1033
   43CHL1   H1A 3153   3.612   5.240   7.212 -1.8516  0.7960 -0.1989
   43CHL1   H1B 3154   3.546   5.398   7.218 -0.5371 -2.4836  1.3327
   43CHL1    C2 3155   3.665   5.362   7.037 -0.6884 -0.2238  0.6819
   43CHL1   H2A 3156   3.569   5.338   6.984 -0.4439  3.4261 -1.7587
   43CHL1   H2B 3157   3.751   5.297   7.010  0.2378  0.8512  0.9705
   43CHL1   C20 3158   3.675   5.310   7.995  0.0425  0.0190 -0.2583
   43CHL1   H20 3159   3.780   5.282   8.020 -0.4753 -0.1643  1.9328
   43CHL1   C21 3160   3.614   5.176   7.971 -0.0593 -0.1254  0.9625
   43CHL1  H21A 3161   3.603   5.107   8.057 -4.5562  0.7445  1.3298
   43CHL1  H21B 3162   3.660   5.112   7.893 -1.3534 -1.4591  1.2462
   43CHL1  H21C 3163   3.516   5.186   7.919 -0.4406 -1.3333  1.4232
   43CHL1   C22 3164   3.624   5.380   8.127  0.4710 -0.2405  0.4181
   43CHL1  H22A 3165   3.638   5.309   8.212 -2.5233 -1.3822  0.0973
   43CHL1  H22B 3166   3.686   5.469   8.149 -0.1526  0.4001 -0.3731
   43CHL1   C23 3167   3.471   5.419   8.123  1.0336  0.0756 -0.1584
   43CHL1  H23A 3168   3.458   5.497   8.045 -0.6123 -0.8969 -0.9187
   43CHL1  H23B 3169   3.414   5.326   8.102  2.4159 -1.5298  2.7640
   43CHL1   C24 3170   3.406   5.486   8.245 -0.0756 -0.9986  0.5796
   43CHL1  H24A 3171   3.432   5.593   8.261  0.4217 -1.1117  0.5198
   43CHL1  H24B 3172   3.295   5.484   8.232 -0.1444 -0.7603  1.1073
   43CHL1   C25 3173   3.429   5.423   8.382 -0.0020 -0.1459 -0.0635
   43CHL1   H25 3174   3.534   5.415   8.415 -0.8153 -1.7678  2.4591
   43CHL1   C26 3175   3.380   5.512   8.493  0.2369 -0.3573 -0.5142
   43CHL1  H26A 3176   3.425   5.489   8.592 -0.9837  0.0028  0.1461
   43CHL1  H26B 3177   3.403   5.621   8.484  1.7108 -0.5881  0.2446
   43CHL1  H26C 3178   3.270   5.494   8.494  0.3053 -0.8516 -1.3749
   43CHL1   C27 3179   3.355   5.287   8.388 -0.1582 -0.2609 -0.7019
   43CHL1  H27A 3180   3.248   5.299   8.361  0.0219  1.0208 -0.8710
   43CHL1  H27B 3181   3.392   5.207   8.320  0.1210 -1.8341  1.2011
   43CHL1  H27C 3182   3.361   5.242   8.489  0.7646  0.2533 -0.5248
   44CHL1    C3 3183   4.137   4.135   6.936 -0.0734 -0.5436 -0.5069
   44CHL1    H3 3184   4.042   4.084   6.910 -0.7662  0.8654 -0.8254
   44CHL1    O3 3185   4.202   4.147   6.809  0.2772  0.3430 -0.2581
   44CHL1   H3' 3186   4.289   4.184   6.824  0.3692  0.3059 -0.6919
   44CHL1    C4 3187   4.111   4.277   6.995 -0.1672 -0.2496 -0.2887
   44CHL1   H4A 3188   4.211   4.324   7.000 -1.6368  3.1766 -0.1865
   44CHL1   H4B 3189   4.052   4.326   6.914  0.8071 -0.2775 -1.0330
   44CHL1    C5 3190   4.041   4.266   7.130 -0.6274  0.3234 -0.3315
   44CHL1    C6 3191   3.927   4.336   7.155  0.0664 -0.0186  0.1531
   44CHL1    H6 3192   3.877   4.391   7.074  1.2845  0.8317 -0.0422
   44CHL1    C7 3193   3.866   4.336   7.295  0.4742 -0.3053 -0.4513
   44CHL1   H7A 3194   3.850   4.442   7.322 -1.0357 -0.4394 -0.7827
   44CHL1   H7B 3195   3.768   4.285   7.301  0.8821 -0.9711  1.4023
   44CHL1    C8 3196   3.959   4.276   7.408 -0.3670 -0.1465  0.6557
   44CHL1    H8 3197   4.031   4.357   7.432 -0.6449  0.7892 -1.4331
   44CHL1   C14 3198   3.888   4.241   7.539  0.0869 -0.4276  0.4922
   44CHL1   H14 3199   3.801   4.180   7.509 -0.2893 -0.6271  1.9257
   44CHL1   C15 3200   3.826   4.369   7.607 -0.0744 -0.3218 -0.6866
   44CHL1  H15A 3201   3.907   4.444   7.603  1.5535 -2.0014 -1.0406
   44CHL1  H15B 3202   3.736   4.416   7.561 -1.5817  2.2312  4.1759
   44CHL1   C16 3203   3.797   4.317   7.747 -0.3574  0.7830  0.1624
   44CHL1  H16A 3204   3.850   4.384   7.818  0.6644 -0.0332  0.2055
   44CHL1  H16B 3205   3.690   4.308   7.773 -0.1119  0.6192  1.1486
   44CHL1   C17 3206   3.866   4.180   7.759  0.2739  0.1694 -0.2219
   44CHL1   H17 3207   3.794   4.100   7.730 -0.7724  0.9395  0.1985
   44CHL1   C13 3208   3.972   4.175   7.648  0.1505  0.4469  0.0052
   44CHL1   C18 3209   4.095   4.264   7.688  0.0444  0.1607  0.2824
   44CHL1  H18A 3210   4.158   4.287   7.600  0.4360 -4.0321 -0.7074
   44CHL1  H18B 3211   4.061   4.365   7.720 -2.9068 -0.1232 -1.5621
   44CHL1  H18C 3212   4.151   4.208   7.766  1.0086 -0.8075 -1.0741
   44CHL1   C12 3213   4.015   4.040   7.586  0.2350 -0.1768  0.2583
   44CHL1  H12A 3214   4.083   3.984   7.653 -1.9536 -1.8350  1.2152
   44CHL1  H12B 3215   3.929   3.972   7.566  0.4563 -0.5256  0.4839
   44CHL1   C11 3216   4.092   4.060   7.459 -0.8634  0.0638  0.1404
   44CHL1  H11A 3217   4.185   4.110   7.494 -1.1271  0.1158  0.7834
   44CHL1  H11B 3218   4.125   3.964   7.414 -0.7712 -0.3602  1.0992
   44CHL1    C9 3219   4.032   4.151   7.357 -0.3537 -0.4910  0.2488
   44CHL1    H9 3220   3.955   4.084   7.315 -0.5741 -0.0980  0.0247
   44CHL1   C10 3221   4.121   4.181   7.232 -0.5421 -0.0186 -1.2205
   44CHL1   C19 3222   4.243   4.266   7.272 -0.4957  0.0328  0.0069
   44CHL1  H19A 3223   4.309   4.286   7.185 -0.7280 -0.7795 -0.3695
   44CHL1  H19B 3224   4.209   4.361   7.318 -2.2789 -0.5445 -0.0706
   44CHL1  H19C 3225   4.309   4.218   7.348  0.3219  0.0185 -0.6879
   44CHL1    C1 3226   4.169   4.042   7.171  0.1520 -0.0478  0.3761
   44CHL1   H1A 3227   4.236   3.986   7.240 -3.0799 -0.8687  3.0969
   44CHL1   H1B 3228   4.088   3.968   7.160  0.5090 -0.1705 -1.7727
   44CHL1    C2 3229   4.229   4.055   7.031 -0.4627 -0.0328  1.1191
   44CHL1   H2A 3230   4.242   3.952   6.990 -0.9536  0.1046  0.6042
   44CHL1   H2B 3231   4.317   4.122   7.035 -0.9502  0.5727  2.4661
   44CHL1   C20 3232   3.905   4.160   7.905  0.0787  0.8566 -0.1958
   44CHL1   H20 3233   3.986   4.228   7.940 -0.8023  1.0000  1.7172
   44CHL1   C21 3234   3.952   4.014   7.906  0.0772  0.3820 -0.4110
   44CHL1  H21A 3235   4.044   4.012   7.844 -1.5949  1.7340 -3.1601
   44CHL1  H21B 3236   3.877   3.941   7.868 -0.9480  1.2588 -0.1428
   44CHL1  H21C 3237   3.986   3.981   8.006 -1.1657 -0.2741 -0.1870
   44CHL1   C22 3238   3.788   4.169   8.004  0.4016  0.0714  0.3524
   44CHL1  H22A 3239   3.732   4.265   7.998  2.0365  0.9856 -1.0733
   44CHL1  H22B 3240   3.715   4.090   7.976  0.2589 -0.5898  2.3758
   44CHL1   C23 3241   3.830   4.148   8.151 -0.4551  0.1590 -0.1685
   44CHL1  H23A 3242   3.889   4.054   8.154 -0.9021 -0.1284 -0.3771
   44CHL1  H23B 3243   3.895   4.230   8.189  0.3030  0.2756 -1.6456
   44CHL1   C24 3244   3.711   4.123   8.241  0.3247 -0.1692  0.0949
   44CHL1  H24A 3245   3.646   4.214   8.236 -1.2236 -0.8848  3.8669
   44CHL1  H24B 3246   3.659   4.041   8.188 -1.2657  1.2553 -0.6708
   44CHL1   C25 3247   3.743   4.098   8.392  0.1637 -0.3560  0.2841
   44CHL1   H25 3248   3.832   4.033   8.398  0.0345 -0.6593 -0.9024
   44CHL1   C26 3249   3.776   4.232   8.450  0.6038 -0.0273 -0.1559
   44CHL1  H26A 3250   3.686   4.294   8.429  0.9994  0.2349 -1.1453
   44CHL1  H26B 3251   3.809   4.232   8.556  0.8603 -0.0928 -0.2342
   44CHL1  H26C 3252   3.864   4.281   8.403  0.1143  0.3145 -0.7298
   44CHL1   C27 3253   3.628   4.039   8.463  0.2425 -0.1068 -0.7364
   44CHL1  H27A 3254   3.600   3.943   8.417  0.2051 -0.0816 -0.7659
   44CHL1  H27B 3255   3.666   4.017   8.565  2.3135 -0.0027 -1.4353
   44CHL1  H27C 3256   3.532   4.096   8.456 -1.0582 -2.3667 -2.4207
   45CHL1    C3 3257   4.145   2.428   6.966  0.7572  0.1136  0.6501
   45CHL1    H3 3258   4.091   2.336   6.997  0.8496 -0.4681 -0.8404
   45CHL1    O3 3259   4.116   2.454   6.827  0.2003 -0.3336 -0.4818
   45CHL1   H3' 3260   4.187   2.511   6.796  0.5593 -0.8320 -0.5804
   45CHL1    C4 3261   4.081   2.548   7.046  0.2113 -0.3056 -0.0594
   45CHL1   H4A 3262   4.124   2.640   6.999 -0.6386  0.4868  0.6941
   45CHL1   H4B 3263   3.974   2.548   7.019  0.5546  2.6707 -1.9150
   45CHL1    C5 3264   4.108   2.545   7.192  0.0090 -0.5262 -0.0401
   45CHL1    C6 3265   4.012   2.534   7.282 -0.2964 -0.7597  1.0580
   45CHL1    H6 3266   3.907   2.534   7.250 -0.5487 -1.2928  1.8712
   45CHL1    C7 3267   4.031   2.535   7.432 -0.0695 -0.0513 -0.5503
   45CHL1   H7A 3268   3.952   2.591   7.486  0.0545  0.2333 -0.6606
   45CHL1   H7B 3269   4.017   2.426   7.450  0.1961 -0.0358 -0.2554
   45CHL1    C8 3270   4.171   2.555   7.467 -1.2741  0.3363  0.2341
   45CHL1    H8 3271   4.191   2.664   7.462  1.7374 -0.0909  1.3675
   45CHL1   C14 3272   4.197   2.503   7.604 -0.9066  0.1858  0.4926
   45CHL1   H14 3273   4.195   2.392   7.594  0.4772  0.1176  0.7353
   45CHL1   C15 3274   4.103   2.530   7.718 -0.4368 -0.3544  0.0544
   45CHL1  H15A 3275   4.051   2.628   7.719 -2.0737 -1.1883  1.2717
   45CHL1  H15B 3276   4.020   2.457   7.728  1.7120 -2.9110  0.5049
   45CHL1   C16 3277   4.181   2.513   7.851 -0.4355  0.3594  0.3516
   45CHL1  H16A 3278   4.188   2.607   7.909 -0.1930  0.1293  0.7051
   45CHL1  H16B 3279   4.137   2.432   7.914 -1.9993 -0.0442 -1.1925
   45CHL1   C17 3280   4.322   2.469   7.801 -0.9609  0.4478  0.0357
   45CHL1   H17 3281   4.320   2.360   7.780 -0.5788  0.8085 -2.0349
   45CHL1   C13 3282   4.337   2.527   7.665 -0.0590 -0.2195 -0.6396
   45CHL1   C18 3283   4.361   2.678   7.671  0.3264  0.2344  0.0951
   45CHL1  H18A 3284   4.280   2.747   7.704 -1.1425 -1.3510 -0.0878
   45CHL1  H18B 3285   4.454   2.691   7.731  0.9581 -2.5276 -0.1776
   45CHL1  H18C 3286   4.374   2.716   7.567  1.9721  2.9236  1.1623
   45CHL1   C12 3287   4.441   2.462   7.569  0.1582  0.2564  0.2817
   45CHL1  H12A 3288   4.546   2.481   7.597 -0.8226  2.7658  2.6874
   45CHL1  H12B 3289   4.423   2.353   7.577  0.4466  0.3427  2.5582
   45CHL1   C11 3290   4.422   2.504   7.420  0.0377  0.0544 -0.0130
   45CHL1  H11A 3291   4.462   2.607   7.408  1.3498 -0.4441 -0.0548
   45CHL1  H11B 3292   4.483   2.431   7.363 -1.4177 -1.4265  0.2174
   45CHL1    C9 3293   4.275   2.490   7.372  0.3179 -0.3818 -0.6452
   45CHL1    H9 3294   4.255   2.381   7.380 -2.1047 -0.0515 -1.3049
   45CHL1   C10 3295   4.258   2.535   7.228  0.3929  0.1016 -0.1366
   45CHL1   C19 3296   4.336   2.661   7.198  0.0063 -0.3316 -0.0092
   45CHL1  H19A 3297   4.320   2.738   7.276 -2.1655 -2.2431  1.5615
   45CHL1  H19B 3298   4.447   2.648   7.198 -0.1208 -1.7252  0.7668
   45CHL1  H19C 3299   4.302   2.700   7.101 -0.3930  1.6472  0.8785
   45CHL1    C1 3300   4.326   2.420   7.141 -0.2109  0.6556 -0.6052
   45CHL1   H1A 3301   4.435   2.410   7.158 -0.3473 -0.3881 -0.2768
   45CHL1   H1B 3302   4.289   2.323   7.180 -0.6062  1.1853  0.3864
   45CHL1    C2 3303   4.295   2.419   6.989 -0.3223  0.6098  0.2537
   45CHL1   H2A 3304   4.336   2.324   6.948 -1.2946 -0.4024  1.5386
   45CHL1   H2B 3305   4.353   2.502   6.943  1.6629 -1.5384 -1.3620
   45CHL1   C20 3306   4.433   2.490   7.911  0.4770  0.2292  0.6808
   45CHL1   H20 3307   4.450   2.599   7.925 -0.7950  0.7136 -1.2561
   45CHL1   C21 3308   4.565   2.430   7.861  0.4542  0.4113  0.6072
   45CHL1  H21A 3309   4.606   2.376   7.949 -4.6916 -2.9686  1.3704
   45CHL1  H21B 3310   4.629   2.507   7.813  1.1204 -1.1699 -1.2164
   45CHL1  H21C 3311   4.537   2.352   7.787  0.7087 -2.2638  3.1607
   45CHL1   C22 3312   4.390   2.432   8.053  0.3086  0.2129  0.0521
   45CHL1  H22A 3313   4.285   2.448   8.084 -0.2918 -2.1416 -0.5355
   45CHL1  H22B 3314   4.392   2.321   8.046 -1.4209  0.2517 -2.5487
   45CHL1   C23 3315   4.489   2.459   8.167  0.4103 -0.5115  1.0081
   45CHL1  H23A 3316   4.593   2.439   8.135  0.8336  0.8995  1.3986
   45CHL1  H23B 3317   4.487   2.568   8.190  1.3548 -0.2586 -0.0153
   45CHL1   C24 3318   4.459   2.385   8.295  1.4834 -0.4506 -0.6729
   45CHL1  H24A 3319   4.350   2.364   8.307  0.9267  1.0507 -2.5955
   45CHL1  H24B 3320   4.489   2.279   8.275 -0.4761 -0.9543 -1.1526
   45CHL1   C25 3321   4.532   2.428   8.425 -0.8490 -0.1406 -0.5354
   45CHL1   H25 3322   4.638   2.434   8.394 -1.1270  1.8768 -1.2917
   45CHL1   C26 3323   4.487   2.565   8.487  0.0957  0.5371 -0.2142
   45CHL1  H26A 3324   4.504   2.638   8.405  1.8851  0.1133 -0.2610
   45CHL1  H26B 3325   4.378   2.551   8.500 -0.0807  1.1254 -1.0012
   45CHL1  H26C 3326   4.541   2.586   8.582 -2.5190 -0.3486  1.5591
   45CHL1   C27 3327   4.497   2.320   8.531  0.0907 -0.6032 -0.1629
   45CHL1  H27A 3328   4.548   2.342   8.627 -0.0453  0.1290 -0.2501
   45CHL1  H27B 3329   4.388   2.315   8.549 -0.5848  1.6906 -2.7909
   45CHL1  H27C 3330   4.528   2.224   8.485  1.7401  0.0225 -0.4652
   46CHL1    C3 3331   5.171   4.066   7.124  0.1980 -0.1597  0.1367
   46CHL1    H3 3332   5.163   4.175   7.143  3.3663  0.6474 -2.2039
   46CHL1    O3 3333   5.191   4.061   6.984 -0.6698  0.8245 -0.0925
   46CHL1   H3' 3334   5.207   3.969   6.958 -0.2093  0.3743  1.6897
   46CHL1    C4 3335   5.295   4.007   7.193 -0.3533  0.1451 -0.3290
   46CHL1   H4A 3336   5.292   3.902   7.156  0.2200 -0.3557  0.9829
   46CHL1   H4B 3337   5.390   4.047   7.150 -0.7425 -0.9454 -2.3223
   46CHL1    C5 3338   5.294   4.019   7.343  0.4926  0.0623  0.1228
   46CHL1    C6 3339   5.387   4.078   7.417 -0.1581 -0.2716  0.3956
   46CHL1    H6 3340   5.480   4.112   7.369 -0.7026  2.5102  1.1110
   46CHL1    C7 3341   5.379   4.093   7.565 -0.9477 -0.2795  0.2867
   46CHL1   H7A 3342   5.471   4.049   7.609 -1.5691 -0.9278  0.9601
   46CHL1   H7B 3343   5.381   4.201   7.589 -0.0937  0.2780 -2.0406
   46CHL1    C8 3344   5.268   4.018   7.637  0.4019 -0.0318 -0.1695
   46CHL1    H8 3345   5.285   3.909   7.645  1.4044 -0.0112 -1.6264
   46CHL1   C14 3346   5.251   4.079   7.776  0.0778  0.1234 -0.3537
   46CHL1   H14 3347   5.226   4.186   7.763 -0.8261 -0.0381  0.0277
   46CHL1   C15 3348   5.374   4.099   7.870 -0.4134  0.2097 -0.1675
   46CHL1  H15A 3349   5.440   4.010   7.860 -2.2753 -1.1352 -1.0856
   46CHL1  H15B 3350   5.423   4.195   7.843  1.1021 -0.2322  0.8968
   46CHL1   C16 3351   5.312   4.106   8.013 -0.3466  0.1172  0.0852
   46CHL1  H16A 3352   5.335   4.016   8.074 -0.5246  1.0141  1.5304
   46CHL1  H16B 3353   5.337   4.203   8.062 -1.9629  2.0908 -2.6577
   46CHL1   C17 3354   5.152   4.102   7.993 -0.1888 -0.3474  0.2523
   46CHL1   H17 3355   5.122   4.209   7.981  0.9634 -0.0891 -0.4651
   46CHL1   C13 3356   5.135   4.023   7.864  0.2413 -0.3305  0.2484
   46CHL1   C18 3357   5.151   3.877   7.890  0.5313  0.4419  0.3777
   46CHL1  H18A 3358   5.073   3.837   7.957  2.0950 -0.4357  1.7603
   46CHL1  H18B 3359   5.147   3.812   7.800  0.7692  0.1357  0.5876
   46CHL1  H18C 3360   5.248   3.864   7.942  1.4396  1.3156 -0.9968
   46CHL1   C12 3361   5.007   4.034   7.774 -0.1441 -0.4172  0.6180
   46CHL1  H12A 3362   4.922   3.980   7.821 -0.4255 -0.2162  0.3453
   46CHL1  H12B 3363   5.001   4.145   7.764  2.1680 -0.4754 -3.8444
   46CHL1   C11 3364   5.019   3.976   7.633  0.0841  0.9494 -0.1108
   46CHL1  H11A 3365   5.023   3.866   7.651  1.0696  1.2542  1.9393
   46CHL1  H11B 3366   4.929   4.013   7.580 -1.4290 -0.6795  1.2034
   46CHL1    C9 3367   5.141   4.031   7.555  0.3619  0.9100  0.5648
   46CHL1    H9 3368   5.126   4.141   7.551  0.1138  0.8779  0.5887
   46CHL1   C10 3369   5.158   3.977   7.402  0.0994  0.0526  0.0652
   46CHL1   C19 3370   5.156   3.821   7.410  0.0694  0.0881 -0.3364
   46CHL1  H19A 3371   5.059   3.783   7.449  0.7375 -0.6535  0.6592
   46CHL1  H19B 3372   5.159   3.776   7.309  1.0014 -2.5351  0.7693
   46CHL1  H19C 3373   5.231   3.786   7.485 -0.2762 -1.9614 -0.8890
   46CHL1    C1 3374   5.040   4.021   7.314 -0.2007  0.3230 -0.3956
   46CHL1   H1A 3375   4.952   3.972   7.362  0.0004 -0.2883 -0.6541
   46CHL1   H1B 3376   5.016   4.129   7.327  0.4613  0.2282  2.2063
   46CHL1    C2 3377   5.046   3.994   7.165  0.4255 -0.5096 -0.3519
   46CHL1   H2A 3378   4.954   4.029   7.114  1.0049 -1.5287 -2.1574
   46CHL1   H2B 3379   5.053   3.886   7.141 -1.3866 -0.7726  0.1588
   46CHL1   C20 3380   5.069   4.049   8.118  0.3476 -0.2410  0.3687
   46CHL1   H20 3381   5.104   3.945   8.135  0.4674 -0.2913 -0.1750
   46CHL1   C21 3382   4.915   4.067   8.097 -0.3754 -0.2143 -0.1985
   46CHL1  H21A 3383   4.899   3.994   8.015  0.4354 -0.0469 -0.5076
   46CHL1  H21B 3384   4.885   4.168   8.064  3.1783  1.2056  0.4555
   46CHL1  H21C 3385   4.861   4.026   8.186 -0.5125  0.5930  0.0986
   46CHL1   C22 3386   5.109   4.126   8.253  0.4774  0.1366  0.3015
   46CHL1  H22A 3387   5.220   4.136   8.244  0.4320  2.3104  1.4634
   46CHL1  H22B 3388   5.080   4.233   8.258  0.4500  0.3168 -2.2028
   46CHL1   C23 3389   5.066   4.039   8.370  0.0903  0.3084 -0.8376
   46CHL1  H23A 3390   4.961   4.002   8.364  0.0669  0.2505 -0.1251
   46CHL1  H23B 3391   5.134   3.952   8.376 -1.4355 -0.9260 -0.6580
   46CHL1   C24 3392   5.083   4.107   8.501  0.2996  0.4140 -1.2931
   46CHL1  H24A 3393   5.085   4.037   8.587  0.0109  1.5425 -0.3471
   46CHL1  H24B 3394   5.174   4.168   8.515 -1.0126  2.4113 -1.1496
   46CHL1   C25 3395   4.973   4.216   8.510 -0.6619 -0.3610 -0.0353
   46CHL1   H25 3396   4.944   4.251   8.409  0.8439 -0.6040 -0.5895
   46CHL1   C26 3397   4.842   4.156   8.568  0.1318 -0.3052  0.1447
   46CHL1  H26A 3398   4.770   4.240   8.570  0.1175 -0.2232 -1.8996
   46CHL1  H26B 3399   4.795   4.070   8.516 -0.2632 -1.1764  1.8700
   46CHL1  H26C 3400   4.859   4.127   8.674  0.7831 -2.3516 -0.4805
   46CHL1   C27 3401   5.017   4.338   8.592  0.6120 -0.1069  0.4973
   46CHL1  H27A 3402   5.098   4.395   8.543  0.0325  0.0399 -0.3196
   46CHL1  H27B 3403   4.928   4.402   8.612 -1.5590 -2.8346  0.2170
   46CHL1  H27C 3404   5.049   4.309   8.694 -1.7349  0.1584  1.3717
   47CHL1    C3 3405   5.374   4.806   6.849 -0.4893 -0.7811  0.9001
   47CHL1    H3 3406   5.376   4.898   6.911  3.5082 -1.2067  1.7092
   47CHL1    O3 3407   5.408   4.830   6.712 -0.1970  0.4963 -0.2299
   47CHL1   H3' 3408   5.386   4.745   6.673 -0.8646 -0.2143  1.6035
   47CHL1    C4 3409   5.481   4.716   6.912  0.2942  0.2498  0.1556
   47CHL1   H4A 3410   5.483   4.619   6.858 -0.8131  0.0716  0.4086
   47CHL1   H4B 3411   5.586   4.749   6.896  1.7353 -3.6878  0.4574
   47CHL1    C5 3412   5.463   4.692   7.066  0.3430  0.3603  0.0061
   47CHL1    C6 3413   5.555   4.734   7.160 -0.0568  0.9681  0.5281
   47CHL1    H6 3414   5.653   4.777   7.135  0.3944  0.4332  1.3285
   47CHL1    C7 3415   5.531   4.716   7.310  0.0304  0.8208 -0.0320
   47CHL1   H7A 3416   5.615   4.657   7.353 -1.2874  0.0700  1.6514
   47CHL1   H7B 3417   5.516   4.814   7.360  0.8996 -0.3362  2.7223
   47CHL1    C8 3418   5.401   4.636   7.341 -0.4429  0.6341  0.0877
   47CHL1    H8 3419   5.421   4.529   7.318  1.0083  1.0153 -0.5579
   47CHL1   C14 3420   5.368   4.643   7.494  0.4333 -0.3993 -0.5794
   47CHL1   H14 3421   5.360   4.752   7.510  1.5505 -0.1734 -1.4397
   47CHL1   C15 3422   5.474   4.600   7.599 -0.8103 -0.3106 -0.1831
   47CHL1  H15A 3423   5.525   4.504   7.575  0.2767 -0.5995  2.8144
   47CHL1  H15B 3424   5.560   4.670   7.593 -1.5946  0.7027  0.1126
   47CHL1   C16 3425   5.398   4.599   7.730 -0.0543  0.0032 -0.0054
   47CHL1  H16A 3426   5.411   4.497   7.771 -1.4147 -0.6323 -1.0530
   47CHL1  H16B 3427   5.443   4.668   7.804  0.3874 -0.3107  0.0236
   47CHL1   C17 3428   5.248   4.630   7.692 -0.3339  0.2652  0.2232
   47CHL1   H17 3429   5.234   4.740   7.697 -1.0253  0.1934 -0.0734
   47CHL1   C13 3430   5.230   4.583   7.545 -0.2378 -0.3600  0.2623
   47CHL1   C18 3431   5.224   4.427   7.532 -0.1551 -0.4829  0.5176
   47CHL1  H18A 3432   5.121   4.389   7.551  0.1491 -1.1643  0.8411
   47CHL1  H18B 3433   5.258   4.401   7.429 -0.2028 -1.6002  0.7736
   47CHL1  H18C 3434   5.280   4.372   7.610 -0.3647 -0.7777  0.4638
   47CHL1   C12 3435   5.121   4.654   7.459  0.2504  0.4085  0.4891
   47CHL1  H12A 3436   5.020   4.612   7.481  1.1690 -2.2858  0.0118
   47CHL1  H12B 3437   5.130   4.762   7.481 -0.0773  0.5969 -0.2835
   47CHL1   C11 3438   5.147   4.632   7.309 -0.5337  0.6679  0.2032
   47CHL1  H11A 3439   5.135   4.523   7.294  1.2349  0.2968  1.1180
   47CHL1  H11B 3440   5.075   4.693   7.250 -0.6210 -1.9136 -2.6354
   47CHL1    C9 3441   5.287   4.684   7.250 -0.0177  0.0634 -0.4354
   47CHL1    H9 3442   5.287   4.795   7.258  1.2044  0.0564 -0.0936
   47CHL1   C10 3443   5.318   4.652   7.100 -0.3038 -0.0118 -0.3940
   47CHL1   C19 3444   5.314   4.506   7.073  0.0332  0.2840 -0.2030
   47CHL1  H19A 3445   5.373   4.441   7.141  1.1930  0.3276 -1.1400
   47CHL1  H19B 3446   5.210   4.469   7.082  0.4855 -0.4548  2.9140
   47CHL1  H19C 3447   5.345   4.482   6.969  3.3546 -0.5493  0.8651
   47CHL1    C1 3448   5.209   4.733   7.012 -0.4770 -0.0340  0.0327
   47CHL1   H1A 3449   5.105   4.697   7.029 -0.2845 -0.4755  0.2886
   47CHL1   H1B 3450   5.197   4.835   7.052 -3.2378  0.1304 -0.9916
   47CHL1    C2 3451   5.236   4.737   6.863 -0.3264 -0.0877  0.2064
   47CHL1   H2A 3452   5.165   4.798   6.803 -0.1592 -0.8984 -0.8323
   47CHL1   H2B 3453   5.249   4.637   6.817 -0.4948 -0.2858  0.5815
   47CHL1   C20 3454   5.158   4.574   7.799 -0.3467  0.2328 -0.5286
   47CHL1   H20 3455   5.172   4.464   7.803 -1.2812  0.1008 -0.4581
   47CHL1   C21 3456   5.010   4.608   7.778 -0.8141  0.0665  0.0269
   47CHL1  H21A 3457   4.991   4.717   7.767  0.2399  0.1427 -1.3473
   47CHL1  H21B 3458   4.942   4.554   7.847  1.1089  1.3103  3.0757
   47CHL1  H21C 3459   4.994   4.563   7.677 -0.3841  0.0467 -0.0305
   47CHL1   C22 3460   5.190   4.628   7.944  0.0275  0.0831  0.1689
   47CHL1  H22A 3461   5.216   4.736   7.940 -0.9964  0.2981 -1.3666
   47CHL1  H22B 3462   5.096   4.622   8.003  0.8056 -1.3408  1.3401
   47CHL1   C23 3463   5.292   4.555   8.029 -0.4553 -0.0162 -0.1938
   47CHL1  H23A 3464   5.268   4.448   8.015  1.2757 -0.7502  1.8930
   47CHL1  H23B 3465   5.398   4.568   7.999 -1.0050  1.1763 -1.7633
   47CHL1   C24 3466   5.277   4.590   8.181 -0.3273 -0.6918  0.4542
   47CHL1  H24A 3467   5.251   4.698   8.171  0.9213 -0.3549  0.7155
   47CHL1  H24B 3468   5.193   4.534   8.227 -1.4664  0.6520  0.0706
   47CHL1   C25 3469   5.402   4.581   8.276  0.1891  0.0104 -0.8815
   47CHL1   H25 3470   5.477   4.650   8.233 -1.6109  3.3063  0.9008
   47CHL1   C26 3471   5.383   4.650   8.418  0.2163  0.0970 -0.0618
   47CHL1  H26A 3472   5.308   4.599   8.482 -2.3665  2.3266 -1.0828
   47CHL1  H26B 3473   5.483   4.644   8.466 -0.0033 -0.6405  0.3129
   47CHL1  H26C 3474   5.348   4.754   8.400  0.0103 -0.0920 -0.7672
   47CHL1   C27 3475   5.456   4.435   8.279  0.0253 -0.4196 -0.1051
   47CHL1  H27A 3476   5.395   4.365   8.340 -1.2635  0.4956 -0.3136
   47CHL1  H27B 3477   5.449   4.392   8.176  0.2264  0.0471 -0.3179
   47CHL1  H27C 3478   5.559   4.438   8.321 -0.1917  0.9941  0.3527
   48CHL1    C3 3479   5.884   1.289   6.444  0.4325  0.1381  0.5164
   48CHL1    H3 3480   5.781   1.325   6.462 -0.8324 -2.1191 -1.5500
   48CHL1    O3 3481   5.897   1.282   6.303  0.3821  0.1210  0.2898
   48CHL1   H3' 3482   5.946   1.201   6.288  0.2524  0.0523  0.2421
   48CHL1    C4 3483   5.989   1.383   6.502 -0.2308  0.2696  0.0614
   48CHL1   H4A 3484   6.088   1.344   6.474  0.5197  1.1186  1.4109
   48CHL1   H4B 3485   5.980   1.484   6.456  0.0796 -0.2742 -1.2425
   48CHL1    C5 3486   5.986   1.381   6.653  0.5781  0.5226  0.6199
   48CHL1    C6 3487   5.986   1.499   6.719  0.4303  0.4930  0.1175
   48CHL1    H6 3488   5.997   1.592   6.661  0.4289  2.2788  2.7966
   48CHL1    C7 3489   5.987   1.514   6.870 -0.6574  0.3297  0.0260
   48CHL1   H7A 3490   6.063   1.588   6.903  0.8241 -0.3924 -1.5697
   48CHL1   H7B 3491   5.888   1.548   6.905 -0.8121  1.4118 -1.4007
   48CHL1    C8 3492   6.013   1.387   6.946  0.3425  0.0805  0.6343
   48CHL1    H8 3493   6.123   1.375   6.941  0.2075 -0.8287 -1.5278
   48CHL1   C14 3494   5.972   1.400   7.090  0.4800  0.7776 -0.3302
   48CHL1   H14 3495   5.862   1.410   7.079  0.0683 -1.1204  1.2975
   48CHL1   C15 3496   6.019   1.525   7.166  0.0806  0.7409  0.0552
   48CHL1  H15A 3497   6.129   1.546   7.172  0.1626  0.3822 -0.1968
   48CHL1  H15B 3498   5.959   1.611   7.128 -0.0824 -0.3000 -2.1849
   48CHL1   C16 3499   5.981   1.492   7.312 -0.1349  0.4299 -0.2770
   48CHL1  H16A 3500   6.062   1.520   7.384 -0.0020 -3.5842  1.3982
   48CHL1  H16B 3501   5.895   1.550   7.350  0.1359  1.0440 -0.5930
   48CHL1   C17 3502   5.946   1.340   7.312 -0.6859 -0.6364 -0.3589
   48CHL1   H17 3503   5.835   1.347   7.306 -0.9311 -0.6274  2.7027
   48CHL1   C13 3504   5.995   1.278   7.177 -0.5284  0.3078  0.3705
   48CHL1   C18 3505   6.150   1.241   7.189  0.0555 -0.0366 -0.5248
   48CHL1  H18A 3506   6.203   1.329   7.231 -0.1138 -1.1860  2.2720
   48CHL1  H18B 3507   6.163   1.155   7.258 -1.8586  0.6954  0.8084
   48CHL1  H18C 3508   6.190   1.220   7.087  0.3628 -0.4400 -0.3262
   48CHL1   C12 3509   5.930   1.156   7.112  0.1730  0.0749 -0.3358
   48CHL1  H12A 3510   5.955   1.053   7.146  1.0356 -0.0438 -1.2739
   48CHL1  H12B 3511   5.820   1.160   7.124  0.3983 -0.5059  3.2568
   48CHL1   C11 3512   5.966   1.135   6.964 -0.9224  0.1101  0.2800
   48CHL1  H11A 3513   6.075   1.115   6.957 -0.9307  0.5152 -4.8843
   48CHL1  H11B 3514   5.911   1.049   6.921 -1.2570  0.3316  0.2675
   48CHL1    C9 3515   5.953   1.260   6.881  0.3320 -0.0057 -0.1285
   48CHL1    H9 3516   5.843   1.274   6.893  0.3301 -1.6902  3.1598
   48CHL1   C10 3517   5.983   1.241   6.730  0.3505 -0.4898  1.4437
   48CHL1   C19 3518   6.124   1.179   6.710  0.9254  0.0093  0.3244
   48CHL1  H19A 3519   6.120   1.072   6.740  0.8137 -0.5418 -1.5750
   48CHL1  H19B 3520   6.161   1.186   6.606  0.6224  1.2390  0.2765
   48CHL1  H19C 3521   6.195   1.237   6.773  1.7314 -0.3302 -0.2635
   48CHL1    C1 3522   5.880   1.148   6.657  0.5653 -0.4786  0.1039
   48CHL1   H1A 3523   5.877   1.047   6.702  0.3909 -0.0648  1.0425
   48CHL1   H1B 3524   5.782   1.191   6.686  0.8899 -0.2188  0.8400
   48CHL1    C2 3525   5.892   1.148   6.503 -0.0244  0.3548  0.0850
   48CHL1   H2A 3526   5.807   1.087   6.465  0.5573 -1.2761  1.2935
   48CHL1   H2B 3527   5.991   1.106   6.475  0.1209  1.2912 -0.8477
   48CHL1   C20 3528   5.981   1.280   7.453  0.4763  0.4579  0.3469
   48CHL1   H20 3529   6.089   1.257   7.462  0.7310 -0.4830 -3.2495
   48CHL1   C21 3530   5.918   1.137   7.455  1.1729 -0.0494 -0.3516
   48CHL1  H21A 3531   5.807   1.150   7.452  1.1510 -0.3579 -1.2402
   48CHL1  H21B 3532   5.936   1.083   7.550 -3.0472 -0.0987  0.6418
   48CHL1  H21C 3533   5.942   1.070   7.370  0.3201 -1.7621  0.6969
   48CHL1   C22 3534   5.930   1.374   7.571 -0.1506  0.1507  0.2894
   48CHL1  H22A 3535   5.962   1.480   7.561  0.4208 -0.0075  0.3901
   48CHL1  H22B 3536   5.819   1.376   7.569 -0.2099  3.5470  0.9482
   48CHL1   C23 3537   5.966   1.329   7.711  0.4302  0.8584 -0.2545
   48CHL1  H23A 3538   5.918   1.231   7.726  1.0206  0.1968 -2.3450
   48CHL1  H23B 3539   6.076   1.332   7.730 -0.0292  2.8937  2.7901
   48CHL1   C24 3540   5.905   1.418   7.822  0.1779 -0.2272  0.3526
   48CHL1  H24A 3541   5.948   1.520   7.815  2.0883 -1.0611 -0.8915
   48CHL1  H24B 3542   5.796   1.420   7.798 -0.4658  2.1045  2.9843
   48CHL1   C25 3543   5.918   1.359   7.962  0.2614  0.4389 -0.0548
   48CHL1   H25 3544   5.885   1.253   7.958 -0.4749  0.6988 -1.3604
   48CHL1   C26 3545   6.060   1.358   8.004  0.1734 -0.3506  0.2195
   48CHL1  H26A 3546   6.071   1.317   8.107  0.8079  1.0884  0.7411
   48CHL1  H26B 3547   6.116   1.293   7.933 -3.9687 -0.5797 -3.2504
   48CHL1  H26C 3548   6.109   1.457   8.006  1.6728 -1.0238 -0.9623
   48CHL1   C27 3549   5.826   1.425   8.072 -0.1782 -0.3373  0.8779
   48CHL1  H27A 3550   5.723   1.412   8.031  0.1900  0.5690 -0.4032
   48CHL1  H27B 3551   5.843   1.388   8.175  1.7986  0.9120  1.0560
   48CHL1  H27C 3552   5.850   1.531   8.091  1.2181 -1.1710  4.6721
   49CHL1    C3 3553   6.232   2.405   7.002  0.0933  0.0655  0.0526
   49CHL1    H3 3554   6.340   2.427   6.991  0.5487 -2.5479 -1.4739
   49CHL1    O3 3555   6.177   2.389   6.867 -0.7159 -0.1743 -0.3286
   49CHL1   H3' 3556   6.242   2.340   6.816 -0.2855  2.1971 -2.2145
   49CHL1    C4 3557   6.214   2.281   7.087  0.4743 -0.4760 -0.0121
   49CHL1   H4A 3558   6.109   2.251   7.067  0.0820  1.4962 -1.2374
   49CHL1   H4B 3559   6.282   2.204   7.044  1.9045  1.7849 -2.0854
   49CHL1    C5 3560   6.250   2.293   7.231  0.3136 -0.5627  0.5243
   49CHL1    C6 3561   6.345   2.212   7.290  0.0110 -0.2411  1.2076
   49CHL1    H6 3562   6.399   2.134   7.234  1.0363  0.7979  0.6936
   49CHL1    C7 3563   6.388   2.226   7.429  0.7524 -0.8139 -0.1811
   49CHL1   H7A 3564   6.391   2.128   7.481  1.0864  0.1368  1.6718
   49CHL1   H7B 3565   6.492   2.266   7.435 -0.3094  2.8112 -2.3873
   49CHL1    C8 3566   6.295   2.314   7.512 -0.1791 -0.1143  0.8707
   49CHL1    H8 3567   6.207   2.253   7.539  0.3719 -0.8793  0.9593
   49CHL1   C14 3568   6.352   2.337   7.649 -0.2448 -0.5319  0.3467
   49CHL1   H14 3569   6.453   2.382   7.647 -0.6565  0.4484 -2.1375
   49CHL1   C15 3570   6.367   2.216   7.745 -0.3884  0.4152 -0.9348
   49CHL1  H15A 3571   6.283   2.146   7.725 -0.6836 -0.1080  1.7796
   49CHL1  H15B 3572   6.463   2.168   7.717  0.1952 -0.2779  1.9972
   49CHL1   C16 3573   6.371   2.287   7.887 -0.2159 -0.6394 -0.4241
   49CHL1  H16A 3574   6.303   2.247   7.965  0.6370 -1.5224 -0.1169
   49CHL1  H16B 3575   6.476   2.271   7.919 -0.4594  0.7695  1.2664
   49CHL1   C17 3576   6.348   2.441   7.861  0.0771  0.0062 -0.5377
   49CHL1   H17 3577   6.442   2.494   7.834 -0.7755  1.2000 -1.2696
   49CHL1   C13 3578   6.269   2.445   7.729 -0.4186  1.2475  0.7395
   49CHL1   C18 3579   6.127   2.398   7.765 -0.5429  0.6076  0.0253
   49CHL1  H18A 3580   6.084   2.347   7.676 -0.7599  1.2565 -0.2425
   49CHL1  H18B 3581   6.124   2.320   7.844  2.0357  0.5686  0.1589
   49CHL1  H18C 3582   6.068   2.484   7.802  0.4072  1.1979  0.1951
   49CHL1   C12 3583   6.269   2.585   7.651 -0.5400 -0.0109  0.7011
   49CHL1  H12A 3584   6.213   2.672   7.693  0.3147  0.7199  0.3444
   49CHL1  H12B 3585   6.367   2.627   7.620 -0.2498 -0.9200  0.3483
   49CHL1   C11 3586   6.187   2.548   7.526 -0.4696 -0.2780  0.9283
   49CHL1  H11A 3587   6.086   2.507   7.546 -0.3837 -1.0924 -0.2377
   49CHL1  H11B 3588   6.188   2.637   7.459 -0.4218 -0.8597  0.1431
   49CHL1    C9 3589   6.260   2.443   7.435 -0.5800 -0.2204  0.4326
   49CHL1    H9 3590   6.358   2.484   7.402  0.6893 -3.3191  0.0696
   49CHL1   C10 3591   6.181   2.418   7.300  0.1118  0.8895  0.7621
   49CHL1   C19 3592   6.030   2.391   7.328 -0.2192 -0.3830  0.7390
   49CHL1  H19A 3593   6.011   2.316   7.408  1.1087  0.5918  1.9991
   49CHL1  H19B 3594   5.976   2.480   7.365 -0.1107 -0.3615  0.8457
   49CHL1  H19C 3595   5.983   2.369   7.230  1.5735  0.8847 -0.4516
   49CHL1    C1 3596   6.195   2.549   7.207  0.3441 -0.2379 -0.2252
   49CHL1   H1A 3597   6.125   2.622   7.254 -1.7539 -1.3862 -1.4233
   49CHL1   H1B 3598   6.299   2.588   7.216 -0.5082  2.0024  0.6201
   49CHL1    C2 3599   6.161   2.527   7.056  0.1136 -0.1909 -0.2678
   49CHL1   H2A 3600   6.186   2.619   6.999 -0.6665  1.7129  2.2836
   49CHL1   H2B 3601   6.052   2.517   7.035  0.1439  0.3574 -0.6999
   49CHL1   C20 3602   6.295   2.524   7.988 -0.5264 -0.0898  0.5734
   49CHL1   H20 3603   6.187   2.520   8.012 -0.9421  3.0223 -0.3887
   49CHL1   C21 3604   6.315   2.679   7.957 -0.0789 -0.0562  0.1081
   49CHL1  H21A 3605   6.329   2.733   8.053 -2.2293  0.1591  0.3592
   49CHL1  H21B 3606   6.230   2.727   7.905  1.5744  1.7472 -1.0466
   49CHL1  H21C 3607   6.404   2.691   7.893 -1.0129 -1.7606 -1.6180
   49CHL1   C22 3608   6.367   2.494   8.115 -0.5508 -0.8284 -0.2888
   49CHL1  H22A 3609   6.474   2.504   8.087 -0.6334 -0.1826 -0.3884
   49CHL1  H22B 3610   6.340   2.578   8.183 -0.8847 -0.2365 -1.1395
   49CHL1   C23 3611   6.346   2.362   8.191 -0.1688 -0.6722  0.2719
   49CHL1  H23A 3612   6.239   2.331   8.190 -0.4600  0.2490  1.1190
   49CHL1  H23B 3613   6.402   2.277   8.147 -0.2392 -0.6733  0.1842
   49CHL1   C24 3614   6.401   2.373   8.335 -0.1051 -0.4109  0.0735
   49CHL1  H24A 3615   6.509   2.398   8.343 -0.4729  0.9239  1.5826
   49CHL1  H24B 3616   6.343   2.461   8.371 -0.4815 -1.1204  1.2442
   49CHL1   C25 3617   6.370   2.258   8.425  0.1003  0.4138  0.0242
   49CHL1   H25 3618   6.419   2.165   8.386 -1.0414  0.2404 -1.0568
   49CHL1   C26 3619   6.427   2.288   8.565 -0.0260 -0.0712  0.3740
   49CHL1  H26A 3620   6.537   2.297   8.551 -0.2759  1.4473 -0.9096
   49CHL1  H26B 3621   6.371   2.378   8.600  0.0909  1.7115 -3.4430
   49CHL1  H26C 3622   6.402   2.201   8.629 -2.6468 -1.6359 -2.4966
   49CHL1   C27 3623   6.218   2.235   8.454 -0.1760  0.5101  0.1720
   49CHL1  H27A 3624   6.177   2.182   8.366 -0.7950  2.2536 -0.6302
   49CHL1  H27B 3625   6.207   2.174   8.546 -0.4517  2.2690  1.3565
   49CHL1  H27C 3626   6.160   2.328   8.471 -2.0826  0.3803 -4.3379
   50CHL1    C3 3627   0.983   2.712   6.863 -0.2038 -0.3159  0.4332
   50CHL1    H3 3628   1.080   2.659   6.864 -0.8870 -1.6869 -1.0187
   50CHL1    O3 3629   0.956   2.757   6.726 -0.8098  0.4665  0.0430
   50CHL1   H3' 3630   0.868   2.793   6.737 -1.0725 -0.9449  4.0407
   50CHL1    C4 3631   0.883   2.611   6.924  0.2633  0.5284 -0.4249
   50CHL1   H4A 3632   0.786   2.664   6.914  0.2345  0.8546  1.3737
   50CHL1   H4B 3633   0.873   2.524   6.856  0.8070 -1.1138  1.5109
   50CHL1    C5 3634   0.907   2.568   7.067  0.3924  0.7039  0.5854
   50CHL1    C6 3635   0.904   2.444   7.107  0.4333  0.7113 -0.1322
   50CHL1    H6 3636   0.888   2.357   7.041 -1.0997 -0.6595  1.9089
   50CHL1    C7 3637   0.914   2.401   7.251  0.1679  0.4246 -0.2594
   50CHL1   H7A 3638   0.832   2.328   7.269 -0.4077  1.0383 -0.3340
   50CHL1   H7B 3639   1.013   2.353   7.268 -0.4015 -0.4437  0.7253
   50CHL1    C8 3640   0.898   2.515   7.354  0.0665 -0.6924 -1.0499
   50CHL1    H8 3641   0.791   2.541   7.344 -0.0956 -2.0148 -3.3165
   50CHL1   C14 3642   0.952   2.480   7.494 -0.0446 -0.5099  0.5298
   50CHL1   H14 3643   1.058   2.461   7.468  0.0859 -0.5994  1.1217
   50CHL1   C15 3644   0.893   2.361   7.565 -0.1239  0.2116 -0.8417
   50CHL1  H15A 3645   0.782   2.358   7.565 -0.2350 -0.8552  3.1778
   50CHL1  H15B 3646   0.930   2.268   7.516  1.1447  0.6459 -0.7650
   50CHL1   C16 3647   0.922   2.375   7.720  0.2076  0.1530  1.4957
   50CHL1  H16A 3648   0.827   2.359   7.774 -0.6108 -0.7017 -0.0998
   50CHL1  H16B 3649   1.003   2.307   7.753 -1.1051 -1.7975  0.8982
   50CHL1   C17 3650   0.974   2.519   7.738  0.0408  0.4380  0.1560
   50CHL1   H17 3651   1.085   2.529   7.739  0.0525  2.3274 -3.4961
   50CHL1   C13 3652   0.934   2.592   7.604  0.1687  0.1582 -1.2289
   50CHL1   C18 3653   0.788   2.638   7.618  0.4697  0.0356 -0.1928
   50CHL1  H18A 3654   0.780   2.733   7.675  0.2728 -1.3323  2.1689
   50CHL1  H18B 3655   0.746   2.654   7.516  0.0888  1.5938  0.1755
   50CHL1  H18C 3656   0.732   2.561   7.674  0.4387 -0.8251 -1.3722
   50CHL1   C12 3657   1.023   2.714   7.559 -0.5431  0.2232 -0.0757
   50CHL1  H12A 3658   0.997   2.804   7.620  3.0189  0.4953  1.3069
   50CHL1  H12B 3659   1.132   2.693   7.572 -0.2954  0.2831 -1.8261
   50CHL1   C11 3660   0.991   2.748   7.410 -0.3353 -0.6154 -0.0862
   50CHL1  H11A 3661   0.910   2.824   7.415  2.4889  2.5674  1.2174
   50CHL1  H11B 3662   1.078   2.811   7.381 -0.3508 -0.5115  0.0898
   50CHL1    C9 3663   0.981   2.637   7.308  0.5008  0.8409  0.2318
   50CHL1    H9 3664   1.082   2.595   7.290 -0.5761 -1.5972 -0.4864
   50CHL1   C10 3665   0.934   2.690   7.168  0.2180 -0.3613  0.1474
   50CHL1   C19 3666   0.804   2.767   7.181 -1.0857  0.3335  0.2901
   50CHL1  H19A 3667   0.728   2.705   7.234  0.8898 -2.9664 -0.4190
   50CHL1  H19B 3668   0.818   2.860   7.240 -0.6025 -0.6755  1.8258
   50CHL1  H19C 3669   0.768   2.791   7.079  0.8573  0.2443 -0.4592
   50CHL1    C1 3670   1.036   2.782   7.098  0.2386 -0.0241  0.0312
   50CHL1   H1A 3671   1.050   2.878   7.154  0.5376  1.8664 -3.0561
   50CHL1   H1B 3672   1.135   2.734   7.083  0.2343 -0.0709  0.1497
   50CHL1    C2 3673   1.001   2.838   6.957  0.4855 -0.0822 -0.0313
   50CHL1   H2A 3674   1.083   2.901   6.917 -0.7784  0.7200 -1.4655
   50CHL1   H2B 3675   0.917   2.911   6.953 -2.7745 -3.5098 -0.6401
   50CHL1   C20 3676   0.930   2.566   7.871  0.8551  0.1105 -0.2977
   50CHL1   H20 3677   0.819   2.566   7.872  0.8508 -0.8094  1.0388
   50CHL1   C21 3678   0.967   2.718   7.897 -0.6690 -0.6452  0.2016
   50CHL1  H21A 3679   0.914   2.774   7.977  1.4889  3.1106 -0.7400
   50CHL1  H21B 3680   0.938   2.780   7.809  0.2768 -0.8570 -0.2684
   50CHL1  H21C 3681   1.076   2.730   7.916 -1.0631  0.5919  1.9219
   50CHL1   C22 3682   0.984   2.490   8.005  0.3163  0.1404 -0.2025
   50CHL1  H22A 3683   0.973   2.381   7.986 -0.6656 -0.3079  2.4328
   50CHL1  H22B 3684   1.089   2.524   8.012  0.7250 -0.9267 -0.8526
   50CHL1   C23 3685   0.901   2.541   8.129  0.5487  0.1553 -0.3706
   50CHL1  H23A 3686   0.937   2.642   8.158  0.2427 -0.0178  0.6623
   50CHL1  H23B 3687   0.793   2.547   8.105  0.4603 -0.2887 -0.0988
   50CHL1   C24 3688   0.926   2.444   8.249  0.0168  0.7369 -0.4643
   50CHL1  H24A 3689   0.893   2.341   8.223  0.6836 -0.7613  3.8238
   50CHL1  H24B 3690   1.036   2.433   8.256 -0.0867 -0.8445 -0.8572
   50CHL1   C25 3691   0.848   2.490   8.371 -0.5341 -0.1319  0.0337
   50CHL1   H25 3692   0.742   2.514   8.347 -0.5444  0.3754  0.5777
   50CHL1   C26 3693   0.845   2.374   8.475  0.5061  0.6603  0.3369
   50CHL1  H26A 3694   0.945   2.379   8.523  0.1411 -0.7621  1.2765
   50CHL1  H26B 3695   0.762   2.389   8.547 -0.1222  0.8008 -0.4038
   50CHL1  H26C 3696   0.842   2.273   8.429  0.7559  1.4994 -1.6578
   50CHL1   C27 3697   0.906   2.618   8.434 -0.5687  0.2464 -0.7198
   50CHL1  H27A 3698   0.834   2.642   8.515 -3.4013 -1.0247 -2.6734
   50CHL1  H27B 3699   1.009   2.596   8.469 -1.5006 -1.9569  0.9420
   50CHL1  H27C 3700   0.898   2.703   8.363  0.8067 -0.2670 -1.5352
   51CHL1    C3 3701   5.721   1.862   7.052 -0.7445 -0.0406  0.1160
   51CHL1    H3 3702   5.741   1.754   7.067 -0.3021  0.0461  0.1563
   51CHL1    O3 3703   5.679   1.879   6.921  0.4363  0.0875 -0.1126
   51CHL1   H3' 3704   5.694   1.973   6.904 -1.5205  0.4112 -0.2371
   51CHL1    C4 3705   5.622   1.923   7.145  0.8105 -0.1119  0.1127
   51CHL1   H4A 3706   5.595   2.029   7.124  0.5139 -0.5352 -1.8807
   51CHL1   H4B 3707   5.520   1.884   7.127  1.0153 -0.2415 -0.8063
   51CHL1    C5 3708   5.662   1.910   7.293  0.4404 -0.3742  0.3265
   51CHL1    C6 3709   5.591   1.836   7.378  0.7022  0.5222 -1.0585
   51CHL1    H6 3710   5.506   1.777   7.340 -1.1591  1.3482  1.5069
   51CHL1    C7 3711   5.619   1.823   7.519  0.3788  0.3425 -0.1210
   51CHL1   H7A 3712   5.526   1.845   7.576  1.2613  0.7118  1.2331
   51CHL1   H7B 3713   5.660   1.723   7.544 -1.0639 -0.2180  0.1303
   51CHL1    C8 3714   5.725   1.926   7.572 -0.8823 -0.4974  0.4079
   51CHL1    H8 3715   5.686   2.029   7.588  2.8648  1.0591  0.4401
   51CHL1   C14 3716   5.779   1.874   7.707  0.2880  0.0915  0.6498
   51CHL1   H14 3717   5.827   1.774   7.693  1.3605  0.7595 -0.6450
   51CHL1   C15 3718   5.673   1.852   7.813 -1.2442  0.1820 -0.2697
   51CHL1  H15A 3719   5.606   1.939   7.828 -1.9530 -0.4670  0.3704
   51CHL1  H15B 3720   5.616   1.758   7.800 -0.6250 -0.0854 -1.1667
   51CHL1   C16 3721   5.765   1.834   7.945 -0.4876  0.2438  0.0471
   51CHL1  H16A 3722   5.738   1.875   8.044  3.6524 -0.9586  1.8660
   51CHL1  H16B 3723   5.778   1.726   7.970 -0.8355 -0.7139 -3.3611
   51CHL1   C17 3724   5.908   1.892   7.901 -0.1652 -0.2732 -0.7344
   51CHL1   H17 3725   5.966   1.799   7.882 -0.0759 -1.0866  2.8287
   51CHL1   C13 3726   5.880   1.963   7.765 -0.7033  0.0180  0.2285
   51CHL1   C18 3727   5.833   2.106   7.787 -0.1585 -1.0093  0.1356
   51CHL1  H18A 3728   5.745   2.104   7.855 -0.1146 -1.7686  0.1835
   51CHL1  H18B 3729   5.911   2.164   7.841  0.6834  1.2253 -3.1984
   51CHL1  H18C 3730   5.814   2.157   7.690 -0.8673 -1.9236 -0.2239
   51CHL1   C12 3731   6.003   1.974   7.673  0.4420 -0.2511  0.0241
   51CHL1  H12A 3732   6.082   2.050   7.690  0.1219 -0.4545  2.8772
   51CHL1  H12B 3733   6.062   1.880   7.680  1.0748  0.2328  1.5350
   51CHL1   C11 3734   5.961   2.021   7.531 -0.5357 -0.0841  0.0836
   51CHL1  H11A 3735   5.943   2.130   7.520  0.0762  0.0932  0.7578
   51CHL1  H11B 3736   6.044   1.997   7.461 -0.1671  0.5410  0.2991
   51CHL1    C9 3737   5.844   1.936   7.471 -0.1004  0.5734 -0.7594
   51CHL1    H9 3738   5.897   1.839   7.462  0.1552  0.6183  0.1568
   51CHL1   C10 3739   5.798   1.972   7.328 -0.3306 -0.7582  0.0508
   51CHL1   C19 3740   5.798   2.124   7.316 -0.2368  0.2356 -0.8258
   51CHL1  H19A 3741   5.760   2.176   7.406 -2.1970 -2.0765 -0.2385
   51CHL1  H19B 3742   5.902   2.156   7.293  0.4041 -1.0745  0.1392
   51CHL1  H19C 3743   5.751   2.158   7.221  0.5890  2.6083 -0.4570
   51CHL1    C1 3744   5.904   1.918   7.227  0.2769  0.1509  1.2707
   51CHL1   H1A 3745   6.000   1.969   7.249  0.3803  0.3833  0.3278
   51CHL1   H1B 3746   5.912   1.812   7.259  1.2238 -0.0037  0.5604
   51CHL1    C2 3747   5.861   1.920   7.081 -0.7779 -0.8203  0.1471
   51CHL1   H2A 3748   5.932   1.860   7.021 -0.4502 -0.3383  0.0401
   51CHL1   H2B 3749   5.870   2.024   7.041  1.5983 -1.2768 -0.6549
   51CHL1   C20 3750   5.983   1.958   8.022  0.1012 -0.3165 -0.0617
   51CHL1   H20 3751   5.936   2.054   8.054  1.1615 -0.3774  1.7901
   51CHL1   C21 3752   6.127   1.994   7.982  0.1859  0.8313  0.6382
   51CHL1  H21A 3753   6.193   2.012   8.069  0.3913  1.1269  0.4197
   51CHL1  H21B 3754   6.123   2.084   7.917 -0.4853 -0.5222 -1.2903
   51CHL1  H21C 3755   6.166   1.911   7.919  0.9205 -0.6527  2.9270
   51CHL1   C22 3756   5.991   1.871   8.156  0.9022  0.3061  0.3054
   51CHL1  H22A 3757   6.007   1.937   8.244  1.1556 -0.3459  0.7569
   51CHL1  H22B 3758   5.897   1.815   8.170  1.4247 -1.1264 -1.5671
   51CHL1   C23 3759   6.110   1.767   8.172  0.3840 -0.0080  0.2620
   51CHL1  H23A 3760   6.096   1.689   8.093 -0.0237 -0.1050  0.4248
   51CHL1  H23B 3761   6.210   1.813   8.163  0.8705 -1.3162 -1.9334
   51CHL1   C24 3762   6.090   1.674   8.290 -0.6797 -0.1451 -0.4281
   51CHL1  H24A 3763   5.993   1.621   8.284 -0.0706 -1.4774  1.0884
   51CHL1  H24B 3764   6.168   1.595   8.298 -1.3172 -0.7478 -0.1659
   51CHL1   C25 3765   6.085   1.753   8.423 -0.5474 -0.0310 -0.4372
   51CHL1   H25 3766   5.984   1.797   8.436 -0.9992 -1.5397  1.6981
   51CHL1   C26 3767   6.090   1.652   8.546  0.1465 -0.5677 -0.7020
   51CHL1  H26A 3768   6.080   1.710   8.640 -1.6690  0.5511 -1.5331
   51CHL1  H26B 3769   6.010   1.577   8.533  1.7285 -2.2802 -0.9401
   51CHL1  H26C 3770   6.191   1.606   8.558  0.2366 -0.1325  0.3330
   51CHL1   C27 3771   6.197   1.857   8.421  0.0780 -0.5387 -1.0071
   51CHL1  H27A 3772   6.289   1.806   8.387  1.1317 -1.4767  2.7851
   51CHL1  H27B 3773   6.172   1.955   8.374  0.3009  0.1110  0.1924
   51CHL1  H27C 3774   6.220   1.879   8.528  0.0533 -1.5064 -0.7876
   52CHL1    C3 3775   3.935   2.122   7.108  0.2287 -0.2600  0.6160
   52CHL1    H3 3776   3.957   2.231   7.117  0.7302 -0.1531 -1.3910
   52CHL1    O3 3777   3.888   2.097   6.979  0.4066 -0.8417 -0.0822
   52CHL1   H3' 3778   3.951   2.034   6.943  2.0871  0.8208 -0.2259
   52CHL1    C4 3779   4.052   2.033   7.138 -0.1545 -0.0683 -0.4209
   52CHL1   H4A 3780   4.030   1.925   7.124  1.8836 -0.8443  1.7509
   52CHL1   H4B 3781   4.129   2.047   7.059 -0.2227  3.2136 -0.0217
   52CHL1    C5 3782   4.101   2.049   7.281 -0.0631  0.3179 -0.0045
   52CHL1    C6 3783   4.233   2.061   7.308  0.3436  0.3786  0.2374
   52CHL1    H6 3784   4.294   2.079   7.219  0.4150  1.9684  0.5730
   52CHL1    C7 3785   4.293   2.077   7.445  0.3414 -0.0004  0.2442
   52CHL1   H7A 3786   4.385   2.016   7.450 -0.3650 -1.1373 -0.2201
   52CHL1   H7B 3787   4.321   2.185   7.448 -0.7800  0.5464 -3.4913
   52CHL1    C8 3788   4.196   2.024   7.560  0.2488  0.3950  0.5023
   52CHL1    H8 3789   4.199   1.913   7.558  2.0162  0.3922 -2.2675
   52CHL1   C14 3790   4.236   2.074   7.701  0.1140  0.3405 -0.7420
   52CHL1   H14 3791   4.215   2.183   7.705  0.3077  0.3800 -0.7777
   52CHL1   C15 3792   4.392   2.068   7.738  0.6231 -0.1515  0.3614
   52CHL1  H15A 3793   4.433   1.967   7.717  0.0793 -0.3767  0.3721
   52CHL1  H15B 3794   4.453   2.145   7.685 -1.5932  0.6054 -1.2103
   52CHL1   C16 3795   4.389   2.084   7.887  0.0177  0.3897 -0.1990
   52CHL1  H16A 3796   4.445   1.997   7.930 -0.5415  0.3434  0.4603
   52CHL1  H16B 3797   4.430   2.180   7.925  2.6354 -1.1258  1.0908
   52CHL1   C17 3798   4.238   2.081   7.940  0.0958 -0.3193  0.7116
   52CHL1   H17 3799   4.201   2.186   7.949 -0.3626 -0.4068 -0.0952
   52CHL1   C13 3800   4.162   2.013   7.821  0.2596 -0.7823 -0.0801
   52CHL1   C18 3801   4.172   1.854   7.828  0.0084  0.9040 -0.0166
   52CHL1  H18A 3802   4.276   1.816   7.835  0.7518  2.1769 -2.7653
   52CHL1  H18B 3803   4.103   1.806   7.900  0.9372 -0.7752 -0.1978
   52CHL1  H18C 3804   4.141   1.804   7.734  0.0941 -0.2404  0.5446
   52CHL1   C12 3805   4.011   2.061   7.791 -0.1712  0.5324  0.1514
   52CHL1  H12A 3806   3.942   2.032   7.873  0.2796  1.5409  0.9229
   52CHL1  H12B 3807   4.014   2.172   7.796 -0.1577  0.5572 -0.4129
   52CHL1   C11 3808   3.968   2.019   7.655  0.0345 -0.0676 -0.1288
   52CHL1  H11A 3809   3.986   1.909   7.650  1.4958  0.1795 -0.9949
   52CHL1  H11B 3810   3.860   2.036   7.635 -0.1645 -1.7382 -0.6190
   52CHL1    C9 3811   4.054   2.072   7.542  0.0805 -0.0221 -0.2836
   52CHL1    H9 3812   4.057   2.184   7.542  0.3131 -0.0259 -0.8323
   52CHL1   C10 3813   3.997   2.038   7.396  0.0021 -0.2772 -0.1110
   52CHL1   C19 3814   3.937   1.893   7.405  0.0169 -0.1498 -0.1977
   52CHL1  H19A 3815   3.859   1.882   7.484  0.9954 -1.1817  0.6615
   52CHL1  H19B 3816   3.902   1.866   7.304 -1.8628  0.9707  0.1047
   52CHL1  H19C 3817   4.017   1.819   7.426 -0.1024 -0.2096  0.0495
   52CHL1    C1 3818   3.880   2.140   7.349 -0.3315 -0.3680 -0.4356
   52CHL1   H1A 3819   3.801   2.133   7.427 -0.0595  0.8966 -0.0173
   52CHL1   H1B 3820   3.918   2.244   7.351  0.2830 -0.5099 -2.4580
   52CHL1    C2 3821   3.828   2.100   7.211  0.6121 -0.2159 -0.3262
   52CHL1   H2A 3822   3.741   2.165   7.189 -0.5871 -1.7886 -0.4677
   52CHL1   H2B 3823   3.787   1.997   7.197 -0.1106  0.2751 -2.0772
   52CHL1   C20 3824   4.216   2.016   8.077  0.6421 -0.2551  0.2528
   52CHL1   H20 3825   4.219   1.905   8.075  2.7826 -0.2567  0.5447
   52CHL1   C21 3826   4.071   2.042   8.126 -0.5722 -0.9276  0.7335
   52CHL1  H21A 3827   3.999   1.973   8.075 -0.8898  0.0310 -0.1542
   52CHL1  H21B 3828   4.048   2.148   8.100 -0.0758 -0.4026  2.3324
   52CHL1  H21C 3829   4.056   2.029   8.235 -0.8570 -0.8694  0.7025
   52CHL1   C22 3830   4.320   2.060   8.190 -0.5543  1.3827  0.3189
   52CHL1  H22A 3831   4.423   2.037   8.157 -0.5193  0.0829  1.2464
   52CHL1  H22B 3832   4.305   2.170   8.190 -2.9963  1.1037  0.1074
   52CHL1   C23 3833   4.306   2.018   8.337  0.1304 -0.6623  0.4513
   52CHL1  H23A 3834   4.352   2.091   8.406 -0.6771 -0.6584  0.9940
   52CHL1  H23B 3835   4.203   2.032   8.373 -0.3193  1.9437 -1.5556
   52CHL1   C24 3836   4.365   1.884   8.359  0.0876  0.1007 -0.9999
   52CHL1  H24A 3837   4.298   1.810   8.309  2.4614 -3.1597  0.2992
   52CHL1  H24B 3838   4.466   1.878   8.313  0.0693 -0.0959 -1.0179
   52CHL1   C25 3839   4.374   1.838   8.505  0.0481 -0.1385 -0.1228
   52CHL1   H25 3840   4.284   1.887   8.549 -0.6066  0.5477 -2.1347
   52CHL1   C26 3841   4.388   1.696   8.531  0.0945  0.9483 -0.2676
   52CHL1  H26A 3842   4.387   1.677   8.641  2.7505  1.3707 -0.1136
   52CHL1  H26B 3843   4.312   1.632   8.481 -1.6702  2.7107  0.0215
   52CHL1  H26C 3844   4.490   1.668   8.498  0.8807  3.3512 -0.0596
   52CHL1   C27 3845   4.488   1.901   8.577  0.2491 -0.0857  0.1591
   52CHL1  H27A 3846   4.496   1.860   8.680  1.0238 -2.3459 -0.7348
   52CHL1  H27B 3847   4.586   1.878   8.530  1.2231  1.0665  1.5361
   52CHL1  H27C 3848   4.480   2.012   8.579  1.0271  0.0313 -1.5261
   53CHL1    C3 3849   4.572   5.824   7.168 -0.2831 -0.3213  0.1925
   53CHL1    H3 3850   4.468   5.798   7.196 -0.5255  1.8849  1.5492
   53CHL1    O3 3851   4.592   5.791   7.027 -0.3082 -0.2702  0.8231
   53CHL1   H3' 3852   4.686   5.806   7.014 -0.5740  0.0432 -0.9975
   53CHL1    C4 3853   4.596   5.974   7.189  0.1001 -0.0764  0.2551
   53CHL1   H4A 3854   4.682   6.006   7.126  0.0586  0.1661  0.3223
   53CHL1   H4B 3855   4.511   6.030   7.144 -0.3325 -1.4219 -0.6645
   53CHL1    C5 3856   4.600   6.003   7.338  0.3941 -0.3111  0.0199
   53CHL1    C6 3857   4.528   6.109   7.390 -0.5019  0.6248 -0.0770
   53CHL1    H6 3858   4.470   6.178   7.327 -0.8970  0.6631  0.3226
   53CHL1    C7 3859   4.516   6.144   7.531 -0.6984  0.0089  0.0587
   53CHL1   H7A 3860   4.533   6.253   7.538 -1.0185  0.1068 -0.6262
   53CHL1   H7B 3861   4.411   6.125   7.560 -0.7749 -0.4313 -0.4851
   53CHL1    C8 3862   4.613   6.066   7.616  0.2970  0.4715 -0.2292
   53CHL1    H8 3863   4.712   6.117   7.620  0.1115  0.8007  0.5423
   53CHL1   C14 3864   4.547   6.059   7.754 -0.2885 -0.1006  0.5435
   53CHL1   H14 3865   4.455   5.998   7.751 -0.5026  0.2084  0.7478
   53CHL1   C15 3866   4.499   6.191   7.811 -0.1879 -0.5639 -0.6626
   53CHL1  H15A 3867   4.563   6.281   7.803 -1.8877  0.7563 -0.1624
   53CHL1  H15B 3868   4.406   6.217   7.755  0.1002  0.4609 -0.6761
   53CHL1   C16 3869   4.481   6.159   7.964 -0.2876 -0.7869  0.7989
   53CHL1  H16A 3870   4.545   6.242   8.003  1.1381 -0.3777 -2.1272
   53CHL1  H16B 3871   4.377   6.157   8.002 -0.7749  0.5464 -0.4128
   53CHL1   C17 3872   4.553   6.019   7.998  0.3097  0.2298  1.1227
   53CHL1   H17 3873   4.474   5.942   7.987  0.5710 -0.1183  1.6376
   53CHL1   C13 3874   4.638   6.000   7.871  0.2460  0.5824 -0.7097
   53CHL1   C18 3875   4.773   6.082   7.877 -0.2103  0.1590 -0.2100
   53CHL1  H18A 3876   4.763   6.191   7.896  4.7301  1.0548 -1.2768
   53CHL1  H18B 3877   4.837   6.048   7.962 -0.2463 -1.3903 -0.7717
   53CHL1  H18C 3878   4.825   6.071   7.779 -0.7100  0.1630 -0.4771
   53CHL1   C12 3879   4.672   5.854   7.829  0.4021 -0.0224 -0.0642
   53CHL1  H12A 3880   4.747   5.808   7.897 -1.0446 -0.8438  1.0472
   53CHL1  H12B 3881   4.581   5.791   7.823 -0.0292  0.5683  0.1580
   53CHL1   C11 3882   4.724   5.850   7.680  0.0496  0.2700  0.1767
   53CHL1  H11A 3883   4.832   5.871   7.682  0.1458 -0.0103  3.3235
   53CHL1  H11B 3884   4.720   5.740   7.666 -0.4789  0.4348 -1.0877
   53CHL1    C9 3885   4.638   5.923   7.572 -0.0231 -0.2689  0.4485
   53CHL1    H9 3886   4.542   5.868   7.572  0.5847 -1.3701 -0.0982
   53CHL1   C10 3887   4.679   5.909   7.425  0.9612  0.5646  0.3256
   53CHL1   C19 3888   4.830   5.948   7.403  0.0918 -0.1980  0.2867
   53CHL1  H19A 3889   4.854   6.043   7.455 -0.0795  0.5398 -0.9483
   53CHL1  H19B 3890   4.893   5.862   7.434  0.1458  0.2718  1.5145
   53CHL1  H19C 3891   4.845   5.961   7.293  0.9465  0.0341  0.4229
   53CHL1    C1 3892   4.666   5.758   7.384 -0.0623  0.1091  0.4157
   53CHL1   H1A 3893   4.728   5.699   7.455 -2.1250  0.7535  2.8934
   53CHL1   H1B 3894   4.561   5.735   7.412 -0.3778 -1.6842 -1.8960
   53CHL1    C2 3895   4.677   5.734   7.236  0.1262 -0.0438  0.3275
   53CHL1   H2A 3896   4.651   5.627   7.221 -0.6312  0.1281  0.3991
   53CHL1   H2B 3897   4.778   5.766   7.202 -0.3587  1.0187 -0.1395
   53CHL1   C20 3898   4.621   6.017   8.131 -0.0836 -0.5325 -0.3900
   53CHL1   H20 3899   4.708   6.086   8.122 -2.9273  3.2630 -0.8548
   53CHL1   C21 3900   4.667   5.875   8.167  0.5060 -0.2493  0.6781
   53CHL1  H21A 3901   4.572   5.819   8.154  0.2375 -0.7033  3.7933
   53CHL1  H21B 3902   4.693   5.856   8.273 -2.5102 -2.8402  1.0895
   53CHL1  H21C 3903   4.737   5.830   8.094  1.0575 -2.5585  2.4996
   53CHL1   C22 3904   4.535   6.075   8.244  0.1337  0.4941  0.1268
   53CHL1  H22A 3905   4.596   6.089   8.336 -0.1478 -0.5333  0.4868
   53CHL1  H22B 3906   4.503   6.179   8.223 -1.5264  0.6746  3.0256
   53CHL1   C23 3907   4.406   5.997   8.296  0.9702 -0.0982  0.8784
   53CHL1  H23A 3908   4.348   5.964   8.207  1.6453 -1.2106  0.8426
   53CHL1  H23B 3909   4.442   5.905   8.345 -0.7140 -0.5597  1.3370
   53CHL1   C24 3910   4.331   6.064   8.413 -0.6665 -0.2610 -0.3904
   53CHL1  H24A 3911   4.400   6.104   8.491  1.0581 -1.2922 -1.3295
   53CHL1  H24B 3912   4.280   6.152   8.370 -0.9347 -0.3539 -0.2674
   53CHL1   C25 3913   4.221   5.967   8.464  0.0538  0.3188  0.0280
   53CHL1   H25 3914   4.273   5.871   8.482 -0.5887  0.0911  0.6943
   53CHL1   C26 3915   4.164   6.021   8.589 -0.2286  0.6467 -0.3606
   53CHL1  H26A 3916   4.117   6.121   8.578  0.0979  0.8037 -0.3627
   53CHL1  H26B 3917   4.095   5.956   8.646  2.5413 -0.5351  1.9035
   53CHL1  H26C 3918   4.256   6.033   8.651  1.3836  0.2627 -2.5847
   53CHL1   C27 3919   4.107   5.954   8.357 -0.1718 -0.1896  0.2914
   53CHL1  H27A 3920   4.120   5.932   8.248  1.4454 -0.1691  0.4585
   53CHL1  H27B 3921   4.045   5.875   8.405 -0.6470 -0.0997 -0.1626
   53CHL1  H27C 3922   4.049   6.048   8.351 -0.7241 -0.5996 -1.7204
   54CHL1    C3 3923   2.841   5.952   6.965  0.0030 -0.2218  0.3959
   54CHL1    H3 3924   2.936   5.912   7.006 -0.6867 -1.6614  0.6204
   54CHL1    O3 3925   2.852   5.958   6.819  0.1364  0.1267 -0.1675
   54CHL1   H3' 3926   2.773   6.008   6.797 -1.6266 -0.2077  4.2008
   54CHL1    C4 3927   2.723   5.865   7.007  1.4010  0.0684 -0.3620
   54CHL1   H4A 3928   2.630   5.897   6.956  1.7019  0.8434 -0.4428
   54CHL1   H4B 3929   2.742   5.762   6.970 -0.9747 -0.6365  0.2196
   54CHL1    C5 3930   2.711   5.856   7.156 -0.4154  0.0803 -0.6871
   54CHL1    C6 3931   2.712   5.735   7.226 -0.4927  0.3171 -0.9126
   54CHL1    H6 3932   2.724   5.640   7.173  1.9272  0.9296 -1.6031
   54CHL1    C7 3933   2.710   5.719   7.374  0.9506 -0.1250  0.0491
   54CHL1   H7A 3934   2.635   5.641   7.401 -0.1868 -0.0455 -2.5840
   54CHL1   H7B 3935   2.807   5.687   7.418  2.1256  1.9732 -0.9065
   54CHL1    C8 3936   2.651   5.854   7.438  0.3731 -0.3199  0.3300
   54CHL1    H8 3937   2.544   5.846   7.410  0.6699  0.5040 -1.1752
   54CHL1   C14 3938   2.667   5.848   7.584 -0.2041  0.1665 -0.6871
   54CHL1   H14 3939   2.775   5.857   7.607 -0.3691  0.9418 -0.1830
   54CHL1   C15 3940   2.615   5.727   7.664  0.5753  0.2920 -0.4684
   54CHL1  H15A 3941   2.515   5.711   7.619  0.6309 -0.4824 -0.3248
   54CHL1  H15B 3942   2.687   5.644   7.647  2.4822  2.1950 -2.3007
   54CHL1   C16 3943   2.600   5.773   7.812  0.6315  0.7395 -0.0417
   54CHL1  H16A 3944   2.499   5.740   7.846  1.1788  0.6395  1.6078
   54CHL1  H16B 3945   2.670   5.721   7.881  0.1150 -0.2629 -0.2548
   54CHL1   C17 3946   2.627   5.926   7.813 -0.2186  0.9659 -0.2018
   54CHL1   H17 3947   2.735   5.932   7.839 -0.3546  0.1411  0.5777
   54CHL1   C13 3948   2.609   5.968   7.663 -0.0907  0.2284 -0.0555
   54CHL1   C18 3949   2.457   5.978   7.636 -0.2932  0.2337 -0.1009
   54CHL1  H18A 3950   2.397   5.895   7.678 -2.0561  1.1631 -0.6858
   54CHL1  H18B 3951   2.424   6.081   7.662 -0.5754  0.5836 -1.7266
   54CHL1  H18C 3952   2.429   5.991   7.529 -0.4589 -1.4494 -0.2819
   54CHL1   C12 3953   2.677   6.095   7.617 -0.6929  0.5784 -0.0155
   54CHL1  H12A 3954   2.636   6.188   7.661 -0.5717 -0.3116  2.1062
   54CHL1  H12B 3955   2.787   6.085   7.629 -0.0317  4.0152 -1.9040
   54CHL1   C11 3956   2.669   6.115   7.461 -0.0669  0.1349  0.5904
   54CHL1  H11A 3957   2.569   6.156   7.433  0.4664  2.1863  1.4791
   54CHL1  H11B 3958   2.747   6.191   7.440  0.0174  0.4270  1.8575
   54CHL1    C9 3959   2.717   5.984   7.384 -0.2156  0.2646 -0.1037
   54CHL1    H9 3960   2.825   5.972   7.406 -0.0427  2.2174  0.3225
   54CHL1   C10 3961   2.703   5.992   7.227  0.1302 -0.2239  0.2859
   54CHL1   C19 3962   2.556   6.046   7.187  0.3030  0.3910  0.2521
   54CHL1  H19A 3963   2.544   6.154   7.207  0.7004  0.1902  1.7499
   54CHL1  H19B 3964   2.545   6.031   7.078  1.6419  2.4670 -0.2291
   54CHL1  H19C 3965   2.469   5.986   7.222 -0.0817 -0.5716 -2.2089
   54CHL1    C1 3966   2.811   6.089   7.172  0.0861 -0.3620  0.3819
   54CHL1   H1A 3967   2.789   6.187   7.218  0.1567 -0.1544 -0.0166
   54CHL1   H1B 3968   2.910   6.051   7.206  0.9387  0.7528 -0.7365
   54CHL1    C2 3969   2.817   6.092   7.018  0.6189  0.8735 -0.1725
   54CHL1   H2A 3970   2.900   6.160   6.991  1.5640 -1.0358 -2.4077
   54CHL1   H2B 3971   2.727   6.141   6.974  0.8755  0.5408 -1.0793
   54CHL1   C20 3972   2.552   5.999   7.922 -0.1659  0.1068 -0.1925
   54CHL1   H20 3973   2.443   5.975   7.916 -0.0376 -0.5034 -0.2121
   54CHL1   C21 3974   2.561   6.147   7.906  0.0771  0.0328  0.7550
   54CHL1  H21A 3975   2.504   6.192   7.822 -3.0156 -1.0159  2.1201
   54CHL1  H21B 3976   2.667   6.179   7.902  0.2610 -0.6764 -1.0758
   54CHL1  H21C 3977   2.523   6.204   7.994  3.4428  3.3961  0.2820
   54CHL1   C22 3978   2.589   5.955   8.067  0.5307  0.7789 -0.2010
   54CHL1  H22A 3979   2.585   5.844   8.064  1.5275  0.7042  0.4277
   54CHL1  H22B 3980   2.693   5.986   8.093  0.4433  0.9684 -0.0810
   54CHL1   C23 3981   2.491   6.000   8.176  0.6954  0.0248  0.2835
   54CHL1  H23A 3982   2.486   6.109   8.195 -1.8285 -0.1350  1.0067
   54CHL1  H23B 3983   2.389   5.971   8.144  0.5379  1.8347 -0.9876
   54CHL1   C24 3984   2.529   5.939   8.310 -0.2190  0.3951  0.6762
   54CHL1  H24A 3985   2.531   5.828   8.304  0.1857  0.4590 -0.7448
   54CHL1  H24B 3986   2.638   5.951   8.329 -0.5714  0.1662  3.2446
   54CHL1   C25 3987   2.465   5.996   8.431  0.1584  0.1055  0.2992
   54CHL1   H25 3988   2.449   6.104   8.412  0.3969 -0.2301 -2.1714
   54CHL1   C26 3989   2.343   5.915   8.471  0.0156  0.5083 -0.1012
   54CHL1  H26A 3990   2.291   5.963   8.557  0.2828 -1.9068  1.5185
   54CHL1  H26B 3991   2.270   5.903   8.389  0.5956  2.4028 -0.9470
   54CHL1  H26C 3992   2.375   5.814   8.506  1.7436  0.3056 -2.0768
   54CHL1   C27 3993   2.563   6.001   8.559 -0.4321 -0.8756 -0.0387
   54CHL1  H27A 3994   2.661   6.045   8.534  0.2776 -1.7508  1.0836
   54CHL1  H27B 3995   2.517   6.062   8.640  0.9250  0.3286 -0.1476
   54CHL1  H27C 3996   2.578   5.895   8.591  0.4612 -1.5111 -2.3922
   55CHL1    C3 3997   3.371   2.610   7.097 -0.7716  0.1298  0.0983
   55CHL1    H3 3998   3.450   2.570   7.030 -1.9215 -0.4834 -0.9337
   55CHL1    O3 3999   3.267   2.649   7.010  0.4112 -0.3285 -0.3122
   55CHL1   H3' 4000   3.295   2.729   6.963 -1.4189 -0.9491 -2.6497
   55CHL1    C4 4001   3.312   2.501   7.193  0.8027 -0.7995 -0.1388
   55CHL1   H4A 4002   3.218   2.547   7.230  2.3688  2.4429  0.1559
   55CHL1   H4B 4003   3.276   2.415   7.132 -0.3804 -0.6198  0.2698
   55CHL1    C5 4004   3.403   2.464   7.312 -0.4520 -0.3733 -0.0538
   55CHL1    C6 4005   3.432   2.342   7.341 -0.0917  0.3183 -0.0852
   55CHL1    H6 4006   3.390   2.256   7.285  1.5919  0.8788 -2.3777
   55CHL1    C7 4007   3.511   2.311   7.462 -0.2199 -0.0549  0.0122
   55CHL1   H7A 4008   3.464   2.225   7.513  0.6093 -0.6178 -0.1612
   55CHL1   H7B 4009   3.617   2.295   7.431  0.5106  2.5793  0.8512
   55CHL1    C8 4010   3.518   2.417   7.564  0.3582 -0.8045  0.2666
   55CHL1    H8 4011   3.424   2.436   7.620 -0.6504 -0.3735 -1.4791
   55CHL1   C14 4012   3.613   2.382   7.679  0.0309  0.1156  0.2875
   55CHL1   H14 4013   3.708   2.361   7.625 -0.3925  1.3680 -1.0009
   55CHL1   C15 4014   3.602   2.243   7.748  0.3785  0.1139  0.1337
   55CHL1  H15A 4015   3.494   2.222   7.765 -0.4308  2.0563 -2.1154
   55CHL1  H15B 4016   3.646   2.177   7.670  1.5085  2.3172 -1.1875
   55CHL1   C16 4017   3.681   2.255   7.881  0.0706  0.6749 -0.3699
   55CHL1  H16A 4018   3.606   2.242   7.962  0.5682 -0.3248 -0.0497
   55CHL1  H16B 4019   3.761   2.178   7.890 -2.0312 -1.6116 -0.2225
   55CHL1   C17 4020   3.732   2.405   7.883 -0.1955  0.5502 -0.1091
   55CHL1   H17 4021   3.827   2.411   7.825 -1.6165  0.7903 -2.5454
   55CHL1   C13 4022   3.638   2.485   7.786  0.2228 -0.2823 -0.2594
   55CHL1   C18 4023   3.504   2.530   7.854 -0.0378  0.5987  0.5358
   55CHL1  H18A 4024   3.472   2.445   7.917 -0.3937  0.0644 -0.3372
   55CHL1  H18B 4025   3.529   2.615   7.921 -1.4649  1.2478  0.2780
   55CHL1  H18C 4026   3.424   2.552   7.780 -0.1668 -2.2048 -0.2452
   55CHL1   C12 4027   3.696   2.606   7.713  0.1482 -0.0187 -0.1621
   55CHL1  H12A 4028   3.703   2.685   7.790  0.7000  1.0239 -1.2442
   55CHL1  H12B 4029   3.797   2.600   7.668  0.6317  0.6742  0.8123
   55CHL1   C11 4030   3.596   2.653   7.599 -0.3229 -0.1191  0.3367
   55CHL1  H11A 4031   3.499   2.684   7.642 -0.4086  0.3839 -0.2028
   55CHL1  H11B 4032   3.636   2.744   7.549 -1.8321  0.2467 -0.2527
   55CHL1    C9 4033   3.562   2.545   7.493 -0.1839 -0.3566  0.6733
   55CHL1    H9 4034   3.660   2.515   7.450  1.9047  1.3361  3.8480
   55CHL1   C10 4035   3.464   2.587   7.381  0.1278 -0.2502 -0.1262
   55CHL1   C19 4036   3.350   2.670   7.439 -0.3176 -0.3500 -0.0475
   55CHL1  H19A 4037   3.391   2.769   7.470  0.8685 -0.8413  0.0108
   55CHL1  H19B 4038   3.269   2.702   7.370  0.1304  0.0891 -0.3817
   55CHL1  H19C 4039   3.304   2.619   7.526  0.7178  0.7767  1.2085
   55CHL1    C1 4040   3.532   2.670   7.275  0.0462 -0.1241 -0.3963
   55CHL1   H1A 4041   3.572   2.761   7.325 -0.1557 -1.0584  1.5894
   55CHL1   H1B 4042   3.611   2.615   7.220  1.2832  1.2946 -0.1018
   55CHL1    C2 4043   3.436   2.729   7.166  0.1677 -0.4500  0.4673
   55CHL1   H2A 4044   3.499   2.777   7.088 -2.3538  1.4705 -0.4830
   55CHL1   H2B 4045   3.353   2.792   7.202  0.3695 -0.5278  1.0861
   55CHL1   C20 4046   3.749   2.457   8.029  0.9904  0.0798  0.0206
   55CHL1   H20 4047   3.651   2.454   8.082 -0.5911 -0.1747 -2.7361
   55CHL1   C21 4048   3.787   2.610   8.038  0.3846  0.0377 -0.2518
   55CHL1  H21A 4049   3.871   2.630   7.967  0.6732  2.3911  0.6679
   55CHL1  H21B 4050   3.817   2.638   8.141  0.3805  3.3663 -1.0443
   55CHL1  H21C 4051   3.702   2.668   7.997  1.6116  0.1877 -2.7850
   55CHL1   C22 4052   3.845   2.366   8.109  0.5493 -0.3554 -0.4319
   55CHL1  H22A 4053   3.798   2.268   8.130  0.1783  0.4671  3.3543
   55CHL1  H22B 4054   3.939   2.354   8.051  0.9307  1.2836 -0.2117
   55CHL1   C23 4055   3.882   2.409   8.249  0.3927  0.1367 -0.5363
   55CHL1  H23A 4056   3.945   2.500   8.241  1.3757 -0.2586  1.6966
   55CHL1  H23B 4057   3.794   2.432   8.312  2.5654  1.2547  2.3474
   55CHL1   C24 4058   3.961   2.306   8.330 -0.0855  0.3350 -0.4060
   55CHL1  H24A 4059   3.899   2.214   8.324  0.6951 -0.1166 -2.5306
   55CHL1  H24B 4060   4.059   2.275   8.287 -0.8983 -0.4149 -1.7793
   55CHL1   C25 4061   3.972   2.336   8.485 -0.2652  0.1870  0.1487
   55CHL1   H25 4062   3.867   2.346   8.519 -0.0304  1.7603  0.4860
   55CHL1   C26 4063   4.037   2.213   8.549  0.5305 -0.0629  0.1231
   55CHL1  H26A 4064   4.048   2.216   8.660  1.0964  1.6704  0.0441
   55CHL1  H26B 4065   3.971   2.126   8.528  2.8858 -2.2621  1.3513
   55CHL1  H26C 4066   4.137   2.187   8.510  0.6242  0.7472 -0.2042
   55CHL1   C27 4067   4.050   2.463   8.521 -0.4432  0.0234  0.0253
   55CHL1  H27A 4068   4.003   2.549   8.469  2.1395  0.6968 -1.3557
   55CHL1  H27B 4069   4.044   2.475   8.631  1.6531  0.6554  0.1170
   55CHL1  H27C 4070   4.157   2.452   8.493 -0.3305 -1.6417  0.9673
   56CHL1    C3 4071   3.240   5.670   6.931  0.3729  0.1300 -0.0200
   56CHL1    H3 4072   3.131   5.690   6.932  0.1483 -0.7401  2.7166
   56CHL1    O3 4073   3.301   5.667   6.805  0.1122  0.0757  1.2090
   56CHL1   H3' 4074   3.327   5.577   6.784 -1.6309  0.0655 -1.2741
   56CHL1    C4 4075   3.309   5.780   7.003 -0.2362 -0.4656  0.6066
   56CHL1   H4A 4076   3.419   5.767   7.003  0.1570  2.0677 -1.3867
   56CHL1   H4B 4077   3.292   5.880   6.956 -2.2974 -0.5831  1.0084
   56CHL1    C5 4078   3.259   5.785   7.150  0.2225  0.3412  0.5000
   56CHL1    C6 4079   3.186   5.887   7.192  0.2248  0.0137 -0.6632
   56CHL1    H6 4080   3.151   5.964   7.122 -1.6284  1.8138  2.0801
   56CHL1    C7 4081   3.132   5.892   7.331 -0.2531  0.1558 -0.3755
   56CHL1   H7A 4082   3.163   5.987   7.379  4.0827 -2.1052  1.9462
   56CHL1   H7B 4083   3.021   5.884   7.324 -0.6412  4.0310 -0.6361
   56CHL1    C8 4084   3.189   5.779   7.420  0.3274  0.2547  0.1892
   56CHL1    H8 4085   3.296   5.802   7.443  0.8126 -0.5676 -1.1430
   56CHL1   C14 4086   3.112   5.782   7.554  0.2970 -0.4714  0.1863
   56CHL1   H14 4087   3.008   5.752   7.530 -0.4682  1.3729  1.0348
   56CHL1   C15 4088   3.100   5.912   7.631 -0.5252 -0.2195 -0.4996
   56CHL1  H15A 4089   3.199   5.963   7.632 -0.3050 -0.6533 -0.1411
   56CHL1  H15B 4090   3.025   5.983   7.589 -0.2865 -0.8150 -1.9661
   56CHL1   C16 4091   3.053   5.866   7.773 -0.2097 -0.6775 -0.1208
   56CHL1  H16A 4092   3.113   5.921   7.849  0.7704 -1.0733 -0.5960
   56CHL1  H16B 4093   2.946   5.891   7.792 -0.1448  0.5150 -1.1831
   56CHL1   C17 4094   3.068   5.708   7.776 -0.3959 -0.3956 -0.3635
   56CHL1   H17 4095   2.972   5.661   7.746  0.0425 -2.6502  1.4708
   56CHL1   C13 4096   3.165   5.678   7.661  0.5439  0.2646 -0.5375
   56CHL1   C18 4097   3.311   5.707   7.705  0.1314 -1.1933  0.1776
   56CHL1  H18A 4098   3.357   5.633   7.775 -0.3365  0.0482  1.8670
   56CHL1  H18B 4099   3.382   5.724   7.621 -0.9997  2.2046 -0.2409
   56CHL1  H18C 4100   3.318   5.808   7.750 -1.0164 -1.4082  0.8834
   56CHL1   C12 4101   3.158   5.537   7.597 -0.3574  0.1022 -0.7729
   56CHL1  H12A 4102   3.206   5.458   7.659  2.6661  1.2066 -1.4952
   56CHL1  H12B 4103   3.049   5.518   7.587 -0.9168  0.7210  2.8366
   56CHL1   C11 4104   3.225   5.532   7.455  0.6156 -0.0443  0.2694
   56CHL1  H11A 4105   3.332   5.539   7.485  0.6807 -2.3928  0.7771
   56CHL1  H11B 4106   3.209   5.430   7.413  1.7238  0.1242 -0.6019
   56CHL1    C9 4107   3.184   5.643   7.353  0.3198  0.9394 -0.5142
   56CHL1    H9 4108   3.079   5.630   7.317  0.0601  2.4341 -0.3533
   56CHL1   C10 4109   3.273   5.650   7.216  0.3290  0.6063 -0.7589
   56CHL1   C19 4110   3.419   5.625   7.249 -0.4901  0.1662 -0.2833
   56CHL1  H19A 4111   3.485   5.630   7.160 -0.8849 -0.7249 -0.6436
   56CHL1  H19B 4112   3.451   5.705   7.318 -0.4094 -1.3386  1.5181
   56CHL1  H19C 4113   3.424   5.526   7.299 -1.0640 -1.1442 -2.6486
   56CHL1    C1 4114   3.223   5.526   7.140  0.5674 -0.3908  0.1252
   56CHL1   H1A 4115   3.276   5.432   7.169  0.8402 -1.0116 -2.1782
   56CHL1   H1B 4116   3.114   5.521   7.162  0.2786  0.9046 -0.9372
   56CHL1    C2 4117   3.262   5.527   6.988  0.2677 -0.1487 -0.4142
   56CHL1   H2A 4118   3.210   5.453   6.924 -0.4066 -2.2559  2.3791
   56CHL1   H2B 4119   3.371   5.505   6.995  0.2996  0.5439  2.3188
   56CHL1   C20 4120   3.080   5.656   7.927  0.0430 -0.0011  0.0140
   56CHL1   H20 4121   3.178   5.685   7.971 -0.4841  2.9971 -0.5423
   56CHL1   C21 4122   3.078   5.499   7.926 -0.0736 -0.8446 -0.3903
   56CHL1  H21A 4123   3.062   5.444   8.022  1.2663 -0.0351  0.3357
   56CHL1  H21B 4124   3.178   5.463   7.892 -0.3584 -1.5297 -0.5184
   56CHL1  H21C 4125   3.004   5.473   7.847  0.1316  2.7078 -1.9491
   56CHL1   C22 4126   2.972   5.716   8.021 -0.0532 -0.3014 -0.0619
   56CHL1  H22A 4127   2.977   5.826   8.035  0.7371 -0.2738 -0.4887
   56CHL1  H22B 4128   2.869   5.700   7.982  0.5016 -2.1295 -0.8841
   56CHL1   C23 4129   2.974   5.667   8.161 -0.1545 -0.3460 -0.2477
   56CHL1  H23A 4130   2.944   5.561   8.179  2.9739 -1.2332  0.3119
   56CHL1  H23B 4131   3.077   5.667   8.202  0.4518  0.5158 -1.7220
   56CHL1   C24 4132   2.891   5.754   8.256  0.1835  0.5857  0.5359
   56CHL1  H24A 4133   2.926   5.859   8.247 -0.2548  0.7954  1.1837
   56CHL1  H24B 4134   2.788   5.737   8.216  0.1182 -1.6975  1.4967
   56CHL1   C25 4135   2.897   5.714   8.405  0.5555  0.4558 -0.8451
   56CHL1   H25 4136   2.838   5.788   8.463  0.1264 -0.7747  0.3375
   56CHL1   C26 4137   2.840   5.575   8.430 -0.1766  0.2949 -0.5558
   56CHL1  H26A 4138   2.808   5.573   8.537  0.9783  1.2307 -0.1593
   56CHL1  H26B 4139   2.914   5.493   8.426 -1.0543 -0.4652 -1.5023
   56CHL1  H26C 4140   2.765   5.551   8.352 -1.3122  2.8131 -0.3528
   56CHL1   C27 4141   3.044   5.724   8.456  0.0772  0.3683 -0.0249
   56CHL1  H27A 4142   3.111   5.655   8.401 -0.9048 -0.1632 -0.5803
   56CHL1  H27B 4143   3.087   5.825   8.439  3.3969 -0.6181  1.6443
   56CHL1  H27C 4144   3.050   5.691   8.562 -0.8251 -0.0749 -0.0956
   57SAPC     N 4145   5.593   6.756  11.151 -0.3789 -0.4973 -0.0203
   57SAPC   C12 4146   5.583   6.792  11.003 -0.1009 -0.1094 -0.2476
   57SAPC  H12A 4147   5.550   6.701  10.954  0.7269 -0.8738  0.5775
   57SAPC  H12B 4148   5.683   6.805  10.964 -0.0577  0.0941 -0.0657
   57SAPC   C13 4149   5.695   6.649  11.162 -0.1180 -0.5459 -0.2563
   57SAPC  H13A 4150   5.794   6.688  11.149  0.2339 -0.8347  1.3154
   57SAPC  H13B 4151   5.692   6.614  11.264 -0.4236  0.7671  0.2057
   57SAPC  H13C 4152   5.686   6.567  11.092  0.6207 -0.8831  0.0251
   57SAPC   C14 4153   5.639   6.865  11.245 -0.1408 -0.0058  0.1654
   57SAPC  H14A 4154   5.676   6.818  11.335  0.0438 -2.1373 -0.9417
   57SAPC  H14B 4155   5.708   6.934  11.199 -0.3534  3.0232  3.9391
   57SAPC  H14C 4156   5.555   6.925  11.274  0.6057  0.6429  1.0328
   57SAPC   C15 4157   5.460   6.725  11.197 -0.2310  0.4600  0.2817
   57SAPC  H15A 4158   5.442   6.695  11.299 -1.6963  0.6481  0.0971
   57SAPC  H15B 4159   5.399   6.813  11.186 -1.4006 -0.4589 -0.8554
   57SAPC  H15C 4160   5.417   6.648  11.135 -1.0999  1.4883 -0.4338
   57SAPC   C11 4161   5.483   6.904  10.960 -0.1057  0.0346 -0.2118
   57SAPC  H11A 4162   5.501   6.993  11.024 -2.8354  0.9741 -0.6374
   57SAPC  H11B 4163   5.380   6.865  10.971  0.9702 -2.9116  0.5567
   57SAPC     P 4164   5.638   7.005  10.774  0.0009  0.2476  0.1341
   57SAPC   O13 4165   5.613   7.115  10.681  0.5840 -0.6366  0.1816
   57SAPC   O14 4166   5.730   7.037  10.886  0.2478 -0.1473  0.2628
   57SAPC   O12 4167   5.504   6.945  10.829  0.0208  0.1349  0.0702
   57SAPC   O11 4168   5.697   6.875  10.694 -0.4016  0.1383  0.3811
   57SAPC    C1 4169   5.614   6.782  10.623  0.2580 -0.9316 -0.2638
   57SAPC    HA 4170   5.650   6.680  10.648  2.0802 -0.0030  1.1713
   57SAPC    HB 4171   5.510   6.794  10.659 -0.3049  2.7269 -2.5922
   57SAPC    C2 4172   5.613   6.803  10.471  0.2826 -0.6775 -0.5433
   57SAPC    HS 4173   5.529   6.872  10.452  0.4896 -0.3254 -0.1958
   57SAPC   O21 4174   5.607   6.674  10.403 -0.3284 -0.1052 -0.4235
   57SAPC   C21 4175   5.504   6.669  10.322  0.6702  0.7705  0.1490
   57SAPC   O22 4176   5.416   6.750  10.312 -0.2550  0.1299 -0.6897
   57SAPC   C22 4177   5.519   6.541  10.238  0.5854  0.2171  0.6295
   57SAPC   H2R 4178   5.534   6.461  10.313  0.2513  0.2131  0.6965
   57SAPC   H2S 4179   5.423   6.518  10.186  1.6045 -0.1962 -1.1664
   57SAPC    C3 4180   5.745   6.879  10.431 -0.2576  0.1187 -0.4482
   57SAPC    HX 4181   5.829   6.818  10.469  0.1197  0.0555 -1.3484
   57SAPC    HY 4182   5.747   6.977  10.483 -0.8612  0.3083 -0.7806
   57SAPC   O31 4183   5.767   6.888  10.286 -0.4011 -0.1304 -0.2470
   57SAPC   C31 4184   5.758   7.003  10.232 -0.4889 -0.5798  0.0599
   57SAPC   O32 4185   5.754   7.112  10.290  0.2907 -0.1888  0.2105
   57SAPC   C32 4186   5.758   6.991  10.082 -0.2161  0.1696 -0.4376
   57SAPC   H2X 4187   5.747   6.885  10.051 -0.4761  0.1862 -0.4025
   57SAPC   H2Y 4188   5.857   7.026  10.046  0.3530 -0.8046  0.1291
   57SAPC   C23 4189   5.633   6.533  10.136  0.0247  0.3541  0.4667
   57SAPC   H3R 4190   5.634   6.425  10.111 -0.3972  0.6028 -0.6646
   57SAPC   H3S 4191   5.727   6.567  10.185 -0.5867  3.2941 -0.2152
   57SAPC   C24 4192   5.610   6.613  10.004 -0.1786  0.7370 -0.4689
   57SAPC   H4R 4193   5.709   6.618   9.952 -0.1652  0.4941 -0.4687
   57SAPC   H4S 4194   5.581   6.717  10.030 -0.7114 -0.1963  3.2109
   57SAPC   C25 4195   5.507   6.539   9.918 -0.0558  0.3664 -0.0518
   57SAPC   H5R 4196   5.412   6.498   9.955  0.7472 -1.2977  0.2393
   57SAPC   C26 4197   5.519   6.532   9.781  0.4435 -0.8886 -0.2398
   57SAPC   H6R 4198   5.438   6.494   9.718  0.5579  1.0010 -1.6092
   57SAPC   C27 4199   5.636   6.588   9.698  0.1226  0.0774 -0.2760
   57SAPC   H7R 4200   5.672   6.521   9.617 -1.3731  2.0201 -2.7340
   57SAPC   H7S 4201   5.727   6.600   9.760 -1.2960 -1.1481  2.1705
   57SAPC   C28 4202   5.609   6.711   9.623  0.3381 -0.6836  0.2527
   57SAPC   H8R 4203   5.591   6.799   9.686 -1.0916  0.6285 -1.8668
   57SAPC   C29 4204   5.620   6.727   9.487 -0.0341  0.2372 -0.2792
   57SAPC   H9R 4205   5.596   6.826   9.447 -0.5108 -0.0537 -0.7185
   57SAPC  C210 4206   5.656   6.625   9.384 -0.5007 -0.0408  0.2603
   57SAPC  H10R 4207   5.603   6.629   9.287 -0.7561 -2.5585  0.2177
   57SAPC  H10S 4208   5.640   6.525   9.429  2.5095 -0.7981 -0.1005
   57SAPC  C211 4209   5.804   6.609   9.364  0.5788 -0.0454  0.1278
   57SAPC  H11R 4210   5.853   6.575   9.456 -0.8106 -1.7892  0.2755
   57SAPC  C212 4211   5.871   6.621   9.247 -0.0484  0.0721 -0.5852
   57SAPC  H12R 4212   5.978   6.597   9.246 -0.1736 -0.5391  0.0893
   57SAPC  C213 4213   5.810   6.653   9.111  0.6056  0.1677 -0.0903
   57SAPC  H13R 4214   5.877   6.719   9.051  1.6949 -0.1348  0.7496
   57SAPC  H13S 4215   5.708   6.693   9.125  0.2841 -1.3456  2.4908
   57SAPC  C214 4216   5.788   6.525   9.029  0.3018  0.3137 -1.0716
   57SAPC  H14R 4217   5.728   6.445   9.074  1.7071 -1.5591 -2.3813
   57SAPC  C215 4218   5.851   6.489   8.915 -0.4272 -0.0639 -0.0666
   57SAPC  H15R 4219   5.849   6.384   8.884 -3.7078 -0.0230 -0.3743
   57SAPC  C216 4220   5.951   6.583   8.841  0.6271  0.5186 -0.1613
   57SAPC  H16R 4221   6.049   6.589   8.894 -0.0003  1.5284  0.9329
   57SAPC  H16S 4222   5.905   6.683   8.846 -0.2026  0.0935  1.8484
   57SAPC  C217 4223   5.981   6.546   8.696  0.1777 -0.0470 -0.3712
   57SAPC  H17R 4224   5.988   6.436   8.680  2.4283 -0.1699  1.0166
   57SAPC  H17S 4225   6.080   6.592   8.673  0.1670  1.6564  2.5745
   57SAPC  C218 4226   5.876   6.608   8.596 -0.0269  0.1728  0.0081
   57SAPC  H18R 4227   5.776   6.565   8.618  0.4897 -1.2148 -0.2964
   57SAPC  H18S 4228   5.882   6.572   8.491  0.3755  0.0540  0.0721
   57SAPC  C219 4229   5.883   6.764   8.584  0.5636 -0.2105  0.1290
   57SAPC  H19R 4230   5.907   6.813   8.681 -0.2100 -0.0572  0.2542
   57SAPC  H19S 4231   5.781   6.799   8.557  0.3381 -0.7563  0.2719
   57SAPC  C220 4232   5.979   6.807   8.468  0.2493  0.4505 -0.3969
   57SAPC  H20R 4233   5.937   6.772   8.371  0.9253  0.0858 -0.5668
   57SAPC  H20S 4234   6.077   6.757   8.482 -0.1557 -0.6818 -1.3835
   57SAPC  H20T 4235   6.001   6.914   8.451 -0.5059  0.3202 -2.4119
   57SAPC   C33 4236   5.645   7.071  10.011 -0.3513 -0.2909  0.7691
   57SAPC   H3X 4237   5.670   7.179  10.015 -0.3139 -0.2877  0.4697
   57SAPC   H3Y 4238   5.551   7.045  10.064  0.1176 -0.0757  1.7246
   57SAPC   C34 4239   5.631   7.047   9.862 -0.1161 -0.7382 -0.6394
   57SAPC   H4X 4240   5.621   6.937   9.849  0.4246 -0.7441 -1.0635
   57SAPC   H4Y 4241   5.731   7.072   9.819 -0.2705  0.3807 -0.3694
   57SAPC   C35 4242   5.530   7.132   9.791 -0.5690  0.0911  0.7189
   57SAPC   H5X 4243   5.541   7.239   9.819 -0.5104  0.0850  0.7170
   57SAPC   H5Y 4244   5.424   7.108   9.818 -0.3825  0.3569  1.7529
   57SAPC   C36 4245   5.545   7.101   9.642 -0.2629 -0.1859  0.3436
   57SAPC   H6X 4246   5.494   7.005   9.621 -0.0096 -0.4340  0.8470
   57SAPC   H6Y 4247   5.652   7.090   9.612  0.1564  0.0461  1.6848
   57SAPC   C37 4248   5.475   7.210   9.553 -1.0279  0.0334  0.0093
   57SAPC   H7X 4249   5.512   7.312   9.580 -1.4002  0.8935 -2.4822
   57SAPC   H7Y 4250   5.365   7.205   9.569 -1.2575 -0.5260 -1.5588
   57SAPC   C38 4251   5.504   7.186   9.405 -0.8053  0.2564 -0.1462
   57SAPC   H8X 4252   5.614   7.195   9.398 -0.8744  2.5583  0.7203
   57SAPC   H8Y 4253   5.453   7.261   9.340 -0.5991  1.3045  0.8632
   57SAPC   C39 4254   5.450   7.053   9.353 -0.7830 -0.4083  0.9512
   57SAPC   H9X 4255   5.340   7.055   9.366 -1.1473 -0.8236 -1.5564
   57SAPC   H9Y 4256   5.480   6.960   9.406 -0.4319 -0.9864 -0.2218
   57SAPC  C310 4257   5.478   7.027   9.196  0.0740 -0.1476 -0.3213
   57SAPC  H10X 4258   5.430   7.104   9.133  0.8748 -0.0928 -0.8805
   57SAPC  H10Y 4259   5.433   6.930   9.166 -1.6086  0.9498 -1.4621
   57SAPC  C311 4260   5.629   7.030   9.159 -0.4471  0.3960 -0.1271
   57SAPC  H11X 4261   5.685   6.960   9.224 -0.7571 -1.9617 -2.2769
   57SAPC  H11Y 4262   5.663   7.135   9.173  1.6027 -0.0517 -1.3657
   57SAPC  C312 4263   5.679   6.986   9.019 -0.2669 -0.2710  0.3503
   57SAPC  H12X 4264   5.624   6.897   8.983 -1.0423 -0.2892  1.5175
   57SAPC  H12Y 4265   5.786   6.960   9.023 -0.0915  0.4483  3.5649
   57SAPC  C313 4266   5.652   7.100   8.919 -0.4755  0.1731  0.0272
   57SAPC  H13X 4267   5.729   7.181   8.924 -0.5944  0.3216 -0.4591
   57SAPC  H13Y 4268   5.562   7.144   8.967  0.4321  0.1709  1.8194
   57SAPC  C314 4269   5.614   7.043   8.783 -0.0474  0.7295 -0.1396
   57SAPC  H14X 4270   5.529   6.972   8.791 -0.9006  1.8567  1.1326
   57SAPC  H14Y 4271   5.698   6.979   8.747 -0.5187  0.5829 -1.0040
   57SAPC  C315 4272   5.593   7.141   8.669 -0.4846  0.3048 -0.4237
   57SAPC  H15X 4273   5.681   7.208   8.683  1.7898 -2.0521 -2.3391
   57SAPC  H15Y 4274   5.497   7.197   8.670 -0.5488  0.2586 -1.6518
   57SAPC  C316 4275   5.632   7.081   8.532  0.3416 -0.3535  0.0173
   57SAPC  H16X 4276   5.560   6.999   8.510  1.4231 -0.8125 -2.0065
   57SAPC  H16Y 4277   5.732   7.035   8.539  0.0409 -0.9883  0.2146
   57SAPC  C317 4278   5.641   7.172   8.410 -0.0774 -0.2208 -0.5968
   57SAPC  H17X 4279   5.696   7.132   8.322  0.4299  1.4441 -1.0754
   57SAPC  H17Y 4280   5.681   7.273   8.433 -0.7918  0.6089 -2.7815
   57SAPC  C318 4281   5.497   7.197   8.358 -0.0556  0.1072  0.0189
   57SAPC  H18X 4282   5.459   7.093   8.352 -1.9789  0.7159  0.7651
   57SAPC  H18Y 4283   5.496   7.250   8.261  0.2065 -0.9744 -0.5910
   57SAPC  H18Z 4284   5.447   7.255   8.439  0.5781 -1.3660  1.5222
   58SAPC     N 4285   0.198   5.965  10.913 -0.0826  0.2798  0.5597
   58SAPC   C12 4286   0.208   6.108  10.895  0.7889  0.1611  0.4020
   58SAPC  H12A 4287   0.107   6.147  10.901  0.7447  0.2514 -0.6958
   58SAPC  H12B 4288   0.249   6.119  10.796  0.9095 -0.5536  0.3655
   58SAPC   C13 4289   0.336   5.912  10.939  0.6715  0.4969 -0.5303
   58SAPC  H13A 4290   0.403   5.965  10.874  1.7031  1.7086  1.4149
   58SAPC  H13B 4291   0.371   5.941  11.037  1.0586  0.0477 -0.5332
   58SAPC  H13C 4292   0.331   5.804  10.940 -0.3113  0.5012  1.6988
   58SAPC   C14 4293   0.121   5.924  11.029  0.4290  0.7627 -0.1497
   58SAPC  H14A 4294   0.139   5.994  11.110  1.7402 -1.9049  2.0038
   58SAPC  H14B 4295   0.014   5.918  11.011  0.7236 -1.8052 -1.5066
   58SAPC  H14C 4296   0.150   5.825  11.058 -0.2499  0.3078 -0.9829
   58SAPC   C15 4297   0.139   5.895  10.792  0.4414 -0.0334 -0.4406
   58SAPC  H15A 4298   0.041   5.936  10.777  0.3678  0.1079  0.3528
   58SAPC  H15B 4299   0.196   5.897  10.700  2.2897  1.9958  0.6580
   58SAPC  H15C 4300   0.116   5.792  10.814 -2.8725  0.5274 -0.8720
   58SAPC   C11 4301   0.280   6.194  10.995  0.3038  0.1708 -0.5330
   58SAPC  H11A 4302   0.239   6.180  11.097  0.1809  0.2187 -0.5763
   58SAPC  H11B 4303   0.261   6.299  10.964 -0.1312  0.9007  2.0211
   58SAPC     P 4304   0.523   6.250  10.920 -0.4203  0.1084  0.0310
   58SAPC   O13 4305   0.565   6.370  10.996  0.9595  0.2055 -0.0001
   58SAPC   O14 4306   0.633   6.155  10.888 -0.1975  0.2952  0.4336
   58SAPC   O12 4307   0.417   6.175  11.007 -0.5179 -0.0157 -0.1302
   58SAPC   O11 4308   0.450   6.281  10.785 -0.7184 -0.1238  0.2953
   58SAPC    C1 4309   0.484   6.393  10.710  0.3035  0.2349  0.0691
   58SAPC    HA 4310   0.395   6.460  10.712 -0.4291 -0.7086 -0.2227
   58SAPC    HB 4311   0.577   6.442  10.746 -0.1678  0.1844  1.3974
   58SAPC    C2 4312   0.502   6.359  10.552 -0.0547  0.4811 -0.0517
   58SAPC    HS 4313   0.528   6.451  10.497 -0.8717 -0.2530 -1.7328
   58SAPC   O21 4314   0.373   6.315  10.504 -0.4450 -0.0973  0.1918
   58SAPC   C21 4315   0.286   6.411  10.480  0.5150  0.1658  0.4810
   58SAPC   O22 4316   0.301   6.533  10.499 -0.1767 -0.5639  0.2467
   58SAPC   C22 4317   0.153   6.355  10.419 -0.1435 -0.2047 -0.5418
   58SAPC   H2R 4318   0.109   6.288  10.496  1.0196 -1.6746 -1.0984
   58SAPC   H2S 4319   0.087   6.443  10.405 -0.8947 -0.8907 -1.4343
   58SAPC    C3 4320   0.603   6.237  10.542 -0.0885 -0.2291 -0.4096
   58SAPC    HX 4321   0.560   6.151  10.598 -1.0564 -0.3801 -1.3461
   58SAPC    HY 4322   0.694   6.267  10.597 -0.5293 -0.6251  0.5469
   58SAPC   O31 4323   0.644   6.202  10.412  0.3036 -0.5618 -0.0220
   58SAPC   C31 4324   0.557   6.124  10.353  0.4412  0.5927  0.4084
   58SAPC   O32 4325   0.453   6.077  10.395 -0.5099  0.2370 -0.1695
   58SAPC   C32 4326   0.610   6.118  10.204 -0.1497 -0.3188  0.8512
   58SAPC   H2X 4327   0.694   6.045  10.198 -1.0059 -1.2522 -0.3245
   58SAPC   H2Y 4328   0.655   6.218  10.186 -0.5772  0.0424  1.7076
   58SAPC   C23 4329   0.175   6.272  10.286 -1.0650 -0.5705 -0.0589
   58SAPC   H3R 4330   0.086   6.208  10.267 -1.0839 -0.9778  1.3108
   58SAPC   H3S 4331   0.260   6.203  10.303  0.7216  1.9165  1.8721
   58SAPC   C24 4332   0.213   6.365  10.166  0.8003 -0.4303 -0.6587
   58SAPC   H4R 4333   0.284   6.314  10.098 -0.5891 -1.6359 -1.2718
   58SAPC   H4S 4334   0.273   6.447  10.211 -0.3241 -0.2888  0.6513
   58SAPC   C25 4335   0.086   6.413  10.095  0.1648  0.1285  0.0646
   58SAPC   H5R 4336   0.004   6.420  10.168  2.3726 -0.2583  2.7639
   58SAPC   C26 4337   0.082   6.464   9.969 -0.1515  0.5158 -0.3544
   58SAPC   H6R 4338  -0.019   6.488   9.933 -0.3801  0.7431  0.4091
   58SAPC   C27 4339   0.194   6.463   9.872 -0.3435  0.7907  0.2793
   58SAPC   H7R 4340   0.207   6.356   9.844  0.6668  1.0238 -0.2007
   58SAPC   H7S 4341   0.289   6.494   9.921  0.0508  1.5481 -0.9141
   58SAPC   C28 4342   0.184   6.555   9.751 -0.1628  0.2928  0.0438
   58SAPC   H8R 4343   0.165   6.660   9.773  2.3312  0.7470  0.3496
   58SAPC   C29 4344   0.180   6.503   9.624  0.2366  0.4404  0.0590
   58SAPC   H9R 4345   0.169   6.564   9.533 -2.2344 -3.2307 -2.3169
   58SAPC  C210 4346   0.190   6.363   9.580  0.3493 -0.1389 -0.3940
   58SAPC  H10R 4347   0.155   6.296   9.662  1.7095 -0.5378 -0.1020
   58SAPC  H10S 4348   0.296   6.345   9.550  0.3155  0.6617 -1.0174
   58SAPC  C211 4349   0.101   6.333   9.465 -0.3415  0.4638  1.0028
   58SAPC  H11R 4350  -0.005   6.314   9.487 -0.2117  0.3926  1.5956
   58SAPC  C212 4351   0.137   6.328   9.332 -0.0111 -0.4225 -0.3649
   58SAPC  H12R 4352   0.063   6.299   9.256 -0.9336  2.5536 -0.7222
   58SAPC  C213 4353   0.280   6.359   9.277 -0.1834 -0.0176 -0.2517
   58SAPC  H13R 4354   0.319   6.444   9.337  0.4751 -0.5825  0.1327
   58SAPC  H13S 4355   0.257   6.387   9.172 -1.1308  0.5646  0.1039
   58SAPC  C214 4356   0.364   6.230   9.280  0.2331 -0.0150  0.4492
   58SAPC  H14R 4357   0.368   6.181   9.379 -0.6956  1.0142  1.0209
   58SAPC  C215 4358   0.445   6.187   9.179 -0.1298  0.4816 -0.1528
   58SAPC  H15R 4359   0.494   6.091   9.199 -0.7024  0.5473  1.8133
   58SAPC  C216 4360   0.479   6.262   9.049  0.9983 -0.7524  0.2690
   58SAPC  H16R 4361   0.589   6.260   9.039  0.9047 -0.8000 -0.9515
   58SAPC  H16S 4362   0.439   6.365   9.052 -3.2677 -2.2346  1.5376
   58SAPC  C217 4363   0.422   6.200   8.920  0.7886 -0.0586  0.5461
   58SAPC  H17R 4364   0.317   6.175   8.948  1.6955 -1.5060  2.9725
   58SAPC  H17S 4365   0.475   6.103   8.903 -0.2783 -0.1783 -2.9892
   58SAPC  C218 4366   0.446   6.292   8.797  0.1798  0.7907 -0.6000
   58SAPC  H18R 4367   0.556   6.311   8.796  0.3226  0.0001 -0.6345
   58SAPC  H18S 4368   0.394   6.390   8.803 -0.0414  0.6551 -0.3144
   58SAPC  C219 4369   0.404   6.228   8.667 -0.1745  0.0339  0.0598
   58SAPC  H19R 4370   0.390   6.119   8.682 -0.8935  0.1078 -0.0180
   58SAPC  H19S 4371   0.492   6.241   8.601  0.7029  4.9870  1.7967
   58SAPC  C220 4372   0.281   6.270   8.587 -0.0799  0.2442  0.8129
   58SAPC  H20R 4373   0.298   6.365   8.532 -1.2202 -0.5885 -1.1009
   58SAPC  H20S 4374   0.184   6.284   8.639 -0.0345  3.0073  0.3230
   58SAPC  H20T 4375   0.284   6.202   8.499  1.2977  0.7203  0.4782
   58SAPC   C33 4376   0.509   6.073  10.093 -0.0108 -0.5121  0.4467
   58SAPC   H3X 4377   0.416   6.132  10.103  0.2251 -0.4469  2.8600
   58SAPC   H3Y 4378   0.489   5.965  10.110  0.6659 -0.8161 -0.5910
   58SAPC   C34 4379   0.565   6.099   9.953 -0.1753  0.7126  0.5974
   58SAPC   H4X 4380   0.667   6.055   9.943 -0.6582 -0.5547  1.0291
   58SAPC   H4Y 4381   0.586   6.207   9.938  1.4821  0.6398  2.0680
   58SAPC   C35 4382   0.472   6.053   9.839  0.7300  0.6116  1.1717
   58SAPC   H5X 4383   0.368   6.090   9.853 -1.3070 -3.3995 -1.2636
   58SAPC   H5Y 4384   0.464   5.942   9.831  2.0703  0.5879 -0.4143
   58SAPC   C36 4385   0.519   6.112   9.706 -0.1096 -0.3175  1.2273
   58SAPC   H6X 4386   0.562   6.214   9.720 -1.4266  0.4635 -0.1503
   58SAPC   H6Y 4387   0.425   6.122   9.648  1.0064  0.1793 -0.5949
   58SAPC   C37 4388   0.618   6.017   9.639 -0.7196 -0.3430 -0.3784
   58SAPC   H7X 4389   0.602   5.909   9.657 -0.6459  0.1070  2.9932
   58SAPC   H7Y 4390   0.722   6.037   9.674  1.4579 -2.8100 -4.5852
   58SAPC   C38 4391   0.634   6.027   9.485  0.0361  0.5850  0.7004
   58SAPC   H8X 4392   0.614   6.135   9.465  0.9699  0.8731  1.2614
   58SAPC   H8Y 4393   0.547   5.975   9.440  0.6694 -0.6374  0.8629
   58SAPC   C39 4394   0.767   5.972   9.430  0.1861  0.5494  1.0122
   58SAPC   H9X 4395   0.799   5.873   9.469 -2.0561 -0.3109  0.8540
   58SAPC   H9Y 4396   0.847   6.046   9.449  0.8071  0.2073 -0.2225
   58SAPC  C310 4397   0.761   5.942   9.282  0.6010 -0.4674 -0.0822
   58SAPC  H10X 4398   0.664   5.917   9.234  0.9084 -1.3364 -0.2792
   58SAPC  H10Y 4399   0.827   5.854   9.265  0.3959 -0.5976 -0.2091
   58SAPC  C311 4400   0.804   6.067   9.207 -0.0769  0.3339  1.2561
   58SAPC  H11X 4401   0.906   6.096   9.241  1.2594 -0.1805 -2.0324
   58SAPC  H11Y 4402   0.726   6.142   9.233 -2.4022 -1.5203  0.0737
   58SAPC  C312 4403   0.802   6.047   9.055 -0.8227 -0.4462 -0.3283
   58SAPC  H12X 4404   0.701   6.070   9.015 -1.2076  1.1827  1.4510
   58SAPC  H12Y 4405   0.822   5.940   9.030 -1.2017 -0.6752  0.3228
   58SAPC  C313 4406   0.903   6.116   8.962 -0.8074 -0.3448 -0.7508
   58SAPC  H13X 4407   1.004   6.074   8.980 -0.9976 -0.4718  0.0320
   58SAPC  H13Y 4408   0.906   6.227   8.970 -0.4968 -0.5015  3.7730
   58SAPC  C314 4409   0.862   6.088   8.817  0.0315  0.1870  1.1642
   58SAPC  H14X 4410   0.752   6.098   8.813  0.1567  1.3294  0.1136
   58SAPC  H14Y 4411   0.885   5.981   8.798 -1.2519  0.0580  0.2651
   58SAPC  C315 4412   0.925   6.173   8.705  0.2357 -0.1627  0.0925
   58SAPC  H15X 4413   1.033   6.150   8.698  0.5498  0.4453  2.2252
   58SAPC  H15Y 4414   0.924   6.281   8.729  0.4577  0.0879 -1.0044
   58SAPC  C316 4415   0.850   6.154   8.568  0.7580 -0.4493 -0.8553
   58SAPC  H16X 4416   0.746   6.182   8.596  0.2364  0.0431 -3.1053
   58SAPC  H16Y 4417   0.835   6.045   8.552 -1.9267 -0.2965  0.0253
   58SAPC  C317 4418   0.888   6.234   8.444  0.4442  0.0992 -0.5366
   58SAPC  H17X 4419   0.985   6.206   8.399 -0.7051  1.9251 -4.5946
   58SAPC  H17Y 4420   0.909   6.331   8.495  1.8897 -0.1700 -0.5686
   58SAPC  C318 4421   0.784   6.247   8.332 -0.0337  0.2958  0.4245
   58SAPC  H18X 4422   0.765   6.152   8.277 -1.3517  1.5345 -1.3787
   58SAPC  H18Y 4423   0.813   6.330   8.265  1.0189  0.0559  0.5664
   58SAPC  H18Z 4424   0.688   6.275   8.380 -0.3969  0.7276 -0.5342
   59SAPC     N 4425   0.893   6.144  11.196 -0.4656  0.7269 -0.0508
   59SAPC   C12 4426   0.841   6.239  11.087 -0.1562  0.8795 -0.0189
   59SAPC  H12A 4427   0.758   6.297  11.125  0.2265  2.2116 -1.1129
   59SAPC  H12B 4428   0.792   6.178  11.013  0.3691 -2.7753  2.3903
   59SAPC   C13 4429   0.983   6.034  11.137 -0.9054  0.3420  0.4836
   59SAPC  H13A 4430   1.015   5.964  11.213 -1.0983 -1.0201 -0.6452
   59SAPC  H13B 4431   0.926   5.977  11.064  0.8293 -1.3855  0.4029
   59SAPC  H13C 4432   1.060   6.070  11.071 -0.5071  1.2295  1.4140
   59SAPC   C14 4433   0.972   6.218  11.296  0.4178 -0.4039  0.0080
   59SAPC  H14A 4434   0.932   6.310  11.336  1.9971 -0.1520  1.1044
   59SAPC  H14B 4435   1.013   6.152  11.372  1.3314 -1.4583 -1.3389
   59SAPC  H14C 4436   1.062   6.247  11.243  0.3552  0.5502  0.4087
   59SAPC   C15 4437   0.776   6.082  11.260  0.2603  0.2376 -0.1087
   59SAPC  H15A 4438   0.798   6.012  11.339 -0.1775  0.9270  0.6350
   59SAPC  H15B 4439   0.717   6.157  11.311  1.9231  0.2675  1.9013
   59SAPC  H15C 4440   0.721   6.028  11.185 -0.1390  0.1710  0.2299
   59SAPC   C11 4441   0.948   6.324  11.007 -0.1576  0.2717  0.1271
   59SAPC  H11A 4442   0.981   6.402  11.079 -0.8712 -0.3295  1.1331
   59SAPC  H11B 4443   0.894   6.371  10.922  2.2651  1.2642 -0.9346
   59SAPC     P 4444   1.201   6.283  10.946 -0.0504  0.5803  0.0091
   59SAPC   O13 4445   1.244   6.334  11.079 -0.7304  0.0466  0.2066
   59SAPC   O14 4446   1.268   6.169  10.885 -0.7705 -0.0165  0.0667
   59SAPC   O12 4447   1.049   6.246  10.951  0.7541 -0.1941  0.6029
   59SAPC   O11 4448   1.218   6.400  10.850  0.9682  0.3244  0.4003
   59SAPC    C1 4449   1.148   6.425  10.732  0.0528  0.4278  0.6015
   59SAPC    HA 4450   1.128   6.331  10.676 -0.1507  1.7055 -1.5796
   59SAPC    HB 4451   1.055   6.481  10.755 -0.0729  0.6522 -0.4060
   59SAPC    C2 4452   1.235   6.511  10.626 -0.0343  0.1120  0.2744
   59SAPC    HS 4453   1.164   6.550  10.550 -0.9128 -1.1226  0.4101
   59SAPC   O21 4454   1.348   6.435  10.574  0.1976  0.3302  0.3037
   59SAPC   C21 4455   1.310   6.366  10.462  0.0737  0.3187 -0.2273
   59SAPC   O22 4456   1.193   6.361  10.420 -0.1531 -0.0004 -0.2566
   59SAPC   C22 4457   1.436   6.291  10.400 -0.1096 -0.4348 -0.1781
   59SAPC   H2R 4458   1.490   6.374  10.350  1.1869 -2.8680 -3.1544
   59SAPC   H2S 4459   1.487   6.237  10.482  0.6422 -1.8122 -1.4999
   59SAPC    C3 4460   1.292   6.634  10.698  0.4804 -0.3886 -0.3726
   59SAPC    HX 4461   1.361   6.694  10.635 -0.6986  0.8325 -0.5456
   59SAPC    HY 4462   1.350   6.587  10.781 -0.1785 -0.7479 -0.1061
   59SAPC   O31 4463   1.186   6.722  10.740 -0.4190 -0.0345  0.5711
   59SAPC   C31 4464   1.135   6.799  10.645  0.1957  0.3134 -0.3419
   59SAPC   O32 4465   1.185   6.803  10.530 -0.1602 -0.4867 -0.4076
   59SAPC   C32 4466   1.005   6.862  10.696 -0.2835  0.6496  0.6175
   59SAPC   H2X 4467   1.037   6.936  10.772  1.8438  0.1065  0.3232
   59SAPC   H2Y 4468   0.962   6.778  10.754  0.0622 -0.8673 -1.1990
   59SAPC   C23 4469   1.397   6.199  10.277 -0.3491  0.4445 -0.1192
   59SAPC   H3R 4470   1.378   6.260  10.186 -0.5708  3.3210  1.7335
   59SAPC   H3S 4471   1.309   6.133  10.289  0.6175 -0.8406  0.1415
   59SAPC   C24 4472   1.511   6.106  10.249 -0.1604  0.1262 -0.3961
   59SAPC   H4R 4473   1.494   6.058  10.150  1.6387  0.5490 -0.9322
   59SAPC   H4S 4474   1.513   6.030  10.330  1.8238 -1.0763 -1.4766
   59SAPC   C25 4475   1.646   6.169  10.218  0.9113 -0.7933 -1.2068
   59SAPC   H5R 4476   1.704   6.194  10.308 -0.0543  0.5469 -0.9209
   59SAPC   C26 4477   1.697   6.207  10.106  0.3414 -0.0048  0.5862
   59SAPC   H6R 4478   1.798   6.249  10.108  1.2920 -2.1997  1.8223
   59SAPC   C27 4479   1.634   6.196   9.962 -0.4524  0.3615 -0.2220
   59SAPC   H7R 4480   1.576   6.288   9.938 -0.7921  0.4342  0.7955
   59SAPC   H7S 4481   1.566   6.109   9.953 -0.1753  0.3460 -2.8350
   59SAPC   C28 4482   1.737   6.190   9.856 -0.1497  0.3543  0.0459
   59SAPC   H8R 4483   1.843   6.179   9.882  0.2782  0.6319 -1.4781
   59SAPC   C29 4484   1.706   6.178   9.720 -0.6913  0.0773 -0.3630
   59SAPC   H9R 4485   1.792   6.186   9.652 -0.2632  0.9510  0.2504
   59SAPC  C210 4486   1.572   6.181   9.666 -0.2390  0.0787  0.3322
   59SAPC  H10R 4487   1.521   6.279   9.658 -0.0293  0.3390  1.8000
   59SAPC  H10S 4488   1.502   6.132   9.738  2.1115 -3.4466  0.4793
   59SAPC  C211 4489   1.558   6.088   9.543  0.1592  0.3644  0.3711
   59SAPC  H11R 4490   1.560   5.983   9.575  0.0737  0.4937  0.8021
   59SAPC  C212 4491   1.506   6.126   9.422 -0.3857  0.4465  0.3881
   59SAPC  H12R 4492   1.510   6.052   9.340 -0.8808 -0.6896  1.3504
   59SAPC  C213 4493   1.465   6.265   9.387 -0.2391  0.3468 -0.2513
   59SAPC  H13R 4494   1.479   6.278   9.277  1.1130  0.8011 -0.0388
   59SAPC  H13S 4495   1.534   6.335   9.438  1.2755 -0.0876 -1.6072
   59SAPC  C214 4496   1.328   6.308   9.430  0.1790  0.3467  0.7588
   59SAPC  H14R 4497   1.324   6.346   9.533  0.6268 -0.4494  1.0842
   59SAPC  C215 4498   1.213   6.296   9.356 -0.6272  0.3605 -0.3465
   59SAPC  H15R 4499   1.122   6.331   9.407  0.7594 -0.9164  3.3644
   59SAPC  C216 4500   1.199   6.232   9.218  0.2248  0.1198 -0.4840
   59SAPC  H16R 4501   1.096   6.191   9.205  0.4850 -0.2711 -1.4222
   59SAPC  H16S 4502   1.272   6.149   9.222 -1.6958 -1.6978  3.9538
   59SAPC  C217 4503   1.231   6.331   9.101  0.7086 -0.1982  1.0216
   59SAPC  H17R 4504   1.324   6.388   9.119  1.3300 -1.3981  1.7605
   59SAPC  H17S 4505   1.146   6.402   9.096  1.8683  1.1821  0.3476
   59SAPC  C218 4506   1.241   6.255   8.964  0.2841  0.4181 -0.2270
   59SAPC  H18R 4507   1.250   6.335   8.887  3.0518  2.8226  2.3362
   59SAPC  H18S 4508   1.150   6.201   8.930  1.1766 -0.1457 -1.8734
   59SAPC  C219 4509   1.368   6.170   8.961  0.0870  0.3073  0.2683
   59SAPC  H19R 4510   1.375   6.093   9.041 -2.5465 -0.2366  0.0941
   59SAPC  H19S 4511   1.456   6.238   8.966  0.1056  0.4500 -1.2932
   59SAPC  C220 4512   1.382   6.092   8.833 -0.6609  0.2583 -0.0884
   59SAPC  H20R 4513   1.295   6.024   8.834 -0.6412  0.2304 -0.3228
   59SAPC  H20S 4514   1.476   6.033   8.838 -1.6595 -1.2690  2.4964
   59SAPC  H20T 4515   1.393   6.158   8.744  0.9962 -0.4488 -0.4449
   59SAPC   C33 4516   0.907   6.928  10.602 -0.9659 -0.3558  0.2467
   59SAPC   H3X 4517   0.812   6.958  10.651 -1.1042 -0.9711  0.3534
   59SAPC   H3Y 4518   0.884   6.876  10.507 -0.0365 -0.4986  0.0916
   59SAPC   C34 4519   0.957   7.072  10.569  0.0783  0.1565 -0.0407
   59SAPC   H4X 4520   1.068   7.075  10.563  0.0068  1.3691 -1.2514
   59SAPC   H4Y 4521   0.922   7.143  10.647 -2.3689 -0.4878 -0.4583
   59SAPC   C35 4522   0.903   7.124  10.433 -0.6753 -0.4352 -0.2514
   59SAPC   H5X 4523   0.912   7.235  10.436  0.2358 -0.5122  0.4975
   59SAPC   H5Y 4524   0.796   7.099  10.417 -1.1776  1.6156 -0.4229
   59SAPC   C36 4525   0.975   7.057  10.318  1.0983  0.2103  0.7143
   59SAPC   H6X 4526   0.947   6.950  10.326 -1.9168  0.9556  1.0855
   59SAPC   H6Y 4527   1.084   7.080  10.314  0.5032  3.2684 -0.2310
   59SAPC   C37 4528   0.913   7.100  10.180 -0.3675 -0.2732 -0.0611
   59SAPC   H7X 4529   0.924   7.209  10.161  1.5669 -0.6473 -1.4382
   59SAPC   H7Y 4530   0.812   7.055  10.185  0.1409 -1.3690  1.1610
   59SAPC   C38 4531   0.990   7.042  10.058  0.1853  0.1160 -0.5297
   59SAPC   H8X 4532   0.976   6.932  10.063  0.3623  0.1331  1.4167
   59SAPC   H8Y 4533   1.097   7.071  10.072  0.4285 -0.5677 -0.9310
   59SAPC   C39 4534   0.920   7.084   9.927  0.3703 -0.2404 -0.0547
   59SAPC   H9X 4535   0.990   7.157   9.881  0.8294 -1.7890 -1.9538
   59SAPC   H9Y 4536   0.820   7.127   9.948 -0.6866 -1.4257 -2.2677
   59SAPC  C310 4537   0.909   6.979   9.821  0.6258 -0.8921 -0.3331
   59SAPC  H10X 4538   0.825   6.909   9.838  0.1133 -0.5613 -1.3985
   59SAPC  H10Y 4539   1.005   6.924   9.822  1.1612 -0.0369  1.5269
   59SAPC  C311 4540   0.882   7.040   9.684  0.3656  0.6011 -0.2323
   59SAPC  H11X 4541   0.979   7.089   9.665 -0.0854  2.7526  2.4357
   59SAPC  H11Y 4542   0.799   7.113   9.679 -1.9082 -1.6837  1.4169
   59SAPC  C312 4543   0.859   6.928   9.582  0.2249  0.4068  0.0345
   59SAPC  H12X 4544   0.791   6.853   9.629 -2.7448  2.2914 -0.9744
   59SAPC  H12Y 4545   0.956   6.878   9.561 -0.0005  0.7576 -1.9969
   59SAPC  C313 4546   0.818   6.985   9.448 -0.1870  0.3268  0.5127
   59SAPC  H13X 4547   0.722   7.041   9.452  0.6215  1.8141 -0.3519
   59SAPC  H13Y 4548   0.794   6.897   9.384  0.1451  1.5190 -1.3426
   59SAPC  C314 4549   0.929   7.069   9.387 -0.1661 -0.2590  0.3390
   59SAPC  H14X 4550   1.030   7.026   9.408 -0.2331  0.0627  1.3862
   59SAPC  H14Y 4551   0.933   7.169   9.434  0.4264  0.7510 -1.7292
   59SAPC  C315 4552   0.920   7.070   9.238  0.3139  0.0171  0.0541
   59SAPC  H15X 4553   0.949   6.974   9.191 -0.9859 -0.9814  1.2300
   59SAPC  H15Y 4554   1.010   7.130   9.212  0.2652 -0.1470 -0.5061
   59SAPC  C316 4555   0.795   7.121   9.165 -0.0618  0.4223 -0.0802
   59SAPC  H16X 4556   0.762   7.218   9.207  0.9704  1.9916 -2.6221
   59SAPC  H16Y 4557   0.716   7.044   9.175  1.1085 -0.9035 -0.6711
   59SAPC  C317 4558   0.807   7.142   9.010 -0.3863  1.1301  0.1267
   59SAPC  H17X 4559   0.863   7.053   8.975 -0.3321  1.2429 -0.0782
   59SAPC  H17Y 4560   0.866   7.236   9.000  2.1139 -0.0988  2.2833
   59SAPC  C318 4561   0.668   7.144   8.940 -0.6402 -0.3284  0.2811
   59SAPC  H18X 4562   0.599   7.199   9.007 -1.3484  2.5548 -2.5621
   59SAPC  H18Y 4563   0.627   7.041   8.930 -3.5611  0.7658 -0.1070
   59SAPC  H18Z 4564   0.673   7.188   8.838 -0.9878 -2.2902 -0.6301
   60SAPC     N 4565   2.842   0.288  10.817  0.4636  0.3593 -0.2685
   60SAPC   C12 4566   2.721   0.370  10.839  0.4790 -0.5975  0.3839
   60SAPC  H12A 4567   2.662   0.335  10.923  0.2378 -1.7147 -0.2298
   60SAPC  H12B 4568   2.658   0.370  10.751  0.5599  3.1501  0.1468
   60SAPC   C13 4569   2.799   0.142  10.828  0.4173  0.0842 -0.1982
   60SAPC  H13A 4570   2.728   0.118  10.751 -0.2119  0.0800  0.3712
   60SAPC  H13B 4571   2.880   0.072  10.817 -1.2661 -1.5959 -2.7414
   60SAPC  H13C 4572   2.753   0.122  10.924 -1.2052 -0.5308 -1.0776
   60SAPC   C14 4573   2.914   0.308  10.685  0.7528 -0.0883  0.5308
   60SAPC  H14A 4574   2.976   0.223  10.663 -1.6965 -1.5571 -1.1348
   60SAPC  H14B 4575   2.830   0.303  10.618 -0.6512 -1.3882  2.3141
   60SAPC  H14C 4576   2.950   0.410  10.683  0.9256 -0.1512 -1.3898
   60SAPC   C15 4577   2.947   0.311  10.914  0.3718  0.5355 -0.0529
   60SAPC  H15A 4578   3.012   0.225  10.915 -0.9633 -0.5219 -1.1593
   60SAPC  H15B 4579   3.010   0.396  10.893  2.1814 -0.9215 -0.8210
   60SAPC  H15C 4580   2.911   0.329  11.014 -1.2833 -2.6984  0.0646
   60SAPC   C11 4581   2.739   0.529  10.855 -0.3658  0.0685 -0.6406
   60SAPC  H11A 4582   2.807   0.554  10.939 -1.0559 -1.5372  0.4565
   60SAPC  H11B 4583   2.637   0.567  10.877 -0.4443 -0.3234 -0.3213
   60SAPC     P 4584   2.690   0.627  10.619 -0.0382 -0.6162  0.1499
   60SAPC   O13 4585   2.624   0.498  10.588  0.0746  0.3418 -0.1368
   60SAPC   O14 4586   2.606   0.745  10.657  0.5776  0.5570  0.3420
   60SAPC   O12 4587   2.782   0.597  10.734 -0.3082  0.2166 -0.3327
   60SAPC   O11 4588   2.786   0.667  10.496 -0.0490 -0.0316  0.4365
   60SAPC    C1 4589   2.918   0.624  10.480  0.3047  0.0204 -0.2292
   60SAPC    HA 4590   2.970   0.711  10.436  0.4246 -1.5864 -3.6302
   60SAPC    HB 4591   2.968   0.601  10.576  0.7227  0.7616 -0.2662
   60SAPC    C2 4592   2.944   0.511  10.379 -0.3583  0.7283  0.4133
   60SAPC    HS 4593   2.904   0.423  10.433 -0.8753 -0.1350 -1.3154
   60SAPC   O21 4594   3.084   0.508  10.351  0.0395 -0.0397 -0.0661
   60SAPC   C21 4595   3.142   0.391  10.327  0.1211  0.0899  0.2787
   60SAPC   O22 4596   3.080   0.286  10.327  0.0584  0.0290 -0.5483
   60SAPC   C22 4597   3.289   0.402  10.297 -0.4419 -0.6522 -0.5060
   60SAPC   H2R 4598   3.304   0.485  10.225  1.3111  1.2251  1.8204
   60SAPC   H2S 4599   3.340   0.427  10.393 -1.2124 -1.9519  0.2673
   60SAPC    C3 4600   2.861   0.528  10.246  0.5567  1.2771 -0.3420
   60SAPC    HX 4601   2.887   0.618  10.185  1.4656 -1.3869 -4.3057
   60SAPC    HY 4602   2.753   0.538  10.271  0.5139 -0.4239  0.2961
   60SAPC   O31 4603   2.870   0.426  10.150 -0.8084  0.0319  0.3152
   60SAPC   C31 4604   2.812   0.305  10.165  0.5657  0.0617  0.2024
   60SAPC   O32 4605   2.732   0.271  10.252  0.4107  0.0034  0.7389
   60SAPC   C32 4606   2.856   0.222  10.043  0.2456  0.3394  0.0645
   60SAPC   H2X 4607   2.963   0.249  10.028  0.6845 -0.7020  1.1448
   60SAPC   H2Y 4608   2.815   0.269   9.951 -1.9587 -0.9962  0.2911
   60SAPC   C23 4609   3.329   0.270  10.231 -0.5370  0.3706  0.2982
   60SAPC   H3R 4610   3.290   0.178  10.279  0.0588 -0.0992 -0.1013
   60SAPC   H3S 4611   3.436   0.265  10.259 -0.5152  0.1796  0.1858
   60SAPC   C24 4612   3.294   0.252  10.079  0.2305  0.0760  0.1388
   60SAPC   H4R 4613   3.184   0.251  10.065  0.3478  0.4299 -0.9502
   60SAPC   H4S 4614   3.326   0.153  10.038 -1.0960  0.3647 -1.7561
   60SAPC   C25 4615   3.352   0.361   9.991  0.8067 -0.1006 -0.0520
   60SAPC   H5R 4616   3.453   0.398  10.016  0.8650  0.3199 -0.8739
   60SAPC   C26 4617   3.293   0.410   9.876 -0.6056  0.3676 -0.0476
   60SAPC   H6R 4618   3.347   0.493   9.827 -0.2077 -1.1165 -2.2245
   60SAPC   C27 4619   3.165   0.357   9.816  0.4461  0.1580  0.1705
   60SAPC   H7R 4620   3.141   0.258   9.861  2.1321 -0.1556  0.4223
   60SAPC   H7S 4621   3.184   0.329   9.711 -0.6720  2.5818 -0.7463
   60SAPC   C28 4622   3.064   0.465   9.842  0.0709 -0.3278  0.2347
   60SAPC   H8R 4623   3.060   0.517   9.939  1.3210  2.1912 -0.9611
   60SAPC   C29 4624   2.952   0.497   9.769 -0.6044  0.5890 -0.1220
   60SAPC   H9R 4625   2.890   0.581   9.804 -1.5564 -0.0846 -0.1586
   60SAPC  C210 4626   2.912   0.437   9.637  0.6309 -0.1731  0.1976
   60SAPC  H10R 4627   2.802   0.449   9.629  0.7405  1.0241  0.4126
   60SAPC  H10S 4628   2.930   0.328   9.626 -1.1392 -0.7665  2.3410
   60SAPC  C211 4629   2.990   0.510   9.530 -0.3054 -0.0195 -0.8127
   60SAPC  H11R 4630   3.095   0.477   9.524 -0.4916 -0.8426  0.2597
   60SAPC  C212 4631   2.951   0.606   9.443  0.1615 -0.1902 -0.3797
   60SAPC  H12R 4632   3.015   0.649   9.365 -1.6170 -0.0768 -1.8520
   60SAPC  C213 4633   2.820   0.673   9.428 -0.6442 -0.0956  0.9536
   60SAPC  H13R 4634   2.820   0.757   9.499 -0.7212  0.1868  0.6215
   60SAPC  H13S 4635   2.744   0.607   9.474  0.4123 -2.1445 -0.0756
   60SAPC  C214 4636   2.789   0.731   9.293 -0.1612  0.6064  0.5813
   60SAPC  H14R 4637   2.752   0.667   9.211  0.7368  0.5745  0.1915
   60SAPC  C215 4638   2.833   0.849   9.246  0.1890 -0.3516  0.5133
   60SAPC  H15R 4639   2.800   0.886   9.148  0.4253 -0.2076  0.4873
   60SAPC  C216 4640   2.911   0.953   9.318 -0.3402 -0.3206  0.0451
   60SAPC  H16R 4641   2.927   0.934   9.426 -0.0414 -1.5338 -0.2030
   60SAPC  H16S 4642   2.852   1.048   9.319  0.0564 -0.0596 -0.8071
   60SAPC  C217 4643   3.048   0.983   9.261  0.0043 -0.2021 -0.1717
   60SAPC  H17R 4644   3.113   0.893   9.250  1.4275  0.8225 -0.4228
   60SAPC  H17S 4645   3.095   1.060   9.325 -2.2635  1.0460  0.0943
   60SAPC  C218 4646   3.017   1.043   9.116 -0.1487 -1.3272 -0.7368
   60SAPC  H18R 4647   2.964   1.140   9.126  1.0797 -0.6450 -0.7185
   60SAPC  H18S 4648   2.959   0.976   9.048 -1.8721 -0.9167  0.2810
   60SAPC  C219 4649   3.151   1.075   9.034 -0.1548  0.1145  0.0021
   60SAPC  H19R 4650   3.112   1.100   8.932 -0.6683  2.1933  0.6521
   60SAPC  H19S 4651   3.217   0.986   9.031 -0.9860 -0.5181  0.3618
   60SAPC  C220 4652   3.209   1.209   9.074 -0.1195 -0.0586  0.1849
   60SAPC  H20R 4653   3.313   1.230   9.040 -0.4867 -0.2184 -1.0958
   60SAPC  H20S 4654   3.227   1.215   9.183 -0.7533  1.7258  0.2290
   60SAPC  H20T 4655   3.138   1.291   9.048 -0.2952  0.1891  1.3783
   60SAPC   C33 4656   2.822   0.074  10.047 -0.4002 -0.2210 -0.9050
   60SAPC   H3X 4657   2.712   0.059  10.048 -0.8747  2.6079  1.2024
   60SAPC   H3Y 4658   2.864   0.033  10.142  0.3390 -0.7261 -1.4361
   60SAPC   C34 4659   2.882  -0.008   9.928 -0.1720 -0.1798  0.0453
   60SAPC   H4X 4660   2.867  -0.112   9.962 -0.5714  0.2438  1.1956
   60SAPC   H4Y 4661   2.988   0.026   9.920 -0.4900  1.2987  1.4976
   60SAPC   C35 4662   2.818   0.002   9.790  0.1189 -0.0321 -0.1716
   60SAPC   H5X 4663   2.824   0.100   9.738  2.2812 -0.3724 -0.6847
   60SAPC   H5Y 4664   2.712  -0.030   9.802  0.5262 -0.6857  1.9724
   60SAPC   C36 4665   2.885  -0.098   9.707  0.5301 -0.2649  0.1633
   60SAPC   H6X 4666   2.874  -0.202   9.742  0.0882 -0.5841 -0.8685
   60SAPC   H6Y 4667   2.994  -0.078   9.713  0.7380 -0.9080 -1.0209
   60SAPC   C37 4668   2.849  -0.085   9.556  0.4953 -0.0892  0.1126
   60SAPC   H7X 4669   2.743  -0.052   9.553 -0.0209 -1.7269 -0.1835
   60SAPC   H7Y 4670   2.844  -0.189   9.518 -0.4665  0.0927 -0.2936
   60SAPC   C38 4671   2.953   0.000   9.466  0.1246  0.3658  1.0766
   60SAPC   H8X 4672   3.044  -0.063   9.455  0.6156  1.0156  1.3384
   60SAPC   H8Y 4673   2.967   0.090   9.530 -1.6618  0.6169  1.1706
   60SAPC   C39 4674   2.892   0.027   9.326 -0.1174 -0.7167 -0.5481
   60SAPC   H9X 4675   2.970   0.077   9.264 -0.7864  0.6925 -0.3066
   60SAPC   H9Y 4676   2.805   0.096   9.326  0.3948 -0.0505  0.2015
   60SAPC  C310 4677   2.845  -0.104   9.260 -0.2014  0.7614  0.6277
   60SAPC  H10X 4678   2.740  -0.117   9.293 -0.3584  2.9981  1.1190
   60SAPC  H10Y 4679   2.910  -0.191   9.283  0.1289  0.6906 -0.5029
   60SAPC  C311 4680   2.836  -0.083   9.102  0.4140 -0.5212  0.0025
   60SAPC  H11X 4681   2.825  -0.180   9.050 -0.3978 -0.7669  0.6206
   60SAPC  H11Y 4682   2.934  -0.040   9.074 -0.1366  1.7744  1.3447
   60SAPC  C312 4683   2.724   0.012   9.052 -0.4969  0.2863 -0.1143
   60SAPC  H12X 4684   2.738   0.117   9.087 -0.7864 -0.2208  1.6316
   60SAPC  H12Y 4685   2.626  -0.026   9.087 -0.7556 -0.7793 -1.8653
   60SAPC  C313 4686   2.717   0.005   8.898  0.0880  0.5684 -0.2141
   60SAPC  H13X 4687   2.625   0.061   8.869  0.6696  2.3964  1.2503
   60SAPC  H13Y 4688   2.691  -0.100   8.874  0.7862  0.2225  0.5244
   60SAPC  C314 4689   2.827   0.062   8.818 -0.2805  0.0768 -0.4796
   60SAPC  H14X 4690   2.814   0.035   8.710  0.7835 -0.9022 -0.3844
   60SAPC  H14Y 4691   2.926   0.024   8.850  0.1370 -0.0934 -1.8646
   60SAPC  C315 4692   2.834   0.214   8.829 -0.7847 -0.4980 -0.1273
   60SAPC  H15X 4693   2.875   0.240   8.929 -0.2130  2.4295 -1.0032
   60SAPC  H15Y 4694   2.730   0.253   8.818 -0.7890 -0.3256  0.4865
   60SAPC  C316 4695   2.924   0.296   8.736 -0.0141 -0.8361  0.0430
   60SAPC  H16X 4696   3.018   0.248   8.703  0.1047 -1.2213  0.9302
   60SAPC  H16Y 4697   2.953   0.385   8.796  0.3412 -1.8166  1.3612
   60SAPC  C317 4698   2.845   0.347   8.615  0.4232  0.2564  0.0968
   60SAPC  H17X 4699   2.746   0.384   8.648 -0.5753 -2.5245  0.4501
   60SAPC  H17Y 4700   2.820   0.257   8.555 -0.2942  0.3563  0.2418
   60SAPC  C318 4701   2.907   0.460   8.530 -0.5295 -0.4143 -0.7069
   60SAPC  H18X 4702   2.833   0.538   8.504 -0.9545 -0.9452 -1.1111
   60SAPC  H18Y 4703   2.953   0.421   8.437  0.5445 -1.4100  0.2202
   60SAPC  H18Z 4704   2.986   0.510   8.590 -1.4935 -1.2727  1.3728
   61SAPC     N 4705   4.789   4.110  11.151  0.4585 -0.2057  0.0160
   61SAPC   C12 4706   4.658   4.041  11.122  0.6235 -0.5093 -0.0181
   61SAPC  H12A 4707   4.575   4.097  11.162  0.2440 -1.4879  0.6048
   61SAPC  H12B 4708   4.658   3.944  11.170 -2.2604 -1.0172 -0.8053
   61SAPC   C13 4709   4.805   4.238  11.075 -0.9454  0.8724  0.3304
   61SAPC  H13A 4710   4.910   4.261  11.084 -1.0064  0.7551  1.5181
   61SAPC  H13B 4711   4.784   4.222  10.970  2.0333 -1.1994 -0.0553
   61SAPC  H13C 4712   4.744   4.325  11.099 -1.0882  0.6908  0.6386
   61SAPC   C14 4713   4.798   4.146  11.296  0.6416 -0.3092  0.1860
   61SAPC  H14A 4714   4.835   4.068  11.362 -0.5544 -1.0634 -0.0099
   61SAPC  H14B 4715   4.877   4.218  11.312  0.8346 -0.9187  2.2057
   61SAPC  H14C 4716   4.708   4.188  11.337  1.3317  0.9160  0.5177
   61SAPC   C15 4717   4.904   4.017  11.126 -0.3235  0.8583  0.6270
   61SAPC  H15A 4718   4.889   3.936  11.196 -0.4838  0.9247  0.6702
   61SAPC  H15B 4719   4.887   3.970  11.030  1.9288  0.6959  0.2606
   61SAPC  H15C 4720   4.999   4.064  11.146  1.0547 -1.7605  0.6932
   61SAPC   C11 4721   4.624   4.011  10.971  0.7951 -0.0273 -0.1129
   61SAPC  H11A 4722   4.529   3.954  10.981  0.3535  0.5930 -0.6511
   61SAPC  H11B 4723   4.695   3.940  10.924  1.6028 -0.5672  1.8419
   61SAPC     P 4724   4.458   4.206  10.896  0.1392  0.0732  0.0430
   61SAPC   O13 4725   4.407   4.221  11.037  0.5520 -0.1160 -0.3250
   61SAPC   O14 4726   4.460   4.326  10.810  0.0400 -0.0808  0.0246
   61SAPC   O12 4727   4.597   4.130  10.904 -0.0103 -0.3588  0.5987
   61SAPC   O11 4728   4.365   4.102  10.825  0.2731  0.5724 -0.3860
   61SAPC    C1 4729   4.413   4.002  10.737 -0.7433  0.1229 -0.3967
   61SAPC    HA 4730   4.521   4.019  10.717 -0.6089  0.5015  0.6113
   61SAPC    HB 4731   4.419   3.907  10.795 -0.0460 -0.4171 -1.3150
   61SAPC    C2 4732   4.333   3.995  10.606  0.1343  0.3995  0.4713
   61SAPC    HS 4733   4.378   3.922  10.535 -1.5969 -0.1828 -0.0705
   61SAPC   O21 4734   4.313   4.126  10.542  0.3913  0.0562  0.2850
   61SAPC   C21 4735   4.413   4.179  10.498 -0.6909 -0.2030 -0.8029
   61SAPC   O22 4736   4.526   4.137  10.489 -0.1110 -0.3527 -0.0932
   61SAPC   C22 4737   4.371   4.323  10.468 -0.0681 -0.4496  0.2671
   61SAPC   H2R 4738   4.269   4.333  10.510 -0.0800 -2.1795  0.7595
   61SAPC   H2S 4739   4.432   4.389  10.533 -1.9239 -0.5724  2.2329
   61SAPC    C3 4740   4.192   3.929  10.634 -0.3775 -0.2095 -0.1153
   61SAPC    HX 4741   4.141   3.989  10.712  0.2106 -1.1922  1.0474
   61SAPC    HY 4742   4.218   3.828  10.672  3.4136 -0.5018 -2.8811
   61SAPC   O31 4743   4.116   3.921  10.510 -0.0331  0.3608  0.3717
   61SAPC   C31 4744   4.011   3.844  10.514  0.7091 -0.2090 -0.1149
   61SAPC   O32 4745   3.956   3.800  10.616  0.2634 -0.2062  0.2612
   61SAPC   C32 4746   3.954   3.828  10.372  0.4474  0.1822 -0.2718
   61SAPC   H2X 4747   4.033   3.839  10.294 -0.5839 -1.1595 -1.5699
   61SAPC   H2Y 4748   3.884   3.913  10.359 -1.6008 -1.1092  1.5847
   61SAPC   C23 4749   4.383   4.363  10.316 -0.0543  0.7822 -0.2445
   61SAPC   H3R 4750   4.330   4.451  10.275  0.6467  0.6558 -1.4738
   61SAPC   H3S 4751   4.335   4.276  10.266 -0.6134 -0.6982  2.6728
   61SAPC   C24 4752   4.529   4.372  10.257 -0.3426  0.7249 -0.3601
   61SAPC   H4R 4753   4.519   4.365  10.146 -2.2230 -1.7439 -0.1171
   61SAPC   H4S 4754   4.590   4.288  10.295  0.9439  1.1271 -1.4385
   61SAPC   C25 4755   4.591   4.501  10.309 -0.9565 -0.4091 -0.4415
   61SAPC   H5R 4756   4.634   4.499  10.410 -0.9389 -1.7052 -0.4545
   61SAPC   C26 4757   4.575   4.621  10.250  0.2422 -0.3437 -0.0462
   61SAPC   H6R 4758   4.612   4.707  10.308  0.4050 -1.5678  1.7616
   61SAPC   C27 4759   4.503   4.642  10.119  1.0773 -0.0634 -0.0653
   61SAPC   H7R 4760   4.397   4.647  10.151  1.1304  2.5602 -0.0732
   61SAPC   H7S 4761   4.522   4.555  10.052 -0.3180 -0.7701  0.4154
   61SAPC   C28 4762   4.530   4.778  10.052  0.5002 -0.4548 -0.1003
   61SAPC   H8R 4763   4.543   4.860  10.124  1.0452  0.7303 -1.5226
   61SAPC   C29 4764   4.534   4.802   9.924 -0.3128 -0.9477  0.0475
   61SAPC   H9R 4765   4.555   4.907   9.897  2.4563 -0.9471  1.7771
   61SAPC  C210 4766   4.518   4.708   9.810 -0.0966  0.4730 -0.3861
   61SAPC  H10R 4767   4.471   4.615   9.849 -0.2597  1.3929  1.7528
   61SAPC  H10S 4768   4.622   4.680   9.780  0.8660  1.7030  1.5971
   61SAPC  C211 4769   4.435   4.767   9.700  0.6893 -0.1336 -0.3543
   61SAPC  H11R 4770   4.345   4.821   9.731  0.4874 -0.5379 -0.2247
   61SAPC  C212 4771   4.464   4.762   9.566 -0.3642 -0.1011  0.1499
   61SAPC  H12R 4772   4.387   4.804   9.500 -0.2502 -0.4455 -0.2078
   61SAPC  C213 4773   4.571   4.692   9.489 -0.8186 -0.3609 -0.3243
   61SAPC  H13R 4774   4.519   4.596   9.467 -1.3627  0.0841 -1.0169
   61SAPC  H13S 4775   4.652   4.656   9.556 -1.0986 -1.4982 -0.5713
   61SAPC  C214 4776   4.606   4.776   9.370  0.1917  0.5974  0.4414
   61SAPC  H14R 4777   4.631   4.880   9.396  0.8483  0.5715 -0.0896
   61SAPC  C215 4778   4.604   4.726   9.240 -0.5301 -0.6273 -0.2827
   61SAPC  H15R 4779   4.659   4.786   9.167  0.9357 -0.7917  0.6350
   61SAPC  C216 4780   4.569   4.581   9.198 -0.5075 -0.5440  0.8545
   61SAPC  H16R 4781   4.529   4.520   9.281 -3.4668  0.4982  0.3183
   61SAPC  H16S 4782   4.660   4.531   9.157  0.8832  2.4762 -0.0325
   61SAPC  C217 4783   4.454   4.593   9.093 -0.4401 -0.3088  0.0150
   61SAPC  H17R 4784   4.498   4.654   9.011 -1.3564 -0.7413 -0.8219
   61SAPC  H17S 4785   4.361   4.645   9.126 -1.1467 -0.9627 -0.9165
   61SAPC  C218 4786   4.402   4.460   9.034  0.1879  0.1502 -0.1615
   61SAPC  H18R 4787   4.358   4.392   9.111  0.3292 -0.6942 -0.8032
   61SAPC  H18S 4788   4.492   4.413   8.989  0.7600  0.9361  0.1467
   61SAPC  C219 4789   4.291   4.482   8.930 -0.9115  0.3529  0.5519
   61SAPC  H19R 4790   4.289   4.391   8.865  0.9749 -0.1182  1.1066
   61SAPC  H19S 4791   4.319   4.569   8.867  0.9207 -1.6077 -1.5538
   61SAPC  C220 4792   4.147   4.490   8.986 -0.4145 -0.4037  0.1851
   61SAPC  H20R 4793   4.079   4.526   8.905 -0.2342 -1.1638 -0.3098
   61SAPC  H20S 4794   4.132   4.563   9.068 -1.3885 -0.7861  0.3630
   61SAPC  H20T 4795   4.104   4.392   9.015 -1.8497 -0.1289 -0.8946
   61SAPC   C33 4796   3.891   3.693  10.333 -0.5735  0.2763  0.2574
   61SAPC   H3X 4797   3.820   3.669  10.414 -0.3680 -1.8216 -0.1232
   61SAPC   H3Y 4798   3.967   3.611  10.329  0.0222  0.7891  0.7638
   61SAPC   C34 4799   3.818   3.674  10.204  0.3648  0.2821  0.1458
   61SAPC   H4X 4800   3.744   3.757  10.194  2.4794  2.3528  0.8099
   61SAPC   H4Y 4801   3.772   3.573  10.206  1.5511 -0.2515  1.4329
   61SAPC   C35 4802   3.909   3.664  10.070 -0.8495  0.1958 -1.0844
   61SAPC   H5X 4803   3.990   3.589  10.082  0.2732  1.6007  0.3313
   61SAPC   H5Y 4804   3.961   3.761  10.062  0.2403 -0.4661 -2.6885
   61SAPC   C36 4805   3.831   3.637   9.942  0.5266  0.1080  0.3026
   61SAPC   H6X 4806   3.751   3.713   9.930 -1.4979 -2.1171 -1.3941
   61SAPC   H6Y 4807   3.768   3.547   9.955  0.9456  0.0346  2.0122
   61SAPC   C37 4808   3.928   3.634   9.820 -0.1490  0.3305  0.3851
   61SAPC   H7X 4809   4.019   3.575   9.846 -0.6754 -1.1163 -0.9332
   61SAPC   H7Y 4810   3.970   3.737   9.811  1.9056 -0.2843  2.0346
   61SAPC   C38 4811   3.860   3.575   9.700  0.7168 -0.3244 -0.5407
   61SAPC   H8X 4812   3.775   3.642   9.673 -0.2715 -1.4782 -0.3783
   61SAPC   H8Y 4813   3.803   3.483   9.728  1.2592 -0.8326 -1.0687
   61SAPC   C39 4814   3.949   3.556   9.578 -0.5867  0.1281 -0.2513
   61SAPC   H9X 4815   3.895   3.519   9.488  1.7032 -2.7752 -0.5852
   61SAPC   H9Y 4816   4.025   3.476   9.591 -1.0607 -0.3630 -0.4465
   61SAPC  C310 4817   4.034   3.679   9.527  0.3043  0.4288 -0.4750
   61SAPC  H10X 4818   4.093   3.713   9.614  1.7488  1.9601 -1.9613
   61SAPC  H10Y 4819   3.964   3.762   9.506  0.8243  0.8430 -0.6028
   61SAPC  C311 4820   4.121   3.653   9.406  0.6284 -0.4476 -0.0752
   61SAPC  H11X 4821   4.061   3.614   9.321  1.3765  0.4563 -1.0448
   61SAPC  H11Y 4822   4.186   3.566   9.429  1.0970  0.2799  1.4998
   61SAPC  C312 4823   4.215   3.764   9.360 -0.0222  0.3049  0.7419
   61SAPC  H12X 4824   4.277   3.731   9.275  1.0533 -0.5146  1.8192
   61SAPC  H12Y 4825   4.280   3.805   9.440 -0.5041 -1.7988  2.3025
   61SAPC  C313 4826   4.135   3.890   9.315  0.4576  0.3572  0.5806
   61SAPC  H13X 4827   4.202   3.969   9.277  1.5162 -1.4833 -1.6276
   61SAPC  H13Y 4828   4.079   3.928   9.403 -0.6929 -1.6964  0.8143
   61SAPC  C314 4829   4.026   3.876   9.205  0.2117 -0.2598  0.5709
   61SAPC  H14X 4830   3.951   3.958   9.209  1.3539  0.8550 -0.1277
   61SAPC  H14Y 4831   3.957   3.790   9.219 -2.3515  1.1219 -2.4115
   61SAPC  C315 4832   4.074   3.876   9.062  0.3596  0.4268 -0.0970
   61SAPC  H15X 4833   4.139   3.789   9.040  0.2692  0.3439 -0.0371
   61SAPC  H15Y 4834   4.133   3.968   9.040  1.2817  0.3418  1.7622
   61SAPC  C316 4835   3.955   3.913   8.971 -0.5544  0.5558  0.1017
   61SAPC  H16X 4836   3.913   4.011   9.001  0.5876  1.0531  0.1272
   61SAPC  H16Y 4837   3.870   3.843   8.987 -1.8204  1.7595 -1.0640
   61SAPC  C317 4838   4.007   3.908   8.826  0.1475 -0.1755  0.1311
   61SAPC  H17X 4839   4.104   3.960   8.820  0.9162 -1.5649  0.0848
   61SAPC  H17Y 4840   3.934   3.954   8.756  0.5932 -1.6880 -1.4014
   61SAPC  C318 4841   4.022   3.761   8.778 -0.8356  0.7563  0.2608
   61SAPC  H18X 4842   4.075   3.754   8.680 -0.8495  1.3959  0.2012
   61SAPC  H18Y 4843   3.919   3.720   8.774  0.3715 -2.7590  0.9214
   61SAPC  H18Z 4844   4.075   3.699   8.854  0.8563  2.0539  0.2184
   62SAPC     N 4845   2.816   4.229  10.884  0.5689 -0.6694 -0.3051
   62SAPC   C12 4846   2.961   4.241  10.843  0.1113 -0.3736 -0.2419
   62SAPC  H12A 4847   2.981   4.302  10.756  2.3030 -0.0191  0.4326
   62SAPC  H12B 4848   3.005   4.145  10.819  1.3529  0.1789 -0.2830
   62SAPC   C13 4849   2.737   4.175  10.766  0.3766 -0.2794  0.0071
   62SAPC  H13A 4850   2.636   4.145  10.789  0.0657  0.6436 -0.0919
   62SAPC  H13B 4851   2.725   4.244  10.684 -1.0079 -2.8954 -2.1455
   62SAPC  H13C 4852   2.777   4.082  10.728  1.4186 -0.4158  1.3527
   62SAPC   C14 4853   2.787   4.142  11.005 -0.1718  0.6531 -0.0081
   62SAPC  H14A 4854   2.682   4.146  11.032  0.2818 -0.3242  2.1553
   62SAPC  H14B 4855   2.817   4.041  10.982 -2.4101 -0.2377  0.7018
   62SAPC  H14C 4856   2.838   4.179  11.093  2.3734 -1.0336 -0.6580
   62SAPC   C15 4857   2.764   4.367  10.911  0.0524 -0.5007 -1.0091
   62SAPC  H15A 4858   2.790   4.436  10.832  1.7357  0.1991  0.1139
   62SAPC  H15B 4859   2.656   4.363  10.910 -0.0818  1.6115 -2.8080
   62SAPC  H15C 4860   2.801   4.415  11.000 -3.8846 -0.7727  0.9871
   62SAPC   C11 4861   3.053   4.288  10.955 -0.0283  0.0527  0.2329
   62SAPC  H11A 4862   3.030   4.234  11.049 -1.5829  0.5085  0.1480
   62SAPC  H11B 4863   3.026   4.395  10.969  0.5843  0.1367  0.8384
   62SAPC     P 4864   3.257   4.138  10.938 -0.5046  0.0798 -0.1322
   62SAPC   O13 4865   3.305   4.134  11.075  0.2448  0.0170 -0.1482
   62SAPC   O14 4866   3.168   4.036  10.890 -0.4070 -0.0342 -0.1587
   62SAPC   O12 4867   3.190   4.277  10.925 -0.4891  0.2043  0.1358
   62SAPC   O11 4868   3.387   4.141  10.856 -0.0829 -0.0571 -0.5445
   62SAPC    C1 4869   3.436   4.255  10.786  0.1455  0.2794 -0.1483
   62SAPC    HA 4870   3.444   4.344  10.851 -0.1814  0.3882 -0.2546
   62SAPC    HB 4871   3.537   4.225  10.751 -0.2452 -1.3236 -0.0124
   62SAPC    C2 4872   3.360   4.283  10.652 -0.0722  0.0315  0.2920
   62SAPC    HS 4873   3.253   4.273  10.680 -0.0451 -0.6112  0.1829
   62SAPC   O21 4874   3.390   4.172  10.568 -0.1272  0.7054  0.2839
   62SAPC   C21 4875   3.295   4.136  10.475  0.4596 -0.4459 -0.3402
   62SAPC   O22 4876   3.188   4.196  10.462 -0.3086 -0.6595 -0.1132
   62SAPC   C22 4877   3.332   4.020  10.380 -0.0836 -0.6573 -0.1265
   62SAPC   H2R 4878   3.432   4.041  10.337  0.3411 -0.8077  0.7591
   62SAPC   H2S 4879   3.336   3.932  10.448  2.6305 -2.2655 -2.1219
   62SAPC    C3 4880   3.402   4.418  10.584  0.4582  0.2604 -0.9096
   62SAPC    HX 4881   3.513   4.427  10.587  0.4803  2.5128 -3.9084
   62SAPC    HY 4882   3.356   4.506  10.635  3.1896  3.6416 -3.7371
   62SAPC   O31 4883   3.367   4.428  10.443  0.5891 -0.7962  0.4735
   62SAPC   C31 4884   3.245   4.478  10.422  0.4950  0.4515  0.8940
   62SAPC   O32 4885   3.174   4.524  10.505  0.3545 -0.7298 -0.2522
   62SAPC   C32 4886   3.207   4.474  10.271 -0.1505 -1.0873  0.1610
   62SAPC   H2X 4887   3.224   4.380  10.214 -2.0510 -0.5497 -1.3843
   62SAPC   H2Y 4888   3.280   4.543  10.225  0.0823 -1.4444 -0.0105
   62SAPC   C23 4889   3.226   3.990  10.278  0.6891 -0.2867  0.0737
   62SAPC   H3R 4890   3.234   4.059  10.191 -1.6386  2.8152  2.1311
   62SAPC   H3S 4891   3.127   4.012  10.322  0.7361  0.9676 -0.4270
   62SAPC   C24 4892   3.228   3.840  10.232 -0.7215 -0.4889  0.8958
   62SAPC   H4R 4893   3.327   3.789  10.233 -0.7022 -0.4596  0.4228
   62SAPC   H4S 4894   3.176   3.840  10.134 -0.6208 -0.1483  0.8424
   62SAPC   C25 4895   3.148   3.770  10.334  0.3606  0.6675  0.1606
   62SAPC   H5R 4896   3.200   3.752  10.430 -0.5838 -0.4178  0.5061
   62SAPC   C26 4897   3.040   3.695  10.313 -0.1341  0.2272 -0.4146
   62SAPC   H6R 4898   2.993   3.646  10.400  0.8406  1.5033  0.8614
   62SAPC   C27 4899   2.966   3.686  10.177  0.4837  0.3121  0.8362
   62SAPC   H7R 4900   3.030   3.642  10.097 -1.8298 -1.2574 -0.2607
   62SAPC   H7S 4901   2.935   3.785  10.137  2.9174  0.9181  0.3042
   62SAPC   C28 4902   2.851   3.594  10.179  0.1255  0.9576 -0.4837
   62SAPC   H8R 4903   2.862   3.512  10.252  1.8756 -0.8017 -2.6236
   62SAPC   C29 4904   2.751   3.601  10.090  0.2824 -0.4765 -0.1619
   62SAPC   H9R 4905   2.675   3.521  10.093 -0.5091  0.1446 -1.9999
   62SAPC  C210 4906   2.731   3.702   9.983 -0.6627  0.5172  0.3183
   62SAPC  H10R 4907   2.789   3.790  10.019  2.5458 -1.6174  0.8218
   62SAPC  H10S 4908   2.627   3.740   9.972  0.0572  2.1173 -1.7098
   62SAPC  C211 4909   2.782   3.652   9.844  0.7133 -0.0382  0.0003
   62SAPC  H11R 4910   2.857   3.572   9.850  2.3600  1.3861 -0.7232
   62SAPC  C212 4911   2.735   3.692   9.722 -0.5807  0.4115  0.2693
   62SAPC  H12R 4912   2.779   3.637   9.637 -0.7304  1.1957 -0.3233
   62SAPC  C213 4913   2.622   3.789   9.704  0.0223 -0.4547  0.6654
   62SAPC  H13R 4914   2.610   3.858   9.790 -0.5685 -1.9213  1.7956
   62SAPC  H13S 4915   2.530   3.727   9.713  0.4558 -1.2922 -0.3935
   62SAPC  C214 4916   2.634   3.857   9.569 -0.6891 -0.0190 -0.1793
   62SAPC  H14R 4917   2.709   3.938   9.559  1.0061 -1.5005  0.0435
   62SAPC  C215 4918   2.567   3.802   9.462  0.8351  0.2553  0.2275
   62SAPC  H15R 4919   2.580   3.853   9.365  1.1200  1.5221  0.9010
   62SAPC  C216 4920   2.482   3.675   9.453 -0.5000 -0.7346 -0.2176
   62SAPC  H16R 4921   2.510   3.612   9.540  1.8037  1.5191  0.8091
   62SAPC  H16S 4922   2.505   3.624   9.357  0.3732 -0.9343  0.0879
   62SAPC  C217 4923   2.332   3.718   9.448  0.4925 -0.6249 -0.3349
   62SAPC  H17R 4924   2.299   3.749   9.347  2.7388  0.8592 -0.7074
   62SAPC  H17S 4925   2.305   3.802   9.515 -0.1143 -1.0107 -0.0881
   62SAPC  C218 4926   2.247   3.605   9.502  0.4529  0.4560 -0.2681
   62SAPC  H18R 4927   2.282   3.565   9.599 -0.5562  0.0983 -0.0366
   62SAPC  H18S 4928   2.257   3.517   9.435  2.1051  0.7832 -0.4894
   62SAPC  C219 4929   2.107   3.649   9.536  0.6567 -0.0010  0.1597
   62SAPC  H19R 4930   2.072   3.694   9.441 -0.8514 -1.6592 -0.1347
   62SAPC  H19S 4931   2.101   3.723   9.618  0.1575 -0.5154  0.5965
   62SAPC  C220 4932   2.013   3.521   9.555 -0.8459  0.0393  0.5643
   62SAPC  H20R 4933   1.909   3.561   9.548 -1.4913 -1.6975 -0.4727
   62SAPC  H20S 4934   2.021   3.473   9.655  0.9356 -3.3432 -1.0397
   62SAPC  H20T 4935   2.022   3.445   9.474 -1.4485 -1.2142  1.6371
   62SAPC   C33 4936   3.071   4.541  10.235 -0.8034 -0.0520 -0.3749
   62SAPC   H3X 4937   3.058   4.627  10.304  1.7521 -1.3639  1.9141
   62SAPC   H3Y 4938   2.990   4.471  10.262 -0.1327 -0.6453  0.1339
   62SAPC   C34 4939   3.067   4.587  10.087  0.8400 -0.3413 -0.4443
   62SAPC   H4X 4940   3.139   4.672  10.089 -0.3137  0.7537 -2.3554
   62SAPC   H4Y 4941   2.970   4.636  10.064  0.6162 -1.1237 -1.1795
   62SAPC   C35 4942   3.077   4.480   9.974 -0.2220 -0.0971 -0.0751
   62SAPC   H5X 4943   2.996   4.410  10.004 -0.3783 -0.2547 -0.8430
   62SAPC   H5Y 4944   3.176   4.431   9.982 -0.3200 -0.0451  2.4201
   62SAPC   C36 4945   3.056   4.536   9.831 -0.5816  0.2034  0.3032
   62SAPC   H6X 4946   3.137   4.611   9.815  0.2914 -0.9174 -0.7338
   62SAPC   H6Y 4947   2.955   4.581   9.836 -0.0305  1.5637 -0.4364
   62SAPC   C37 4948   3.060   4.439   9.714  0.9755  0.4977 -0.3011
   62SAPC   H7X 4949   2.970   4.375   9.704  2.6803 -2.0647 -0.1526
   62SAPC   H7Y 4950   3.136   4.364   9.746 -2.1917 -2.2436  1.4726
   62SAPC   C38 4951   3.087   4.515   9.580 -0.1168  0.2153 -0.0367
   62SAPC   H8X 4952   3.191   4.550   9.571 -0.4918  1.3990  0.1175
   62SAPC   H8Y 4953   3.027   4.608   9.569  1.7220  1.3447 -0.9672
   62SAPC   C39 4954   3.046   4.428   9.460 -0.7346  0.4185 -0.0897
   62SAPC   H9X 4955   2.940   4.398   9.476 -0.8144  0.9028  0.2815
   62SAPC   H9Y 4956   3.111   4.338   9.452  0.6847  1.5353 -2.3165
   62SAPC  C310 4957   3.043   4.511   9.326 -0.1311  0.2131 -0.5611
   62SAPC  H10X 4958   3.139   4.567   9.319  0.1141 -0.1609 -0.2480
   62SAPC  H10Y 4959   2.958   4.582   9.320 -1.0464 -0.8692 -0.6874
   62SAPC  C311 4960   3.035   4.416   9.201 -0.0231  0.0895 -0.8593
   62SAPC  H11X 4961   2.968   4.334   9.234  2.1864 -1.8705 -0.9943
   62SAPC  H11Y 4962   3.133   4.368   9.183 -0.3893 -1.6918  1.4930
   62SAPC  C312 4963   2.976   4.483   9.075 -0.0658  0.5066  0.1708
   62SAPC  H12X 4964   2.875   4.522   9.098 -0.9152 -2.2560  1.4529
   62SAPC  H12Y 4965   2.952   4.402   9.004 -1.7985  0.5812  0.6281
   62SAPC  C313 4966   3.065   4.597   9.017  1.0271  0.2837  0.1114
   62SAPC  H13X 4967   3.112   4.654   9.101  0.4914 -0.3285  0.8403
   62SAPC  H13Y 4968   3.002   4.661   8.952 -2.4496 -1.0372  1.8837
   62SAPC  C314 4969   3.189   4.550   8.952  0.0809 -0.2153  0.5880
   62SAPC  H14X 4970   3.147   4.467   8.891  0.3781  1.6148 -2.2607
   62SAPC  H14Y 4971   3.262   4.496   9.017  1.6717 -0.7595 -1.5432
   62SAPC  C315 4972   3.256   4.645   8.853  0.1888  0.0104 -0.6754
   62SAPC  H15X 4973   3.185   4.698   8.786 -1.0703  1.8999  2.0048
   62SAPC  H15Y 4974   3.323   4.585   8.788 -1.5226 -1.3015 -1.3033
   62SAPC  C316 4975   3.339   4.755   8.924 -0.1543  0.1563 -0.1122
   62SAPC  H16X 4976   3.262   4.825   8.963 -0.6400  0.3380 -1.3610
   62SAPC  H16Y 4977   3.405   4.820   8.863  0.1129  0.7882  0.8173
   62SAPC  C317 4978   3.437   4.703   9.031 -0.2339 -0.7339  0.4296
   62SAPC  H17X 4979   3.504   4.623   8.992  3.0077  1.7210  0.4967
   62SAPC  H17Y 4980   3.391   4.661   9.123  2.6049 -3.5093  0.7637
   62SAPC  C318 4981   3.512   4.827   9.081  0.5983  0.5967  0.4402
   62SAPC  H18X 4982   3.569   4.810   9.175  2.8041 -0.5613 -1.0154
   62SAPC  H18Y 4983   3.455   4.921   9.095 -2.2148 -0.6055 -1.9908
   62SAPC  H18Z 4984   3.579   4.859   8.999 -0.1070  1.5326  0.2185
   63SAPC     N 4985   6.550   5.724   6.216  0.3029 -0.8305  0.3848
   63SAPC   C12 4986   6.547   5.587   6.134  0.1576  0.1349  0.2036
   63SAPC  H12A 4987   6.645   5.575   6.089  0.5042  1.2364  0.6493
   63SAPC  H12B 4988   6.479   5.602   6.051  0.9818 -1.4603 -0.8159
   63SAPC   C13 4989   6.420   5.750   6.269 -0.3776 -0.2652  0.2124
   63SAPC  H13A 4990   6.418   5.844   6.322  0.3478 -0.8484  1.3083
   63SAPC  H13B 4991   6.351   5.757   6.186 -0.1417 -0.0286  0.0369
   63SAPC  H13C 4992   6.384   5.672   6.335 -0.1275 -0.1658  0.4690
   63SAPC   C14 4993   6.654   5.700   6.321 -0.6996 -0.1112 -0.5214
   63SAPC  H14A 4994   6.672   5.792   6.374  0.7530 -0.1221 -0.9456
   63SAPC  H14B 4995   6.620   5.622   6.387 -0.4703  0.0093 -0.2588
   63SAPC  H14C 4996   6.744   5.665   6.272 -0.3077  1.9577 -1.3691
   63SAPC   C15 4997   6.582   5.838   6.132 -0.0008  0.2353 -0.4883
   63SAPC  H15A 4998   6.515   5.843   6.047  1.9980 -0.0467 -2.1555
   63SAPC  H15B 4999   6.590   5.933   6.182  0.4574  1.1609 -2.2633
   63SAPC  H15C 5000   6.679   5.825   6.087 -0.1479 -0.9776 -0.4833
   63SAPC   C11 5001   6.507   5.448   6.199 -0.2182  0.3358 -0.1039
   63SAPC  H11A 5002   6.529   5.376   6.117  2.2441 -0.7565  1.4177
   63SAPC  H11B 5003   6.403   5.433   6.235 -0.2554  0.1284 -0.2978
   63SAPC     P 5004   6.737   5.363   6.285 -0.0838 -0.3342  0.1964
   63SAPC   O13 5005   6.714   5.218   6.270  0.3814 -0.0035 -0.3718
   63SAPC   O14 5006   6.808   5.448   6.182 -0.0198  0.5366 -0.5403
   63SAPC   O12 5007   6.594   5.423   6.307 -0.5477 -0.0869  0.3159
   63SAPC   O11 5008   6.808   5.378   6.427 -0.2652 -0.7511 -0.4751
   63SAPC    C1 5009   6.758   5.299   6.542  0.2600  0.2287  0.1805
   63SAPC    HA 5010   6.651   5.273   6.536  0.6336 -1.7055  1.1518
   63SAPC    HB 5011   6.814   5.203   6.544 -0.6342 -0.3366 -0.8894
   63SAPC    C2 5012   6.797   5.361   6.679 -0.7962  0.7293  0.2541
   63SAPC    HS 5013   6.753   5.463   6.679 -0.8942  0.7073 -1.0783
   63SAPC   O21 5014   6.940   5.348   6.690  0.4376 -0.0034 -0.4475
   63SAPC   C21 5015   6.994   5.436   6.769 -0.4752  0.5409  0.2867
   63SAPC   O22 5016   6.940   5.538   6.813  0.0414  0.0153  0.0256
   63SAPC   C22 5017   7.138   5.391   6.789 -1.0334 -0.5803  0.8608
   63SAPC   H2R 5018   7.159   5.330   6.880 -0.3581 -1.2686  0.2697
   63SAPC   H2S 5019   7.171   5.331   6.701 -2.0267  0.8805 -0.5525
   63SAPC    C3 5020   6.720   5.282   6.788 -0.2454 -0.1799  0.3672
   63SAPC    HX 5021   6.755   5.178   6.776 -0.3768 -0.2220  0.3455
   63SAPC    HY 5022   6.610   5.283   6.771 -0.3803  0.0054  1.1813
   63SAPC   O31 5023   6.744   5.323   6.921  0.1038 -0.6786  0.3976
   63SAPC   C31 5024   6.700   5.440   6.958  0.9938  0.1022  0.7668
   63SAPC   O32 5025   6.644   5.516   6.882  0.0967 -0.1480 -0.1625
   63SAPC   C32 5026   6.728   5.468   7.105  0.0140 -0.3278 -0.3462
   63SAPC   H2X 5027   6.671   5.560   7.132 -1.5056 -1.5396  0.7444
   63SAPC   H2Y 5028   6.835   5.487   7.128 -0.3857  0.2847  1.0787
   63SAPC   C23 5029   7.230   5.519   6.807 -0.3405 -0.0272 -0.5312
   63SAPC   H3R 5030   7.183   5.592   6.876  0.4976  0.0499 -0.0319
   63SAPC   H3S 5031   7.236   5.568   6.707  0.3375 -0.5296 -0.7454
   63SAPC   C24 5032   7.369   5.489   6.850  0.3933  0.2505  0.0244
   63SAPC   H4R 5033   7.367   5.437   6.948  0.5407  2.3249  1.1957
   63SAPC   H4S 5034   7.431   5.579   6.869 -1.5492  1.2838  1.9433
   63SAPC   C25 5035   7.443   5.415   6.736  0.0430 -0.3747 -0.5536
   63SAPC   H5R 5036   7.424   5.460   6.637  0.2112  0.7005 -0.1125
   63SAPC   C26 5037   7.510   5.301   6.754 -0.0370 -0.7344  0.6786
   63SAPC   H6R 5038   7.556   5.252   6.667 -2.1415 -2.6175  0.5294
   63SAPC   C27 5039   7.538   5.219   6.878  0.0129 -0.6472  0.3838
   63SAPC   H7R 5040   7.438   5.186   6.915 -1.2848  2.9685  0.4849
   63SAPC   H7S 5041   7.581   5.296   6.945  1.1185  1.0510 -2.1439
   63SAPC   C28 5042   7.635   5.107   6.868  0.6282  0.6561  0.3227
   63SAPC   H8R 5043   7.707   5.105   6.785  2.1252 -1.2236  1.5747
   63SAPC   C29 5044   7.645   5.003   6.954  0.2552  0.2410  0.0172
   63SAPC   H9R 5045   7.714   4.922   6.927  0.1966 -0.2948  1.3767
   63SAPC  C210 5046   7.562   4.966   7.074  0.6142  0.1088 -0.6559
   63SAPC  H10R 5047   7.477   4.897   7.056  1.3849 -1.1100  0.1676
   63SAPC  H10S 5048   7.505   5.052   7.115  1.1084  0.7500 -1.2833
   63SAPC  C211 5049   7.651   4.905   7.174 -0.1821 -0.2137 -0.2460
   63SAPC  H11R 5050   7.690   4.806   7.145  0.9747  0.4812 -1.1602
   63SAPC  C212 5051   7.704   4.958   7.287  1.0748 -0.2287 -0.2540
   63SAPC  H12R 5052   7.755   4.888   7.354  0.3934  0.7617  1.3597
   63SAPC  C213 5053   7.673   5.105   7.332  0.5798  0.1424  0.3820
   63SAPC  H13R 5054   7.658   5.171   7.244  0.1548  0.7452  0.9020
   63SAPC  H13S 5055   7.766   5.139   7.382  1.6161 -0.0412 -1.3118
   63SAPC  C214 5056   7.546   5.110   7.412  0.3507  0.1508 -0.1565
   63SAPC  H14R 5057   7.458   5.108   7.346  0.7739 -0.2682 -0.7217
   63SAPC  C215 5058   7.540   5.116   7.550  0.4463 -1.0081 -0.2956
   63SAPC  H15R 5059   7.444   5.116   7.603 -0.5888  4.7525 -1.4934
   63SAPC  C216 5060   7.662   5.129   7.635  0.0850 -0.3592 -0.3191
   63SAPC  H16R 5061   7.689   5.237   7.640 -1.0937 -0.0206 -1.0523
   63SAPC  H16S 5062   7.747   5.064   7.604  0.2815  0.2718 -1.1418
   63SAPC  C217 5063   7.638   5.091   7.781 -0.1157 -0.0701  0.5063
   63SAPC  H17R 5064   7.543   5.140   7.812 -1.0955 -1.3771 -0.3229
   63SAPC  H17S 5065   7.725   5.132   7.836  0.6853 -0.1719 -0.6540
   63SAPC  C218 5066   7.632   4.941   7.798  0.7446 -0.3023  0.1115
   63SAPC  H18R 5067   7.723   4.901   7.747  1.0774 -0.8894  1.1343
   63SAPC  H18S 5068   7.540   4.904   7.748  1.3969 -0.9464 -0.6498
   63SAPC  C219 5069   7.655   4.894   7.942  1.3098 -0.5075 -0.2588
   63SAPC  H19R 5070   7.760   4.914   7.972  1.3436  0.3689 -0.9143
   63SAPC  H19S 5071   7.646   4.784   7.934  1.8743 -0.5292 -0.6553
   63SAPC  C220 5072   7.561   4.944   8.047 -0.2109  0.4732  0.0199
   63SAPC  H20R 5073   7.456   4.910   8.034 -0.4144  1.0882 -0.0137
   63SAPC  H20S 5074   7.563   5.055   8.058  3.2757  0.6893 -1.7011
   63SAPC  H20T 5075   7.593   4.909   8.148  1.8345  1.6388 -0.1804
   63SAPC   C33 5076   6.677   5.359   7.205 -0.7600  0.1193 -0.4440
   63SAPC   H3X 5077   6.764   5.291   7.218 -0.2190  1.0498  1.1301
   63SAPC   H3Y 5078   6.581   5.305   7.187 -0.4950 -0.5063 -0.0273
   63SAPC   C34 5079   6.664   5.412   7.352  0.6235 -0.4344  0.0207
   63SAPC   H4X 5080   6.759   5.450   7.396  1.1562 -0.5880 -0.9724
   63SAPC   H4Y 5081   6.640   5.323   7.415  3.1416 -0.8375  0.5380
   63SAPC   C35 5082   6.548   5.509   7.385 -0.6430 -0.2501  0.0690
   63SAPC   H5X 5083   6.448   5.480   7.347 -1.6408  1.5286  1.1964
   63SAPC   H5Y 5084   6.578   5.598   7.326 -0.1217 -0.5828 -0.1716
   63SAPC   C36 5085   6.544   5.542   7.531 -0.1047 -0.1204 -0.3484
   63SAPC   H6X 5086   6.618   5.621   7.556 -1.0203  0.7411 -0.2765
   63SAPC   H6Y 5087   6.582   5.450   7.580 -1.6876 -0.4654  0.2749
   63SAPC   C37 5088   6.408   5.583   7.585 -0.0297  0.4575 -0.0178
   63SAPC   H7X 5089   6.336   5.520   7.530  1.8175 -1.5356 -0.2715
   63SAPC   H7Y 5090   6.398   5.691   7.559  0.4976  1.3994  3.2061
   63SAPC   C38 5091   6.399   5.543   7.734  0.2555 -0.2952  0.7806
   63SAPC   H8X 5092   6.467   5.597   7.804 -2.6092  0.1822  3.3991
   63SAPC   H8Y 5093   6.420   5.435   7.750 -0.3100 -0.6967 -0.9201
   63SAPC   C39 5094   6.256   5.566   7.777  0.1586 -0.2464  0.0578
   63SAPC   H9X 5095   6.174   5.524   7.715  1.5092 -0.1738 -1.8254
   63SAPC   H9Y 5096   6.234   5.675   7.774  0.0974 -0.2828 -2.2304
   63SAPC  C310 5097   6.231   5.524   7.923  0.0850 -0.1673  0.8788
   63SAPC  H10X 5098   6.300   5.585   7.984  0.6819  0.8277 -0.7279
   63SAPC  H10Y 5099   6.258   5.416   7.928 -1.4111 -0.5620  0.9092
   63SAPC  C311 5100   6.085   5.553   7.967 -1.2252  0.4478 -0.1641
   63SAPC  H11X 5101   6.026   5.480   7.907  1.1067 -2.2443  0.6330
   63SAPC  H11Y 5102   6.059   5.659   7.944 -2.0177  0.4268  0.5807
   63SAPC  C312 5103   6.084   5.511   8.113  0.6873 -0.8632 -0.2610
   63SAPC  H12X 5104   6.159   5.571   8.169  0.1042 -0.8467  0.5154
   63SAPC  H12Y 5105   6.110   5.403   8.107  2.3284 -0.5765  0.7747
   63SAPC  C313 5106   5.945   5.523   8.177  0.4455 -0.1038  0.2332
   63SAPC  H13X 5107   5.866   5.480   8.111 -2.0613 -1.3976  3.7702
   63SAPC  H13Y 5108   5.923   5.631   8.192 -0.1242 -0.1907  0.0716
   63SAPC  C314 5109   5.921   5.458   8.317 -0.1985 -0.5195 -0.0532
   63SAPC  H14X 5110   5.991   5.503   8.390  0.7272  0.2783 -1.3895
   63SAPC  H14Y 5111   5.956   5.353   8.314  0.8872 -0.1737 -0.0375
   63SAPC  C315 5112   5.776   5.456   8.358  0.8179 -0.1524  0.1429
   63SAPC  H15X 5113   5.710   5.413   8.279 -1.2970 -0.0043  1.7337
   63SAPC  H15Y 5114   5.749   5.560   8.389  0.1809 -0.2787  0.0254
   63SAPC  C316 5115   5.741   5.389   8.493 -0.0404  0.9985  0.0772
   63SAPC  H16X 5116   5.632   5.409   8.501 -0.8742 -1.9319 -2.2553
   63SAPC  H16Y 5117   5.794   5.453   8.567 -2.4109  0.1794  2.6501
   63SAPC  C317 5118   5.778   5.240   8.501  0.2851 -0.3203  0.7654
   63SAPC  H17X 5119   5.886   5.225   8.524  0.3790 -1.9735 -0.5318
   63SAPC  H17Y 5120   5.757   5.185   8.406 -0.2471 -1.3569  1.4614
   63SAPC  C318 5121   5.689   5.165   8.600 -0.3915 -0.0213 -0.0848
   63SAPC  H18X 5122   5.709   5.196   8.705  2.1223 -0.0607 -0.4993
   63SAPC  H18Y 5123   5.696   5.054   8.593  0.4344  0.0019  0.2532
   63SAPC  H18Z 5124   5.583   5.189   8.577 -0.3459 -1.9670 -2.7401
   64SAPC     N 5125   2.924   4.071   6.332 -0.4600 -0.8444 -0.6880
   64SAPC   C12 5126   2.998   4.205   6.310  0.2933 -0.0263  0.0525
   64SAPC  H12A 5127   2.951   4.261   6.231  0.0440  0.9892  0.8870
   64SAPC  H12B 5128   3.100   4.182   6.285  0.0805 -2.1803  0.9524
   64SAPC   C13 5129   2.988   4.006   6.455 -0.2698 -0.6568 -0.0297
   64SAPC  H13A 5130   2.954   3.905   6.473  1.0705 -1.2528 -0.6804
   64SAPC  H13B 5131   3.095   4.000   6.440  0.1073  4.1147 -0.9423
   64SAPC  H13C 5132   2.975   4.068   6.542 -2.0623 -1.5831  0.4232
   64SAPC   C14 5133   2.778   4.087   6.361  0.2614 -0.1570  1.0920
   64SAPC  H14A 5134   2.720   3.996   6.368  0.1994 -0.0657  1.9439
   64SAPC  H14B 5135   2.769   4.142   6.454 -0.3190 -2.9024  2.7848
   64SAPC  H14C 5136   2.736   4.143   6.279 -1.3673 -1.4972  0.9686
   64SAPC   C15 5137   2.944   3.982   6.210  0.4222 -0.6454  0.6917
   64SAPC  H15A 5138   3.049   3.962   6.198  0.7176  0.9298  0.3873
   64SAPC  H15B 5139   2.892   3.889   6.225 -1.0603  0.1995  1.0521
   64SAPC  H15C 5140   2.894   4.010   6.118 -0.0500 -4.3828 -0.3242
   64SAPC   C11 5141   3.004   4.298   6.422  0.3956 -0.2414 -0.5606
   64SAPC  H11A 5142   3.103   4.349   6.422 -0.2216  1.0995  1.3745
   64SAPC  H11B 5143   2.989   4.257   6.524  3.3189  1.8486  0.8719
   64SAPC     P 5144   2.926   4.551   6.434 -0.1811 -0.2747 -0.2804
   64SAPC   O13 5145   2.990   4.616   6.319 -0.0937 -0.1788 -0.5364
   64SAPC   O14 5146   2.796   4.606   6.482 -0.8311  0.4957  0.0048
   64SAPC   O12 5147   2.901   4.399   6.399 -0.2422  0.0909  0.1135
   64SAPC   O11 5148   3.031   4.556   6.553 -0.1350  0.1432  0.0210
   64SAPC    C1 5149   3.003   4.482   6.672 -0.1572  0.5485 -0.5734
   64SAPC    HA 5150   2.919   4.410   6.666  1.9493 -2.0146 -1.2655
   64SAPC    HB 5151   3.100   4.429   6.686 -1.1799 -1.1318  0.4931
   64SAPC    C2 5152   2.979   4.562   6.798  0.1685  0.0920 -0.2608
   64SAPC    HS 5153   3.075   4.571   6.854 -0.1463 -2.6120  0.8955
   64SAPC   O21 5154   2.878   4.497   6.889  0.1570 -0.2984 -0.0162
   64SAPC   C21 5155   2.899   4.377   6.915 -0.4858  0.1060 -0.6149
   64SAPC   O22 5156   2.993   4.305   6.880 -0.1478 -0.5307  0.1401
   64SAPC   C22 5157   2.782   4.327   6.995  0.6913 -0.3053 -0.2810
   64SAPC   H2R 5158   2.693   4.347   6.931  0.5048  1.8055  0.5666
   64SAPC   H2S 5159   2.799   4.220   7.022  4.7459 -0.0433 -1.2105
   64SAPC    C3 5160   2.926   4.706   6.769  0.1782  0.1132  0.4091
   64SAPC    HX 5161   2.819   4.700   6.741 -0.4029  0.3397  2.3930
   64SAPC    HY 5162   2.992   4.757   6.696  2.5537 -1.5820  1.2229
   64SAPC   O31 5163   2.904   4.783   6.885 -0.1727  0.1380 -0.8043
   64SAPC   C31 5164   3.020   4.821   6.949  0.2610 -0.4782  0.3597
   64SAPC   O32 5165   3.132   4.803   6.902 -0.5843  0.0723 -0.0874
   64SAPC   C32 5166   2.993   4.888   7.077 -0.9948 -0.4488  0.0796
   64SAPC   H2X 5167   2.927   4.976   7.057  1.2121  1.4666  0.6992
   64SAPC   H2Y 5168   3.087   4.939   7.107 -0.9738 -0.3350 -0.1782
   64SAPC   C23 5169   2.765   4.399   7.131 -1.3243  0.4142  0.2863
   64SAPC   H3R 5170   2.774   4.510   7.121  2.9817  0.2672  0.6491
   64SAPC   H3S 5171   2.849   4.360   7.192 -0.4589  1.1927 -0.3757
   64SAPC   C24 5172   2.627   4.392   7.194 -0.1532 -0.6188 -0.0903
   64SAPC   H4R 5173   2.547   4.399   7.117  1.5666 -0.1693 -1.9226
   64SAPC   H4S 5174   2.614   4.474   7.267 -2.2343  1.2548 -2.3836
   64SAPC   C25 5175   2.607   4.261   7.270 -0.3519 -0.1512 -0.1177
   64SAPC   H5R 5176   2.558   4.177   7.218  3.9002 -1.2501 -2.8564
   64SAPC   C26 5177   2.634   4.245   7.399  0.2078  0.0604 -0.1137
   64SAPC   H6R 5178   2.613   4.147   7.444 -1.4244  0.8364  0.9259
   64SAPC   C27 5179   2.687   4.351   7.488 -0.4339 -0.6485 -0.2565
   64SAPC   H7R 5180   2.618   4.436   7.509  3.2959  2.4770  0.4375
   64SAPC   H7S 5181   2.776   4.402   7.447  0.6856 -0.4214  2.2870
   64SAPC   C28 5182   2.738   4.302   7.621  0.5855 -0.2250 -0.0312
   64SAPC   H8R 5183   2.816   4.225   7.613  1.4808  0.3180  2.6539
   64SAPC   C29 5184   2.688   4.324   7.742  0.0207  0.2690 -0.5671
   64SAPC   H9R 5185   2.736   4.281   7.831 -3.2385  0.4580  1.4434
   64SAPC  C210 5186   2.570   4.409   7.776 -0.5559  0.3405 -0.2374
   64SAPC  H10R 5187   2.524   4.466   7.692 -0.0740 -0.5792 -1.1531
   64SAPC  H10S 5188   2.615   4.487   7.841  0.8552 -0.4871 -0.1818
   64SAPC  C211 5189   2.456   4.317   7.827  0.3162  0.0939  0.2653
   64SAPC  H11R 5190   2.419   4.235   7.765 -2.5041  1.3949  0.0844
   64SAPC  C212 5191   2.382   4.354   7.932  0.2165 -0.1242 -0.6238
   64SAPC  H12R 5192   2.292   4.294   7.951  0.5526 -0.1138  1.2271
   64SAPC  C213 5193   2.397   4.470   8.029  0.0101 -0.5897  0.1101
   64SAPC  H13R 5194   2.312   4.538   8.006  0.1586 -0.1132  0.9329
   64SAPC  H13S 5195   2.498   4.508   8.000  0.2675 -1.3942 -0.0814
   64SAPC  C214 5196   2.395   4.417   8.172 -0.5537  0.0376  0.1692
   64SAPC  H14R 5197   2.438   4.317   8.187  0.5513  0.5458  0.4901
   64SAPC  C215 5198   2.336   4.477   8.273 -0.2198  0.1927 -0.3218
   64SAPC  H15R 5199   2.343   4.431   8.373 -0.7547 -0.3454 -0.5278
   64SAPC  C216 5200   2.263   4.618   8.266 -0.4300 -0.1072  0.4568
   64SAPC  H16R 5201   2.253   4.656   8.162  2.2412  2.2722  0.9354
   64SAPC  H16S 5202   2.306   4.693   8.336 -1.6671  1.0190  0.0488
   64SAPC  C217 5203   2.117   4.593   8.308 -0.8273  0.0972  0.0687
   64SAPC  H17R 5204   2.077   4.500   8.263 -1.4555 -0.8865  2.4873
   64SAPC  H17S 5205   2.062   4.670   8.251  1.9453  1.1177 -1.4045
   64SAPC  C218 5206   2.100   4.600   8.460 -0.5235 -0.7343  0.2576
   64SAPC  H18R 5207   2.154   4.690   8.494 -1.4676  0.1228 -0.4457
   64SAPC  H18S 5208   2.163   4.518   8.501  2.1449  0.9597 -0.2375
   64SAPC  C219 5209   1.958   4.613   8.489  0.3461 -0.3288 -0.2628
   64SAPC  H19R 5210   1.908   4.661   8.402 -0.9400  0.3523  0.8210
   64SAPC  H19S 5211   1.953   4.678   8.578  0.1835 -1.1720  0.3544
   64SAPC  C220 5212   1.901   4.472   8.519 -0.2345 -0.1539  0.1328
   64SAPC  H20R 5213   1.793   4.488   8.541 -0.4399 -3.1717  1.8642
   64SAPC  H20S 5214   1.966   4.436   8.602 -1.0619 -2.0648  0.0025
   64SAPC  H20T 5215   1.918   4.408   8.430  0.8717 -1.0023  0.9248
   64SAPC   C33 5216   2.963   4.789   7.186  0.0414 -0.5308  0.5428
   64SAPC   H3X 5217   3.041   4.710   7.178  0.2549 -0.1631 -1.2155
   64SAPC   H3Y 5218   2.861   4.749   7.169  0.8503 -2.0077 -1.2559
   64SAPC   C34 5219   2.976   4.860   7.321 -0.5606 -0.1310  0.1133
   64SAPC   H4X 5220   2.921   4.956   7.318 -1.1263 -0.4574 -0.1200
   64SAPC   H4Y 5221   3.086   4.864   7.341 -0.8500  0.5282  1.7023
   64SAPC   C35 5222   2.908   4.773   7.423  0.8305  0.5038 -0.3583
   64SAPC   H5X 5223   2.940   4.667   7.418 -1.3326 -0.2872  0.9055
   64SAPC   H5Y 5224   2.801   4.760   7.394  0.9306 -2.9433  0.3979
   64SAPC   C36 5225   2.919   4.816   7.574 -0.1372  0.1196 -0.4800
   64SAPC   H6X 5226   2.871   4.916   7.568  1.2626  0.8523  0.0439
   64SAPC   H6Y 5227   3.028   4.817   7.598  0.1428 -1.4543 -1.4938
   64SAPC   C37 5228   2.846   4.717   7.662 -0.4088 -0.1091  0.8514
   64SAPC   H7X 5229   2.906   4.624   7.669 -0.5827 -0.1911  1.3374
   64SAPC   H7Y 5230   2.745   4.693   7.623  0.0906 -1.3698  0.2936
   64SAPC   C38 5231   2.842   4.773   7.805 -0.0620  0.4945 -0.4112
   64SAPC   H8X 5232   2.801   4.876   7.806 -1.7109 -0.1381  1.0854
   64SAPC   H8Y 5233   2.946   4.777   7.845 -0.3104 -1.9134  0.6339
   64SAPC   C39 5234   2.772   4.682   7.906 -0.5398  0.6888  0.0984
   64SAPC   H9X 5235   2.815   4.581   7.892 -1.3800  0.6559 -3.2208
   64SAPC   H9Y 5236   2.662   4.670   7.903 -0.4305 -0.4204  0.3421
   64SAPC  C310 5237   2.788   4.722   8.055 -0.0614  0.0614  0.2950
   64SAPC  H10X 5238   2.752   4.827   8.058 -0.9259 -0.1970 -0.5059
   64SAPC  H10Y 5239   2.892   4.731   8.094  0.0468  0.8823 -0.1591
   64SAPC  C311 5240   2.704   4.641   8.162  0.4783 -0.6484  0.3480
   64SAPC  H11X 5241   2.756   4.542   8.163 -0.7558 -1.3264  1.9816
   64SAPC  H11Y 5242   2.604   4.624   8.118  0.7158  2.9946 -1.9821
   64SAPC  C312 5243   2.714   4.698   8.304  0.4334  0.1475  0.1265
   64SAPC  H12X 5244   2.643   4.783   8.308  0.4828  0.3004 -1.5718
   64SAPC  H12Y 5245   2.817   4.734   8.322  1.0033 -0.6865 -1.3075
   64SAPC  C313 5246   2.672   4.602   8.410 -0.1662 -0.3843 -0.0612
   64SAPC  H13X 5247   2.743   4.517   8.409  0.3617  0.0540 -0.9764
   64SAPC  H13Y 5248   2.567   4.573   8.385  0.3819 -0.3869 -2.6069
   64SAPC  C314 5249   2.678   4.663   8.551  0.4981  1.0147 -0.1645
   64SAPC  H14X 5250   2.633   4.764   8.548  2.1087  1.7319 -2.5826
   64SAPC  H14Y 5251   2.785   4.679   8.577  1.1450 -1.7444 -0.7409
   64SAPC  C315 5252   2.613   4.568   8.658 -0.3531  0.6166 -0.2998
   64SAPC  H15X 5253   2.648   4.466   8.632  2.0347  1.3332 -0.0970
   64SAPC  H15Y 5254   2.505   4.572   8.633  0.2730  1.7849 -3.2211
   64SAPC  C316 5255   2.660   4.599   8.800  0.0136 -0.6641 -0.0460
   64SAPC  H16X 5256   2.770   4.586   8.808  0.1879  0.8187  0.1982
   64SAPC  H16Y 5257   2.626   4.510   8.859 -0.9130 -1.0159 -1.0690
   64SAPC  C317 5258   2.611   4.735   8.854  0.5804 -0.0648 -0.3855
   64SAPC  H17X 5259   2.502   4.729   8.876  0.7659 -1.9005  0.1713
   64SAPC  H17Y 5260   2.634   4.806   8.771 -1.5165 -0.1640 -1.0972
   64SAPC  C318 5261   2.688   4.794   8.973 -0.5315  0.5538 -0.6126
   64SAPC  H18X 5262   2.798   4.795   8.958 -0.4327 -0.8888 -0.1243
   64SAPC  H18Y 5263   2.656   4.735   9.061 -0.5526  0.0524 -0.9526
   64SAPC  H18Z 5264   2.651   4.894   9.005  1.9945  1.3039  0.1527
   65SAPC     N 5265   1.976   0.795   6.200  0.6945  0.7248 -1.0316
   65SAPC   C12 5266   1.889   0.919   6.236 -0.0769  0.5773  0.1533
   65SAPC  H12A 5267   1.858   0.969   6.146  0.0125  0.1058 -0.1448
   65SAPC  H12B 5268   1.945   0.992   6.293 -0.2804  1.2957 -0.5515
   65SAPC   C13 5269   2.016   0.722   6.328  0.0186 -0.6066  0.4250
   65SAPC  H13A 5270   1.934   0.663   6.367 -0.8277  1.1664  1.4698
   65SAPC  H13B 5271   2.107   0.666   6.314 -0.1564 -0.9982  0.8502
   65SAPC  H13C 5272   2.054   0.789   6.404 -0.3629 -0.6199  0.6334
   65SAPC   C14 5273   1.895   0.700   6.110  0.7090 -0.3210 -0.3722
   65SAPC  H14A 5274   1.808   0.667   6.165  2.1206 -0.0897  2.2011
   65SAPC  H14B 5275   1.859   0.756   6.026 -1.3544  0.7336  1.1214
   65SAPC  H14C 5276   1.955   0.616   6.076  0.7167 -1.1858  1.6008
   65SAPC   C15 5277   2.089   0.844   6.119 -0.5056 -0.2702 -0.5218
   65SAPC  H15A 5278   2.057   0.902   6.033 -1.7575 -0.5742 -0.2847
   65SAPC  H15B 5279   2.150   0.913   6.175 -0.5379 -0.0667 -0.7349
   65SAPC  H15C 5280   2.160   0.765   6.098 -0.5771 -0.0560 -1.6222
   65SAPC   C11 5281   1.764   0.889   6.324  0.9395 -0.3918 -0.4414
   65SAPC  H11A 5282   1.706   0.978   6.356  0.8229 -0.1352 -1.3333
   65SAPC  H11B 5283   1.791   0.844   6.422  0.9108 -0.1561 -0.3238
   65SAPC     P 5284   1.545   0.846   6.172  0.1090 -0.0745 -0.0645
   65SAPC   O13 5285   1.582   0.973   6.107  0.2647 -0.6464 -0.2175
   65SAPC   O14 5286   1.500   0.740   6.079  0.8499 -0.3064 -0.0070
   65SAPC   O12 5287   1.669   0.802   6.259 -0.3330  0.1785  0.2877
   65SAPC   O11 5288   1.424   0.874   6.264  0.1953  0.1161  0.4366
   65SAPC    C1 5289   1.388   0.784   6.368  0.5852 -0.6833  0.3460
   65SAPC    HA 5290   1.278   0.772   6.358  0.3186  1.7485 -0.3184
   65SAPC    HB 5291   1.442   0.687   6.364  0.3815 -0.8208  0.8585
   65SAPC    C2 5292   1.420   0.852   6.502  0.2176  0.0730  0.3841
   65SAPC    HS 5293   1.530   0.854   6.520 -0.0101  3.1997  2.1184
   65SAPC   O21 5294   1.348   0.790   6.607 -0.0583 -0.0438 -0.1342
   65SAPC   C21 5295   1.411   0.677   6.639 -1.0614 -0.4562  0.1117
   65SAPC   O22 5296   1.507   0.626   6.590  0.0399  0.4706 -0.0967
   65SAPC   C22 5297   1.339   0.626   6.765  0.2475  0.1729  0.4051
   65SAPC   H2R 5298   1.252   0.567   6.729  0.6912 -0.3472  0.1673
   65SAPC   H2S 5299   1.407   0.553   6.815 -1.7480 -1.2671  1.1505
   65SAPC    C3 5300   1.388   1.000   6.505 -0.4638 -0.9029  0.2699
   65SAPC    HX 5301   1.278   1.005   6.490 -0.7208 -0.5891  2.0763
   65SAPC    HY 5302   1.443   1.056   6.426  2.8694 -0.4830  2.6692
   65SAPC   O31 5303   1.409   1.056   6.640 -0.4775 -0.2582  0.0176
   65SAPC   C31 5304   1.530   1.113   6.654  0.8205  0.5152  0.4697
   65SAPC   O32 5305   1.613   1.116   6.562  0.1790 -0.1958 -0.2288
   65SAPC   C32 5306   1.551   1.150   6.798 -0.8049  0.1760 -0.0116
   65SAPC   H2X 5307   1.616   1.240   6.803  1.3617 -1.3302  0.1125
   65SAPC   H2Y 5308   1.610   1.069   6.846 -0.3539  0.5745  0.1197
   65SAPC   C23 5309   1.290   0.733   6.860 -0.1637  0.8293 -0.2660
   65SAPC   H3R 5310   1.202   0.776   6.807 -1.3264  0.7652  1.5323
   65SAPC   H3S 5311   1.373   0.806   6.856 -2.3524  3.5031 -0.1613
   65SAPC   C24 5312   1.257   0.697   6.999 -0.5664  0.2152 -0.1005
   65SAPC   H4R 5313   1.177   0.620   7.000 -0.8285  0.4641  1.5941
   65SAPC   H4S 5314   1.209   0.786   7.044  0.0574 -0.2408  1.5194
   65SAPC   C25 5315   1.379   0.654   7.073 -0.5738 -0.2897  0.2088
   65SAPC   H5R 5316   1.450   0.585   7.025 -0.6558 -1.2624  1.4401
   65SAPC   C26 5317   1.406   0.687   7.199 -1.0433  0.3298  0.4306
   65SAPC   H6R 5318   1.494   0.646   7.251  0.8204  2.5011 -0.8568
   65SAPC   C27 5319   1.324   0.782   7.290  0.8143  0.2720 -0.0837
   65SAPC   H7R 5320   1.214   0.774   7.282  0.9335 -2.1351 -0.0358
   65SAPC   H7S 5321   1.349   0.881   7.246 -1.4814  1.4131  1.0130
   65SAPC   C28 5322   1.345   0.782   7.444  0.2020  0.2867  0.0936
   65SAPC   H8R 5323   1.245   0.768   7.487 -0.5273  1.6585 -1.0567
   65SAPC   C29 5324   1.448   0.808   7.515  0.1349 -0.2718 -0.1244
   65SAPC   H9R 5325   1.438   0.798   7.624 -1.3270 -0.5209 -0.2650
   65SAPC  C210 5326   1.582   0.848   7.463  1.1513 -0.4176  0.0014
   65SAPC  H10R 5327   1.590   0.957   7.483  0.7889 -0.2565 -0.7226
   65SAPC  H10S 5328   1.574   0.816   7.357 -1.6596 -1.4222  0.4308
   65SAPC  C211 5329   1.702   0.786   7.534  0.9424 -0.2763  0.2570
   65SAPC  H11R 5330   1.768   0.730   7.467  2.6775 -0.1375  1.7683
   65SAPC  C212 5331   1.733   0.789   7.668 -0.5605 -0.2975 -0.1916
   65SAPC  H12R 5332   1.825   0.733   7.688  1.3484  2.4420 -0.8721
   65SAPC  C213 5333   1.661   0.874   7.779 -0.6351  0.1591 -0.2356
   65SAPC  H13R 5334   1.564   0.918   7.748 -0.2481  0.0411 -1.6977
   65SAPC  H13S 5335   1.725   0.957   7.816 -0.9044  0.6105 -0.7659
   65SAPC  C214 5336   1.650   0.779   7.900 -0.0676  0.3085  1.2976
   65SAPC  H14R 5337   1.734   0.710   7.911 -1.6993 -1.7790  1.1900
   65SAPC  C215 5338   1.539   0.772   7.978 -0.8871  0.5322 -0.0749
   65SAPC  H15R 5339   1.552   0.710   8.068  1.5879  2.6383  1.1656
   65SAPC  C216 5340   1.416   0.855   7.977  0.1688 -0.6921  0.7081
   65SAPC  H16R 5341   1.347   0.825   7.896 -0.7182 -0.4117  1.3448
   65SAPC  H16S 5342   1.452   0.960   7.968  1.4693 -1.2816 -1.8086
   65SAPC  C217 5343   1.337   0.832   8.107  0.7862 -0.1810 -0.1198
   65SAPC  H17R 5344   1.268   0.912   8.140  2.5741  0.9708  0.9534
   65SAPC  H17S 5345   1.403   0.838   8.195 -0.5331 -1.7909  1.0508
   65SAPC  C218 5346   1.266   0.699   8.110 -0.4187 -0.2000 -0.3505
   65SAPC  H18R 5347   1.324   0.620   8.057 -1.8890 -1.4634 -0.1647
   65SAPC  H18S 5348   1.178   0.700   8.042 -0.3052 -3.0212 -0.6617
   65SAPC  C219 5349   1.226   0.652   8.253 -0.0150  1.0956  0.0116
   65SAPC  H19R 5350   1.145   0.580   8.230  1.2910 -1.0824  1.8005
   65SAPC  H19S 5351   1.183   0.737   8.311 -2.0237  0.4923 -0.5114
   65SAPC  C220 5352   1.342   0.586   8.327  0.7586 -0.3771 -0.7807
   65SAPC  H20R 5353   1.418   0.666   8.339 -0.6540  1.3412 -2.6428
   65SAPC  H20S 5354   1.399   0.506   8.275  1.5615 -0.2064 -0.1803
   65SAPC  H20T 5355   1.298   0.544   8.420  0.5046  1.7609  0.1360
   65SAPC   C33 5356   1.426   1.163   6.880  0.4582 -0.6278 -0.9842
   65SAPC   H3X 5357   1.356   1.076   6.878 -0.4015  0.0154  0.1912
   65SAPC   H3Y 5358   1.367   1.247   6.838  1.9890  0.2350 -1.4684
   65SAPC   C34 5359   1.450   1.193   7.028 -0.7273  0.1377 -0.2785
   65SAPC   H4X 5360   1.484   1.100   7.078 -1.8152 -0.9957 -1.5312
   65SAPC   H4Y 5361   1.351   1.223   7.069 -0.4494  1.4755 -0.5471
   65SAPC   C35 5362   1.561   1.299   7.054 -0.0395  0.4808  0.3844
   65SAPC   H5X 5363   1.565   1.378   6.976  0.8864  0.3471  0.2881
   65SAPC   H5Y 5364   1.658   1.245   7.046 -1.4625 -2.0634 -0.8239
   65SAPC   C36 5365   1.536   1.336   7.197 -0.4750 -0.5288  0.2595
   65SAPC   H6X 5366   1.543   1.249   7.265  0.9864 -0.8624 -0.2918
   65SAPC   H6Y 5367   1.444   1.398   7.208  0.2159  0.3016  1.5338
   65SAPC   C37 5368   1.645   1.427   7.256 -0.2352 -0.2930 -0.8262
   65SAPC   H7X 5369   1.675   1.491   7.170  2.3946 -0.5484 -0.1796
   65SAPC   H7Y 5370   1.734   1.373   7.295  0.3696  0.6694 -0.8393
   65SAPC   C38 5371   1.604   1.514   7.380  0.3267  0.3822 -0.1291
   65SAPC   H8X 5372   1.521   1.578   7.342  0.4910 -0.1663 -1.4528
   65SAPC   H8Y 5373   1.686   1.585   7.403 -0.4254  1.1693  0.2020
   65SAPC   C39 5374   1.562   1.432   7.504 -0.0558  0.1663  0.1202
   65SAPC   H9X 5375   1.648   1.365   7.527 -0.6234 -0.3838  0.6735
   65SAPC   H9Y 5376   1.479   1.366   7.473 -0.3619 -0.7178  2.5912
   65SAPC  C310 5377   1.492   1.503   7.615 -0.0056 -0.3912 -0.0571
   65SAPC  H10X 5378   1.406   1.556   7.568  2.2976  1.2511 -2.7222
   65SAPC  H10Y 5379   1.559   1.565   7.677 -1.0781 -1.1935  1.9941
   65SAPC  C311 5380   1.438   1.391   7.709 -0.2109 -0.2797 -0.5515
   65SAPC  H11X 5381   1.398   1.309   7.647 -0.3666 -0.9028  0.3508
   65SAPC  H11Y 5382   1.351   1.420   7.772  0.9635 -0.6096  1.3092
   65SAPC  C312 5383   1.536   1.335   7.817 -0.7097  0.0700 -0.0175
   65SAPC  H12X 5384   1.629   1.394   7.832 -0.0065 -0.8999 -0.4128
   65SAPC  H12Y 5385   1.564   1.232   7.787 -0.8765 -0.0257  0.1504
   65SAPC  C313 5386   1.459   1.323   7.952  0.0209 -0.1777 -0.0575
   65SAPC  H13X 5387   1.366   1.264   7.934  1.4375 -2.2170 -1.0973
   65SAPC  H13Y 5388   1.438   1.423   7.996  0.6923  0.6691 -1.5853
   65SAPC  C314 5389   1.535   1.240   8.057  0.2278  0.0321  0.0621
   65SAPC  H14X 5390   1.628   1.296   8.082  1.5978 -0.7294 -2.9191
   65SAPC  H14Y 5391   1.575   1.149   8.007  2.6678  1.0620 -0.0108
   65SAPC  C315 5392   1.453   1.224   8.186 -0.2599  0.5486  0.7655
   65SAPC  H15X 5393   1.382   1.141   8.166  0.4974 -0.3158  1.5624
   65SAPC  H15Y 5394   1.398   1.319   8.203  1.1644  1.4057  0.7571
   65SAPC  C316 5395   1.529   1.177   8.311 -0.2942  0.0601 -0.0078
   65SAPC  H16X 5396   1.607   1.252   8.337 -0.7200  0.8330 -0.9275
   65SAPC  H16Y 5397   1.585   1.083   8.290 -3.2945 -2.1098  0.9318
   65SAPC  C317 5398   1.447   1.151   8.444 -0.0495 -0.1425 -0.0145
   65SAPC  H17X 5399   1.383   1.239   8.469  0.2440 -0.1727  0.8957
   65SAPC  H17Y 5400   1.521   1.149   8.527  1.6164  0.0133 -1.4443
   65SAPC  C318 5401   1.365   1.029   8.438 -0.4441 -0.1930  0.5478
   65SAPC  H18X 5402   1.292   1.043   8.356  0.5088  1.2456 -0.1002
   65SAPC  H18Y 5403   1.311   1.012   8.533  0.3307  1.1715  1.2616
   65SAPC  H18Z 5404   1.435   0.943   8.424 -1.2526 -0.7512 -0.2167
   66SAPC     N 5405   5.501   0.772   5.882  0.0818 -0.0173 -0.5486
   66SAPC   C12 5406   5.452   0.726   6.013 -0.5990  0.4000 -0.1564
   66SAPC  H12A 5407   5.524   0.655   6.052  0.2121  0.7485 -0.9969
   66SAPC  H12B 5408   5.365   0.662   6.004  0.3990 -0.8481 -1.2269
   66SAPC   C13 5409   5.640   0.821   5.897  0.3859 -0.6031 -0.4545
   66SAPC  H13A 5410   5.689   0.833   5.802  1.8830  0.0063  0.3687
   66SAPC  H13B 5411   5.634   0.915   5.950  0.7921 -1.7677  1.7818
   66SAPC  H13C 5412   5.702   0.761   5.961  1.9095  3.2188  2.0084
   66SAPC   C14 5413   5.519   0.651   5.798  0.2034  0.7070  0.1218
   66SAPC  H14A 5414   5.550   0.569   5.861 -2.9900  0.1341  1.1309
   66SAPC  H14B 5415   5.423   0.619   5.760  0.0963 -1.5877  2.1108
   66SAPC  H14C 5416   5.578   0.662   5.708 -0.5102 -1.2540 -0.6648
   66SAPC   C15 5417   5.408   0.861   5.824  0.5254 -0.7276  0.6930
   66SAPC  H15A 5418   5.388   0.944   5.891 -0.0949 -0.2437 -0.0757
   66SAPC  H15B 5419   5.421   0.886   5.720  0.6429 -1.5995  0.4950
   66SAPC  H15C 5420   5.312   0.812   5.823  0.0201  0.2276  0.8181
   66SAPC   C11 5421   5.444   0.827   6.128 -0.3274 -0.1757  0.2274
   66SAPC  H11A 5422   5.534   0.892   6.138  0.0919 -0.5595 -0.9472
   66SAPC  H11B 5423   5.433   0.763   6.218  1.5548 -2.9225 -1.3671
   66SAPC     P 5424   5.186   0.882   6.137  0.1513 -0.1961 -0.6306
   66SAPC   O13 5425   5.097   0.997   6.097 -0.0735 -0.2536  0.2133
   66SAPC   O14 5426   5.150   0.742   6.093  0.0435  0.1129  0.1863
   66SAPC   O12 5427   5.336   0.920   6.104  0.1799 -0.5149 -0.3441
   66SAPC   O11 5428   5.193   0.883   6.296  0.2646  0.7003  0.0338
   66SAPC    C1 5429   5.196   0.766   6.380 -0.1811  0.2212  0.0375
   66SAPC    HA 5430   5.240   0.675   6.335 -0.1953 -1.0606  2.4624
   66SAPC    HB 5431   5.275   0.780   6.456  0.3809 -1.8886 -0.1102
   66SAPC    C2 5432   5.064   0.740   6.453 -0.5052  0.3361  0.5489
   66SAPC    HS 5433   4.986   0.716   6.378 -0.5826  3.6588 -0.6220
   66SAPC   O21 5434   5.026   0.865   6.523  0.3633  0.0381  0.2214
   66SAPC   C21 5435   4.888   0.880   6.529 -0.5753  0.5917  0.5357
   66SAPC   O22 5436   4.809   0.804   6.477  0.0346 -0.9881  0.0741
   66SAPC   C22 5437   4.856   1.003   6.605 -0.1188  0.7939  0.6359
   66SAPC   H2R 5438   4.940   1.023   6.674  1.0361  2.2879 -1.1218
   66SAPC   H2S 5439   4.859   1.088   6.534 -3.4182 -0.8173 -1.7030
   66SAPC    C3 5440   5.076   0.625   6.557  0.4847 -0.0896  0.1363
   66SAPC    HX 5441   5.136   0.670   6.639  0.6163  1.5550 -0.8049
   66SAPC    HY 5442   5.139   0.546   6.513 -0.7150 -1.1890  0.3345
   66SAPC   O31 5443   4.948   0.585   6.614 -0.2318  0.0530 -0.7732
   66SAPC   C31 5444   4.876   0.502   6.541  0.2180 -0.6180 -0.1010
   66SAPC   O32 5445   4.921   0.436   6.454  0.3379  0.5504  0.1342
   66SAPC   C32 5446   4.727   0.492   6.577 -0.0542 -0.1429  0.2978
   66SAPC   H2X 5447   4.661   0.538   6.500 -0.0775  3.1799  2.1086
   66SAPC   H2Y 5448   4.716   0.553   6.670  0.1664  0.4086 -0.0349
   66SAPC   C23 5449   4.718   0.994   6.673  0.3408 -1.4475  0.4327
   66SAPC   H3R 5450   4.632   0.994   6.602 -0.3590  2.5836  1.0476
   66SAPC   H3S 5451   4.695   1.086   6.731  0.2960  0.2262 -2.0534
   66SAPC   C24 5452   4.695   0.871   6.768 -0.4494 -0.4190 -0.0492
   66SAPC   H4R 5453   4.774   0.876   6.846 -1.0828 -0.4180  0.5999
   66SAPC   H4S 5454   4.722   0.787   6.701 -0.4875  1.2298 -2.2355
   66SAPC   C25 5455   4.562   0.850   6.824  0.3925  0.0311  0.8561
   66SAPC   H5R 5456   4.487   0.840   6.745  2.0756 -0.7450 -0.6962
   66SAPC   C26 5457   4.525   0.845   6.954  0.1423 -1.5724  0.7655
   66SAPC   H6R 5458   4.416   0.836   6.967 -0.1455  0.3645 -0.0293
   66SAPC   C27 5459   4.609   0.862   7.071  0.4187  0.4197 -0.5098
   66SAPC   H7R 5460   4.584   0.944   7.141 -0.4334 -0.4459  0.2421
   66SAPC   H7S 5461   4.716   0.887   7.055  1.6176 -1.5733  3.2208
   66SAPC   C28 5462   4.603   0.722   7.133 -0.0722 -0.1582  0.1504
   66SAPC   H8R 5463   4.603   0.637   7.064 -2.9778  0.4046 -0.6647
   66SAPC   C29 5464   4.592   0.703   7.268 -0.0618 -0.0247  0.5013
   66SAPC   H9R 5465   4.584   0.603   7.314 -1.7100 -0.8653 -1.4630
   66SAPC  C210 5466   4.586   0.809   7.374  0.2321 -0.8635  0.6350
   66SAPC  H10R 5467   4.483   0.848   7.384  0.1584 -1.2491  1.4607
   66SAPC  H10S 5468   4.632   0.906   7.345 -1.4772 -0.2399 -0.0903
   66SAPC  C211 5469   4.639   0.755   7.504 -0.1702 -0.6744  0.0061
   66SAPC  H11R 5470   4.749   0.752   7.505  0.0139  1.2264 -2.8303
   66SAPC  C212 5471   4.567   0.702   7.610 -0.3433 -0.7217  0.2668
   66SAPC  H12R 5472   4.623   0.672   7.700 -0.4027  1.0657  0.9549
   66SAPC  C213 5473   4.424   0.666   7.607  0.7643 -0.7054 -0.4561
   66SAPC  H13R 5474   4.362   0.717   7.530  1.8810  0.0355 -0.8956
   66SAPC  H13S 5475   4.374   0.709   7.697  0.8759  1.3184 -1.3120
   66SAPC  C214 5476   4.390   0.521   7.627  0.8001 -0.1411  0.2242
   66SAPC  H14R 5477   4.435   0.455   7.702  0.0013 -1.0063 -0.0350
   66SAPC  C215 5478   4.305   0.445   7.555 -0.3299 -0.4995 -0.2352
   66SAPC  H15R 5479   4.289   0.337   7.572 -0.3901 -0.7602 -1.7890
   66SAPC  C216 5480   4.229   0.507   7.444 -0.3286 -0.2540  0.0129
   66SAPC  H16R 5481   4.203   0.431   7.367  2.6775  0.1145 -1.5025
   66SAPC  H16S 5482   4.296   0.571   7.383 -1.1985  1.1320  0.4809
   66SAPC  C217 5483   4.095   0.590   7.463 -0.7651  0.1191  0.3312
   66SAPC  H17R 5484   4.120   0.688   7.509 -0.6578 -0.6206  1.9187
   66SAPC  H17S 5485   4.027   0.547   7.539 -1.1289  0.9479  0.4890
   66SAPC  C218 5486   4.019   0.625   7.332 -0.3956  0.4042  0.1327
   66SAPC  H18R 5487   4.079   0.710   7.293 -0.4693 -0.0048 -0.9040
   66SAPC  H18S 5488   3.920   0.667   7.359  0.1016  1.6527  0.0719
   66SAPC  C219 5489   3.984   0.513   7.228  0.4101  0.5757 -0.3617
   66SAPC  H19R 5490   3.926   0.427   7.269  1.5438  0.5540  1.2748
   66SAPC  H19S 5491   4.076   0.476   7.178  1.2135  1.7640  0.1947
   66SAPC  C220 5492   3.896   0.566   7.116  0.0510 -1.1003  0.3037
   66SAPC  H20R 5493   3.795   0.580   7.161  0.4127 -2.3911  1.5735
   66SAPC  H20S 5494   3.879   0.500   7.028  0.0316  0.5242 -0.9675
   66SAPC  H20T 5495   3.933   0.661   7.071  1.5021 -1.1356  1.3541
   66SAPC   C33 5496   4.677   0.347   6.612 -0.1421 -0.9201  0.0385
   66SAPC   H3X 5497   4.765   0.289   6.579  0.3647  0.2399 -0.7082
   66SAPC   H3Y 5498   4.594   0.306   6.551  0.0439 -1.1912 -0.0337
   66SAPC   C34 5499   4.658   0.327   6.760  0.3628  0.5135  0.8685
   66SAPC   H4X 5500   4.756   0.323   6.812  1.8317 -0.1785 -1.7746
   66SAPC   H4Y 5501   4.625   0.221   6.770  1.8098  0.0250  0.6167
   66SAPC   C35 5502   4.555   0.414   6.828 -0.3872 -0.0303 -0.1442
   66SAPC   H5X 5503   4.452   0.383   6.798 -0.6555 -0.1172  0.8096
   66SAPC   H5Y 5504   4.574   0.520   6.803 -0.7095 -0.3013 -1.6456
   66SAPC   C36 5505   4.561   0.398   6.982  0.0238 -0.4152 -0.3613
   66SAPC   H6X 5506   4.476   0.452   7.029 -0.2990  1.5062 -2.9160
   66SAPC   H6Y 5507   4.660   0.441   7.007  0.1641 -0.5340 -0.7002
   66SAPC   C37 5508   4.553   0.253   7.034 -0.4522  1.1267 -0.2736
   66SAPC   H7X 5509   4.658   0.222   7.020  0.0942  0.9825  3.2065
   66SAPC   H7Y 5510   4.481   0.194   6.973 -0.7357 -0.2632  1.3246
   66SAPC   C38 5511   4.505   0.255   7.174 -0.8120  0.0352 -0.7152
   66SAPC   H8X 5512   4.404   0.300   7.182 -0.8476 -0.2349  0.6467
   66SAPC   H8Y 5513   4.577   0.315   7.234 -0.2016 -1.0610 -0.3280
   66SAPC   C39 5514   4.510   0.113   7.233  1.0031 -0.3108  0.1044
   66SAPC   H9X 5515   4.612   0.073   7.216  0.3618 -1.1414 -2.3441
   66SAPC   H9Y 5516   4.439   0.045   7.181  1.4525 -0.6261 -0.1017
   66SAPC  C310 5517   4.475   0.109   7.377  0.0302 -0.2009 -0.0434
   66SAPC  H10X 5518   4.393   0.184   7.384  1.0799  1.5110 -3.5902
   66SAPC  H10Y 5519   4.566   0.139   7.433  0.7089 -1.0900 -0.6558
   66SAPC  C311 5520   4.410  -0.028   7.424 -0.7160 -0.0208  0.6670
   66SAPC  H11X 5521   4.475  -0.111   7.390  0.6681  0.6911  1.5044
   66SAPC  H11Y 5522   4.316  -0.043   7.366  0.8781 -2.2837 -1.5165
   66SAPC  C312 5523   4.376  -0.020   7.574  0.4094  0.2165  0.5528
   66SAPC  H12X 5524   4.300   0.057   7.597  0.8858  0.3121  1.8840
   66SAPC  H12Y 5525   4.466   0.004   7.635  0.7970 -0.9444  0.4562
   66SAPC  C313 5526   4.323  -0.166   7.603 -0.4945  0.4231 -0.1897
   66SAPC  H13X 5527   4.399  -0.239   7.569 -0.8295 -0.5833  1.1426
   66SAPC  H13Y 5528   4.243  -0.185   7.529  0.8589 -0.9249 -1.3834
   66SAPC  C314 5529   4.303  -0.198   7.752  0.2141 -0.4833  0.2911
   66SAPC  H14X 5530   4.271  -0.303   7.766  2.8258 -1.1316  2.1151
   66SAPC  H14Y 5531   4.229  -0.131   7.799 -1.2324  0.1725 -2.6398
   66SAPC  C315 5532   4.431  -0.189   7.831 -0.1471 -0.1371  1.2145
   66SAPC  H15X 5533   4.459  -0.082   7.842 -0.7374  0.1409  0.1647
   66SAPC  H15Y 5534   4.510  -0.258   7.796 -0.3458 -0.7851  2.0020
   66SAPC  C316 5535   4.409  -0.229   7.981  0.2965 -0.0382 -0.1457
   66SAPC  H16X 5536   4.390  -0.338   7.986 -0.0814  0.0359  0.0516
   66SAPC  H16Y 5537   4.316  -0.177   8.012 -1.5685 -3.4629  0.5842
   66SAPC  C317 5538   4.535  -0.207   8.066 -1.1535 -0.0664 -1.0387
   66SAPC  H17X 5539   4.562  -0.102   8.042  1.7540 -0.7031 -0.9090
   66SAPC  H17Y 5540   4.623  -0.267   8.033  0.0593  1.2579 -0.3237
   66SAPC  C318 5541   4.506  -0.226   8.217 -0.5529 -0.1197 -0.2301
   66SAPC  H18X 5542   4.465  -0.131   8.257 -1.3227 -0.5263 -0.0395
   66SAPC  H18Y 5543   4.611  -0.230   8.251 -0.8121 -1.0033  0.5126
   66SAPC  H18Z 5544   4.446  -0.317   8.237 -0.8730  0.3420  1.0126
   67SAPC     N 5545   2.817   2.070   6.366  0.2809  0.2759  0.1914
   67SAPC   C12 5546   2.754   1.931   6.366  0.4141 -0.5069 -0.8094
   67SAPC  H12A 5547   2.826   1.869   6.418  1.7472  0.3251 -1.6006
   67SAPC  H12B 5548   2.752   1.888   6.267 -2.7402  0.2998 -1.1941
   67SAPC   C13 5549   2.737   2.162   6.285 -0.0181 -0.0845  0.1565
   67SAPC  H13A 5550   2.778   2.262   6.293  1.4750 -0.8148  2.4973
   67SAPC  H13B 5551   2.740   2.137   6.180  0.0271  0.9371 -0.0937
   67SAPC  H13C 5552   2.634   2.169   6.317 -0.3221 -0.7196 -0.6379
   67SAPC   C14 5553   2.842   2.120   6.506  0.1270  0.0791  0.4167
   67SAPC  H14A 5554   2.748   2.126   6.560  0.2446 -2.9792  1.1780
   67SAPC  H14B 5555   2.901   2.052   6.567 -0.3553  0.5838  1.4750
   67SAPC  H14C 5556   2.887   2.217   6.499 -1.6825  0.8999 -0.5108
   67SAPC   C15 5557   2.954   2.069   6.296 -0.3497 -0.2363  0.0901
   67SAPC  H15A 5558   3.014   2.000   6.352  0.5552 -1.1089 -1.8759
   67SAPC  H15B 5559   2.949   2.032   6.195  0.2950  1.9994 -0.8151
   67SAPC  H15C 5560   2.999   2.167   6.299 -0.2298 -0.2637 -0.7031
   67SAPC   C11 5561   2.611   1.926   6.426 -0.7185 -0.4024  0.0968
   67SAPC  H11A 5562   2.575   1.828   6.388  0.9379 -0.6908 -0.8224
   67SAPC  H11B 5563   2.552   1.995   6.361  2.7115 -0.2402 -3.2553
   67SAPC     P 5564   2.475   2.013   6.624  0.0986 -0.1277  0.1881
   67SAPC   O13 5565   2.460   2.155   6.587  0.2304  0.2099  0.1452
   67SAPC   O14 5566   2.366   1.924   6.584 -0.5053  0.0454 -0.0405
   67SAPC   O12 5567   2.615   1.949   6.565  0.3379  0.7201  0.3180
   67SAPC   O11 5568   2.491   2.011   6.776 -0.4128  0.2775  0.4925
   67SAPC    C1 5569   2.500   1.889   6.842 -0.2571  0.0533 -0.1624
   67SAPC    HA 5570   2.414   1.822   6.818 -1.7014  1.1302  1.7761
   67SAPC    HB 5571   2.595   1.838   6.817 -0.7651 -1.0240  0.0437
   67SAPC    C2 5572   2.497   1.914   6.994 -0.4609 -0.4166 -0.4267
   67SAPC    HS 5573   2.392   1.934   7.024 -0.5152  1.5888 -1.7368
   67SAPC   O21 5574   2.573   2.030   7.040  0.3351  0.2037  0.9253
   67SAPC   C21 5575   2.503   2.145   7.052 -0.1656 -0.3483  0.1587
   67SAPC   O22 5576   2.384   2.159   7.049  0.4667  0.4008 -0.0389
   67SAPC   C22 5577   2.597   2.271   7.056  0.4959 -0.5046  0.5205
   67SAPC   H2R 5578   2.575   2.339   7.141  0.1980 -0.5229  0.4590
   67SAPC   H2S 5579   2.696   2.221   7.069 -0.3077 -3.4328 -2.9062
   67SAPC    C3 5580   2.549   1.787   7.067  0.7735  0.7085 -0.1964
   67SAPC    HX 5581   2.653   1.763   7.035  0.7448 -2.1478  1.4769
   67SAPC    HY 5582   2.479   1.708   7.033 -2.5921  2.0216  2.9457
   67SAPC   O31 5583   2.532   1.803   7.214  0.1977 -0.0354  0.0996
   67SAPC   C31 5584   2.639   1.853   7.267 -0.1422 -0.3192 -0.6918
   67SAPC   O32 5585   2.747   1.878   7.216 -0.1702 -0.0045 -0.8321
   67SAPC   C32 5586   2.621   1.872   7.418 -0.0329 -0.1179 -0.3159
   67SAPC   H2X 5587   2.546   1.798   7.454 -1.1522  0.7992 -0.6861
   67SAPC   H2Y 5588   2.563   1.966   7.431 -1.0272 -1.0463  2.8949
   67SAPC   C23 5589   2.615   2.358   6.932  0.1610  0.0719  0.5712
   67SAPC   H3R 5590   2.513   2.393   6.903  0.8765  1.8732  0.1354
   67SAPC   H3S 5591   2.640   2.299   6.841  0.2411  0.5492  0.2792
   67SAPC   C24 5592   2.704   2.486   6.934  0.5535  0.3818 -0.4607
   67SAPC   H4R 5593   2.667   2.550   7.018  1.6307  2.1917 -1.2992
   67SAPC   H4S 5594   2.687   2.535   6.836 -0.5213 -1.6373 -1.3330
   67SAPC   C25 5595   2.853   2.459   6.958 -0.2547 -0.0274  0.8310
   67SAPC   H5R 5596   2.888   2.390   6.880 -1.2242  0.1520  0.2268
   67SAPC   C26 5597   2.944   2.507   7.050  0.2840  0.2540 -0.0504
   67SAPC   H6R 5598   3.050   2.488   7.030  0.7193 -1.1548  3.0629
   67SAPC   C27 5599   2.920   2.598   7.164  0.1569 -0.3397 -0.7930
   67SAPC   H7R 5600   2.855   2.679   7.125 -0.2799 -0.9779 -1.4204
   67SAPC   H7S 5601   3.009   2.661   7.182  0.2846 -0.9872  1.1447
   67SAPC   C28 5602   2.843   2.542   7.286  0.0692 -0.1168 -0.0501
   67SAPC   H8R 5603   2.739   2.520   7.258  0.2773 -0.2549 -0.7361
   67SAPC   C29 5604   2.875   2.530   7.416 -0.2487  0.1284 -0.1392
   67SAPC   H9R 5605   2.790   2.503   7.481  0.7944 -0.2572  1.1275
   67SAPC  C210 5606   3.009   2.562   7.478 -0.6613 -0.3069  0.0979
   67SAPC  H10R 5607   3.082   2.600   7.404  1.8077 -2.1948  1.4319
   67SAPC  H10S 5608   3.055   2.467   7.510  0.7717 -0.3942 -2.0151
   67SAPC  C211 5609   2.979   2.658   7.589  0.3460 -0.5753 -0.9770
   67SAPC  H11R 5610   2.924   2.749   7.561  1.7352 -0.0980 -2.3275
   67SAPC  C212 5611   3.028   2.644   7.716 -0.5151  0.3128 -0.0946
   67SAPC  H12R 5612   2.991   2.714   7.792 -2.1528 -0.9491  0.3375
   67SAPC  C213 5613   3.121   2.534   7.770  0.1467 -0.6120  0.1560
   67SAPC  H13R 5614   3.214   2.587   7.799  0.1440  0.9130 -2.2698
   67SAPC  H13S 5615   3.149   2.457   7.695 -1.2672  1.1382 -2.3348
   67SAPC  C214 5616   3.069   2.469   7.898 -0.1253 -0.3600 -0.6014
   67SAPC  H14R 5617   2.999   2.386   7.880  2.3057 -2.3698 -1.3313
   67SAPC  C215 5618   3.105   2.495   8.027  0.1687 -0.4698  0.1754
   67SAPC  H15R 5619   3.068   2.429   8.106  1.2754  1.4137  2.3740
   67SAPC  C216 5620   3.193   2.602   8.084 -0.3159 -0.0647  0.2394
   67SAPC  H16R 5621   3.145   2.672   8.156 -2.8271 -1.3732 -0.0628
   67SAPC  H16S 5622   3.225   2.667   7.999 -0.1331 -0.7896 -0.2504
   67SAPC  C217 5623   3.313   2.550   8.162  0.3591  0.5119  0.6139
   67SAPC  H17R 5624   3.370   2.645   8.178 -0.2930  1.0420 -0.1535
   67SAPC  H17S 5625   3.372   2.483   8.097  0.7798  1.4146  0.0377
   67SAPC  C218 5626   3.284   2.504   8.306  0.2725  0.2407 -0.5633
   67SAPC  H18R 5627   3.224   2.412   8.321  2.3151 -0.8156  1.9510
   67SAPC  H18S 5628   3.235   2.591   8.356 -0.5709 -1.0101  0.8847
   67SAPC  C219 5629   3.414   2.466   8.374 -0.1442  0.1412  0.0316
   67SAPC  H19R 5630   3.489   2.547   8.369  0.0436 -0.0755 -1.0566
   67SAPC  H19S 5631   3.447   2.379   8.312 -0.9442 -0.1001 -0.0677
   67SAPC  C220 5632   3.396   2.437   8.516  0.6112  0.3839 -0.2119
   67SAPC  H20R 5633   3.332   2.517   8.561 -1.7132 -0.2811 -2.1169
   67SAPC  H20S 5634   3.487   2.425   8.579 -0.9066  1.6904  2.4360
   67SAPC  H20T 5635   3.341   2.342   8.531  0.5764  0.4588  0.1660
   67SAPC   C33 5636   2.756   1.878   7.495 -0.0548  0.1070  0.2193
   67SAPC   H3X 5637   2.824   1.950   7.445  0.3076  0.1504  0.7704
   67SAPC   H3Y 5638   2.809   1.781   7.486 -0.0204  0.3033 -3.0949
   67SAPC   C34 5639   2.722   1.930   7.633  0.3978  0.6202 -0.8969
   67SAPC   H4X 5640   2.645   1.868   7.683  0.2553  1.4514 -0.0686
   67SAPC   H4Y 5641   2.677   2.031   7.629 -0.2585  0.3265 -1.0803
   67SAPC   C35 5642   2.834   1.937   7.729  0.3820 -0.3042  0.3336
   67SAPC   H5X 5643   2.905   2.015   7.694  1.4010 -1.0719  0.6431
   67SAPC   H5Y 5644   2.886   1.839   7.737 -0.0553 -0.4844  1.1649
   67SAPC   C36 5645   2.781   1.968   7.876  0.4145 -0.2845  0.0775
   67SAPC   H6X 5646   2.741   1.869   7.908  0.2609 -0.4639 -0.6441
   67SAPC   H6Y 5647   2.697   2.040   7.878  0.8376  0.2130  0.1784
   67SAPC   C37 5648   2.895   2.024   7.966  0.7679  0.2704  1.1035
   67SAPC   H7X 5649   2.940   2.109   7.911  2.1471 -1.7290 -1.0749
   67SAPC   H7Y 5650   2.977   1.951   7.982 -1.3416 -1.7484  4.0042
   67SAPC   C38 5651   2.849   2.079   8.102  0.2167 -0.4465 -0.3049
   67SAPC   H8X 5652   2.791   2.008   8.164 -0.2748  0.4540  0.2961
   67SAPC   H8Y 5653   2.781   2.165   8.082 -1.6758 -2.1081 -1.2909
   67SAPC   C39 5654   2.958   2.135   8.191 -0.2739  0.0530  0.7203
   67SAPC   H9X 5655   3.020   2.211   8.139  0.6259 -0.1511  1.4704
   67SAPC   H9Y 5656   3.025   2.052   8.221  1.5461  2.6686  4.7142
   67SAPC  C310 5657   2.900   2.196   8.320 -0.8542  0.2890  0.1045
   67SAPC  H10X 5658   2.835   2.116   8.364 -0.9160  0.6213  0.6316
   67SAPC  H10Y 5659   2.832   2.282   8.302 -1.5549 -0.4604 -0.9746
   67SAPC  C311 5660   3.004   2.225   8.423 -0.6453  0.2864  0.0762
   67SAPC  H11X 5661   3.080   2.297   8.386 -1.8740  0.1446 -2.9453
   67SAPC  H11Y 5662   3.059   2.129   8.423  0.9856  1.1831 -0.1374
   67SAPC  C312 5663   2.946   2.261   8.557 -0.1319 -0.5567  0.1293
   67SAPC  H12X 5664   2.869   2.182   8.572  2.0870 -2.9093 -0.2098
   67SAPC  H12Y 5665   2.893   2.359   8.555 -1.5348 -1.2936  0.0307
   67SAPC  C313 5666   3.052   2.276   8.667 -0.5112 -0.2859 -0.1180
   67SAPC  H13X 5667   3.130   2.351   8.639 -0.0571 -0.5170  0.5007
   67SAPC  H13Y 5668   3.103   2.178   8.674  0.8437  0.2880 -1.3613
   67SAPC  C314 5669   3.001   2.311   8.805 -0.2412  0.4780  0.3927
   67SAPC  H14X 5670   2.920   2.236   8.819 -1.0463  1.5276  1.6680
   67SAPC  H14Y 5671   2.945   2.405   8.822 -3.8471 -1.5240  0.4382
   67SAPC  C315 5672   3.089   2.279   8.916 -0.3374  0.4336 -0.2541
   67SAPC  H15X 5673   3.065   2.177   8.955 -1.2485  0.4884 -0.6301
   67SAPC  H15Y 5674   3.054   2.343   9.000 -0.9918  0.0445 -0.2197
   67SAPC  C316 5675   3.240   2.295   8.899 -0.0636 -0.0576 -0.2332
   67SAPC  H16X 5676   3.254   2.402   8.871  1.8930 -0.2218 -0.0429
   67SAPC  H16Y 5677   3.277   2.235   8.813  0.7332  0.4291 -0.2423
   67SAPC  C317 5678   3.320   2.269   9.031 -0.6853 -0.2339 -0.3635
   67SAPC  H17X 5679   3.260   2.308   9.115 -1.1797 -0.3168 -0.6749
   67SAPC  H17Y 5680   3.404   2.341   9.017 -0.1358 -0.4042  1.7692
   67SAPC  C318 5681   3.345   2.121   9.051  1.1472  0.5253  0.1140
   67SAPC  H18X 5682   3.246   2.073   9.069  2.4248 -2.1319  0.5394
   67SAPC  H18Y 5683   3.399   2.104   9.147 -1.1598 -0.3571  1.3420
   67SAPC  H18Z 5684   3.392   2.069   8.966  1.1566  1.2699 -0.3463
   68SAPC     N 5685   5.940   2.494   6.296  0.5207  0.1570  0.4390
   68SAPC   C12 5686   6.055   2.533   6.375 -0.6053 -0.0960 -0.2122
   68SAPC  H12A 5687   6.028   2.521   6.478  0.2637 -1.2508 -0.1048
   68SAPC  H12B 5688   6.062   2.641   6.373 -2.5613  0.0651 -0.4508
   68SAPC   C13 5689   5.905   2.354   6.333 -0.7354 -0.2932 -0.0371
   68SAPC  H13A 5690   5.995   2.299   6.309 -1.5557 -0.9357 -1.8318
   68SAPC  H13B 5691   5.878   2.346   6.437 -1.4211 -2.5113 -0.3364
   68SAPC  H13C 5692   5.820   2.320   6.277 -1.4788 -0.3758  1.1190
   68SAPC   C14 5693   5.822   2.579   6.337  0.5459 -0.5689  0.1729
   68SAPC  H14A 5694   5.825   2.687   6.327  0.1289 -0.6568 -1.1389
   68SAPC  H14B 5695   5.734   2.561   6.277 -0.9454  3.4913  0.8368
   68SAPC  H14C 5696   5.794   2.560   6.439  0.7797  0.1552  0.3798
   68SAPC   C15 5697   5.964   2.502   6.153 -0.1388 -0.5450  0.4982
   68SAPC  H15A 5698   6.058   2.463   6.116  0.3591  1.6085 -0.7023
   68SAPC  H15B 5699   5.889   2.431   6.120  0.8479 -2.0794  1.4367
   68SAPC  H15C 5700   5.942   2.599   6.112  2.2548  0.6579  1.8838
   68SAPC   C11 5701   6.188   2.462   6.338 -0.0791 -0.2142 -0.3265
   68SAPC  H11A 5702   6.167   2.353   6.345 -1.1087 -0.1018 -1.2948
   68SAPC  H11B 5703   6.254   2.490   6.423  0.0553  2.8506 -1.3142
   68SAPC     P 5704   6.376   2.436   6.165  0.4099  0.1524  0.3576
   68SAPC   O13 5705   6.402   2.304   6.228 -0.9371  0.2654  0.3738
   68SAPC   O14 5706   6.386   2.451   6.019  0.2453  1.1097 -0.0265
   68SAPC   O12 5707   6.233   2.495   6.207  0.3150  0.5681 -0.7588
   68SAPC   O11 5708   6.462   2.539   6.238  0.4663 -0.2089 -0.2542
   68SAPC    C1 5709   6.607   2.536   6.250  0.3286  0.0861  0.2922
   68SAPC    HA 5710   6.657   2.469   6.177  0.8003 -0.3126  0.9771
   68SAPC    HB 5711   6.651   2.637   6.233 -0.0191  0.5923  2.1866
   68SAPC    C2 5712   6.651   2.509   6.392  0.5456  0.2743 -0.0962
   68SAPC    HS 5713   6.619   2.404   6.407 -1.9882  1.0513  0.4831
   68SAPC   O21 5714   6.592   2.611   6.475  0.6595  0.5822 -0.1276
   68SAPC   C21 5715   6.533   2.572   6.587 -0.7686 -0.8677 -0.7841
   68SAPC   O22 5716   6.554   2.464   6.644 -0.3777 -0.0215  0.3437
   68SAPC   C22 5717   6.446   2.690   6.628  0.1520  0.2691 -0.3311
   68SAPC   H2R 5718   6.486   2.790   6.602  2.2681 -0.4436 -0.0194
   68SAPC   H2S 5719   6.356   2.668   6.567 -0.6607  1.4255  0.4037
   68SAPC    C3 5720   6.807   2.518   6.421  0.3899 -0.7503 -0.4199
   68SAPC    HX 5721   6.835   2.625   6.423 -0.7372 -0.4450  0.3116
   68SAPC    HY 5722   6.868   2.486   6.335 -0.1602 -1.5398 -0.5282
   68SAPC   O31 5723   6.837   2.444   6.544 -0.7322  0.1756  0.3823
   68SAPC   C31 5724   6.853   2.314   6.520  0.4777 -0.2227  1.1976
   68SAPC   O32 5725   6.838   2.254   6.413 -0.5481  0.1236 -0.3549
   68SAPC   C32 5726   6.893   2.254   6.648  0.0667 -0.2499 -0.4453
   68SAPC   H2X 5727   6.996   2.295   6.659  0.3769 -0.9926 -0.5262
   68SAPC   H2Y 5728   6.909   2.145   6.636 -0.5603 -0.4182  0.2242
   68SAPC   C23 5729   6.396   2.682   6.771  0.4432 -0.8068  0.4940
   68SAPC   H3R 5730   6.348   2.583   6.788  0.6064 -0.8590  0.6509
   68SAPC   H3S 5731   6.316   2.758   6.786  0.1776 -0.9011 -0.3768
   68SAPC   C24 5732   6.514   2.686   6.877 -0.3025  0.3866 -0.4795
   68SAPC   H4R 5733   6.612   2.684   6.825 -0.4292  1.3295 -0.7804
   68SAPC   H4S 5734   6.514   2.586   6.924 -1.4935  0.4449 -0.3204
   68SAPC   C25 5735   6.498   2.803   6.969 -1.1259  0.1423 -0.9956
   68SAPC   H5R 5736   6.422   2.876   6.938 -1.3182  0.2016 -0.4103
   68SAPC   C26 5737   6.575   2.831   7.084  0.0758 -0.3594 -0.0289
   68SAPC   H6R 5738   6.557   2.918   7.149  1.7767 -0.9673  1.3389
   68SAPC   C27 5739   6.683   2.743   7.134  0.0451  0.5707 -0.1935
   68SAPC   H7R 5740   6.675   2.642   7.087  1.4103  0.6239 -0.5635
   68SAPC   H7S 5741   6.661   2.732   7.242 -1.8424  0.5268 -0.5454
   68SAPC   C28 5742   6.817   2.808   7.108  0.2361  0.4737  0.9507
   68SAPC   H8R 5743   6.829   2.848   7.006 -0.6562 -0.8640  0.2841
   68SAPC   C29 5744   6.910   2.849   7.200 -0.5751  0.0328 -0.5012
   68SAPC   H9R 5745   7.003   2.893   7.163 -0.5884  1.1901  0.7806
   68SAPC  C210 5746   6.899   2.835   7.348  0.0280 -0.0211 -0.3653
   68SAPC  H10R 5747   6.995   2.850   7.402  0.1090 -1.0572 -0.2140
   68SAPC  H10S 5748   6.866   2.733   7.375 -2.8478  0.8848 -0.0887
   68SAPC  C211 5749   6.815   2.941   7.418  0.1546 -0.5138 -0.1353
   68SAPC  H11R 5750   6.797   3.029   7.355  0.1665  0.5509  1.2832
   68SAPC  C212 5751   6.787   2.946   7.549  0.9095 -0.0733 -0.0119
   68SAPC  H12R 5752   6.731   3.030   7.591  0.4002 -1.3620  2.0392
   68SAPC  C213 5753   6.828   2.854   7.662  0.3499 -0.1636 -0.3536
   68SAPC  H13R 5754   6.853   2.919   7.749 -1.0188 -1.7719  1.3243
   68SAPC  H13S 5755   6.917   2.790   7.650  2.1312  0.9351  4.5509
   68SAPC  C214 5756   6.714   2.767   7.702  0.1932  0.5451  0.6551
   68SAPC  H14R 5757   6.656   2.708   7.630 -0.8930  0.3502  1.6450
   68SAPC  C215 5758   6.685   2.740   7.827  0.8657  0.7052  1.2149
   68SAPC  H15R 5759   6.617   2.654   7.831  0.8945  0.3191 -2.6991
   68SAPC  C216 5760   6.751   2.793   7.948 -0.1437  0.3585 -0.3427
   68SAPC  H16R 5761   6.778   2.899   7.934  0.7386 -0.1707 -3.2019
   68SAPC  H16S 5762   6.849   2.744   7.964  0.3449  1.1378 -0.9103
   68SAPC  C217 5763   6.648   2.775   8.067 -0.1593  0.4007  0.0031
   68SAPC  H17R 5764   6.636   2.666   8.085  2.3335  0.3863  1.9547
   68SAPC  H17S 5765   6.546   2.813   8.045 -0.2438 -0.3103 -0.9296
   68SAPC  C218 5766   6.697   2.840   8.201 -0.6793  0.2099  0.0639
   68SAPC  H18R 5767   6.683   2.950   8.195 -1.3899  0.0423 -2.0967
   68SAPC  H18S 5768   6.806   2.819   8.204 -0.8316 -0.5127  0.9557
   68SAPC  C219 5769   6.628   2.782   8.321 -0.0302 -1.1918 -0.3190
   68SAPC  H19R 5770   6.685   2.825   8.406 -0.9195  0.5993 -0.5782
   68SAPC  H19S 5771   6.649   2.674   8.327 -0.0928 -1.3345 -2.2188
   68SAPC  C220 5772   6.474   2.810   8.341 -0.0723  0.3322  0.2834
   68SAPC  H20R 5773   6.428   2.744   8.418 -0.5737  1.3514  0.8937
   68SAPC  H20S 5774   6.426   2.810   8.241  2.6849 -0.7819 -1.1166
   68SAPC  H20T 5775   6.465   2.917   8.371  2.4683  0.8326 -0.5682
   68SAPC   C33 5776   6.811   2.274   6.778  0.3500 -0.2770 -0.4606
   68SAPC   H3X 5777   6.715   2.218   6.782  0.6880 -0.8146  0.4125
   68SAPC   H3Y 5778   6.791   2.383   6.777 -2.3243 -0.6982 -1.6425
   68SAPC   C34 5779   6.886   2.250   6.912 -0.6791  0.2642  0.3810
   68SAPC   H4X 5780   6.988   2.294   6.911 -0.2356 -0.7492 -0.4132
   68SAPC   H4Y 5781   6.896   2.140   6.923 -0.1335  0.2836  0.1147
   68SAPC   C35 5782   6.809   2.308   7.028 -0.6422  0.0839  0.1661
   68SAPC   H5X 5783   6.704   2.271   7.028 -0.3751 -0.7887 -1.6061
   68SAPC   H5Y 5784   6.800   2.418   7.026  0.5477  0.1866 -0.9334
   68SAPC   C36 5785   6.876   2.264   7.157  0.2321  0.5784 -0.1343
   68SAPC   H6X 5786   6.986   2.278   7.159  0.1150  1.7987  2.6798
   68SAPC   H6Y 5787   6.845   2.158   7.172  0.1539  0.4882 -0.8897
   68SAPC   C37 5788   6.826   2.343   7.277 -0.3183  0.4744  0.4155
   68SAPC   H7X 5789   6.717   2.351   7.260 -0.3230  0.8664  0.6238
   68SAPC   H7Y 5790   6.873   2.444   7.278 -0.5705  0.6386 -1.5532
   68SAPC   C38 5791   6.835   2.265   7.406  0.3485 -0.0731 -0.5940
   68SAPC   H8X 5792   6.941   2.236   7.420  0.7237  0.9423 -1.2035
   68SAPC   H8Y 5793   6.769   2.176   7.392  0.3014  0.2467 -2.7766
   68SAPC   C39 5794   6.786   2.349   7.522  0.4188 -0.3011  0.0413
   68SAPC   H9X 5795   6.676   2.369   7.520  0.4247 -0.2738 -0.0057
   68SAPC   H9Y 5796   6.825   2.451   7.498  1.4465 -0.2029  1.9815
   68SAPC  C310 5797   6.838   2.303   7.660  0.5690  0.4718  0.5046
   68SAPC  H10X 5798   6.948   2.288   7.649  0.3221 -0.0757 -1.6691
   68SAPC  H10Y 5799   6.793   2.202   7.674  1.9945 -0.0887  1.3384
   68SAPC  C311 5800   6.802   2.400   7.767  0.8038 -0.0753 -0.5523
   68SAPC  H11X 5801   6.700   2.439   7.747  0.0716 -0.7490  1.6059
   68SAPC  H11Y 5802   6.870   2.489   7.770 -0.6762  1.0792  0.3152
   68SAPC  C312 5803   6.808   2.332   7.903  0.1736 -0.5547 -0.4192
   68SAPC  H12X 5804   6.905   2.278   7.913  1.9749  2.6549  1.3024
   68SAPC  H12Y 5805   6.723   2.261   7.907 -0.9268  0.7180 -0.5237
   68SAPC  C313 5806   6.778   2.424   8.028  0.0477 -0.6829  0.4591
   68SAPC  H13X 5807   6.675   2.463   8.011  1.4947  2.1694 -3.0554
   68SAPC  H13Y 5808   6.836   2.518   8.025 -0.6518 -0.1101  2.8511
   68SAPC  C314 5809   6.802   2.351   8.165 -0.0240  0.6763  0.3583
   68SAPC  H14X 5810   6.901   2.299   8.165 -0.6662 -0.6033  1.2245
   68SAPC  H14Y 5811   6.724   2.272   8.178  0.1321  0.3635 -0.5114
   68SAPC  C315 5812   6.799   2.452   8.281 -0.3545 -0.7431 -0.1548
   68SAPC  H15X 5813   6.693   2.479   8.298  0.5709  3.1774  0.5452
   68SAPC  H15Y 5814   6.850   2.547   8.253  0.1794 -0.8839  0.3024
   68SAPC  C316 5815   6.853   2.404   8.418  0.5534  0.0890  0.1938
   68SAPC  H16X 5816   6.959   2.384   8.390  0.9796  0.3795  1.5492
   68SAPC  H16Y 5817   6.806   2.309   8.449 -0.2156  1.2914  2.9571
   68SAPC  C317 5818   6.845   2.502   8.536  0.4716 -0.1698  0.4649
   68SAPC  H17X 5819   6.740   2.539   8.528  0.1458 -1.0821  0.3742
   68SAPC  H17Y 5820   6.919   2.584   8.534 -2.1965  2.4029 -0.9958
   68SAPC  C318 5821   6.867   2.422   8.666  0.2773  0.2301  0.0765
   68SAPC  H18X 5822   6.970   2.380   8.675  0.1171 -0.1344  0.2410
   68SAPC  H18Y 5823   6.800   2.333   8.661  1.9520 -1.0688 -0.2366
   68SAPC  H18Z 5824   6.834   2.474   8.758 -0.0998  0.0084  0.0705
   69SLPC     N 5825   5.583   4.413  11.327  1.2004  0.1778 -0.2242
   69SLPC   C13 5826   5.465   4.472  11.411  0.8309  0.3233 -0.6615
   69SLPC  H13A 5827   5.468   4.579  11.420  0.9170  0.3985 -1.4926
   69SLPC  H13B 5828   5.373   4.453  11.358  0.0754  2.3003 -0.1308
   69SLPC  H13C 5829   5.472   4.432  11.511  0.1660  0.3584 -0.5999
   69SLPC   C14 5830   5.574   4.262  11.329  0.1420 -0.7961 -0.9172
   69SLPC  H14A 5831   5.591   4.214  11.424 -2.2782 -2.0956 -1.0486
   69SLPC  H14B 5832   5.477   4.234  11.290  0.7344 -1.3342 -2.0351
   69SLPC  H14C 5833   5.651   4.231  11.260 -0.0351  0.6021 -1.7930
   69SLPC   C15 5834   5.708   4.467  11.385  0.5448 -0.8978  0.1229
   69SLPC  H15A 5835   5.699   4.463  11.492 -1.0572  1.8047  0.1871
   69SLPC  H15B 5836   5.800   4.421  11.353  0.2362  0.5391 -3.3322
   69SLPC  H15C 5837   5.714   4.572  11.360 -0.7470 -0.3251  2.0662
   69SLPC   C12 5838   5.559   4.461  11.184 -0.0263  0.1693 -0.0400
   69SLPC  H12A 5839   5.656   4.457  11.136  0.6118  2.2025  0.9654
   69SLPC  H12B 5840   5.523   4.563  11.187  2.9931  1.3590  0.0956
   69SLPC   C11 5841   5.456   4.384  11.089 -0.0937 -0.1453 -0.1611
   69SLPC  H11A 5842   5.496   4.281  11.076 -2.7333 -1.6614  2.5148
   69SLPC  H11B 5843   5.459   4.432  10.989 -1.6194 -0.7512 -0.5255
   69SLPC     P 5844   5.209   4.274  11.093 -0.4360 -0.2409  0.2945
   69SLPC   O13 5845   5.223   4.142  11.157  0.3603 -0.3933  0.6316
   69SLPC   O14 5846   5.087   4.345  11.119  0.1203 -0.5133 -1.1096
   69SLPC   O12 5847   5.323   4.370  11.139 -0.1594 -0.0224 -0.0695
   69SLPC   O11 5848   5.233   4.266  10.939  0.0975  0.8030 -0.1247
   69SLPC    C1 5849   5.226   4.377  10.851  0.7069  0.5636 -0.0788
   69SLPC    HA 5850   5.253   4.472  10.901  0.5943 -0.4862  2.0694
   69SLPC    HB 5851   5.296   4.363  10.766 -1.0423 -0.0778 -1.4707
   69SLPC    C2 5852   5.078   4.394  10.790 -0.9203 -0.5921 -0.1641
   69SLPC    HS 5853   5.004   4.387  10.872 -0.8861  0.7542 -0.0058
   69SLPC   O21 5854   5.056   4.282  10.707 -0.4431  0.0794  0.1258
   69SLPC   C21 5855   4.925   4.278  10.660 -0.3859 -0.8194 -0.2853
   69SLPC   O22 5856   4.840   4.362  10.695 -0.0713  0.2894  0.5233
   69SLPC   C22 5857   4.912   4.166  10.554  0.8981 -0.1788 -0.7091
   69SLPC   H2R 5858   4.997   4.096  10.551 -0.0076 -1.2962 -0.8616
   69SLPC   H2S 5859   4.828   4.098  10.580  0.7925  0.7233  1.5902
   69SLPC    C3 5860   5.076   4.535  10.710  0.8336  0.4608  0.6543
   69SLPC    HX 5861   5.099   4.621  10.777 -0.6684  0.8961  0.6481
   69SLPC    HY 5862   4.970   4.560  10.689  0.5923 -1.4415 -0.5305
   69SLPC   O31 5863   5.158   4.536  10.592  0.4704  0.1136 -0.6284
   69SLPC   C31 5864   5.236   4.640  10.570  0.1682  0.1354 -0.1282
   69SLPC   O32 5865   5.262   4.733  10.647  0.2732  0.3896 -0.0966
   69SLPC   C32 5866   5.297   4.624  10.431 -0.4051  0.0029 -0.0547
   69SLPC   H2X 5867   5.248   4.551  10.364 -0.8473  1.0015 -0.8551
   69SLPC   H2Y 5868   5.402   4.595  10.454 -0.2529  2.9953  4.1363
   69SLPC   C23 5869   4.888   4.228  10.415 -0.6061 -0.1919  0.8093
   69SLPC   H3R 5870   4.979   4.289  10.399 -0.7619 -0.6599 -2.8290
   69SLPC   H3S 5871   4.804   4.300  10.403  0.5656  0.8947 -1.6005
   69SLPC   C24 5872   4.869   4.120  10.292  0.0718  0.0282 -0.4397
   69SLPC   H4R 5873   4.782   4.057  10.319  1.3269 -1.3379  0.5416
   69SLPC   H4S 5874   4.952   4.048  10.304 -2.4005 -3.1690 -1.1582
   69SLPC   C25 5875   4.846   4.193  10.162  0.4351  0.9621  0.2040
   69SLPC   H5R 5876   4.938   4.254  10.146  1.0443  0.3030  1.0827
   69SLPC   H5S 5877   4.752   4.252  10.149 -1.1133 -1.3582  0.2464
   69SLPC   C26 5878   4.844   4.087  10.046 -0.3553 -0.8329  0.0752
   69SLPC   H6R 5879   4.756   4.021  10.055  0.2595 -1.6790 -0.0336
   69SLPC   H6S 5880   4.937   4.027  10.048 -0.2564 -0.7085 -0.4299
   69SLPC   C27 5881   4.870   4.151   9.906  0.7045  0.0221  0.0848
   69SLPC   H7R 5882   4.935   4.240   9.909  0.9913 -0.2015  2.2678
   69SLPC   H7S 5883   4.774   4.200   9.877  1.0742  1.6004  1.3903
   69SLPC   C28 5884   4.917   4.060   9.793 -0.7914  0.7471  0.3127
   69SLPC   H8R 5885   5.022   4.024   9.803 -0.6324  1.2290  0.4333
   69SLPC   H8S 5886   4.922   4.118   9.699 -1.1286 -0.9029 -0.7584
   69SLPC   C29 5887   4.838   3.934   9.783  0.2806 -0.2102 -0.2976
   69SLPC   H9R 5888   4.857   3.862   9.864 -0.0373 -0.9908 -0.9098
   69SLPC  C210 5889   4.761   3.898   9.676 -0.2766  0.2551  1.1443
   69SLPC  H10R 5890   4.728   3.794   9.667 -1.1235  0.4797  1.5452
   69SLPC  C211 5891   4.725   3.977   9.552  0.0224  0.7305 -0.1719
   69SLPC  H11R 5892   4.671   3.919   9.475 -3.2308  1.1616  1.5784
   69SLPC  H11S 5893   4.818   4.021   9.512  0.4126  2.3899  2.3272
   69SLPC  C212 5894   4.644   4.105   9.582 -0.5206  0.2888 -0.5315
   69SLPC  H12R 5895   4.685   4.164   9.666  3.1280 -0.4291 -1.6411
   69SLPC  C213 5896   4.538   4.153   9.522  0.6745 -0.4348 -0.0669
   69SLPC  H13R 5897   4.499   4.249   9.559 -0.7170 -1.5314  1.4531
   69SLPC  C214 5898   4.463   4.081   9.410  0.1639 -0.2117 -0.2592
   69SLPC  H14R 5899   4.352   4.091   9.418  0.2929  0.1646  1.2645
   69SLPC  H14S 5900   4.474   3.971   9.415 -2.0609 -0.4762  0.1252
   69SLPC  C215 5901   4.493   4.133   9.264  0.0048  0.3060  0.8160
   69SLPC  H15R 5902   4.600   4.113   9.243  0.1081  0.6955  0.9645
   69SLPC  H15S 5903   4.472   4.242   9.260 -1.0815  0.0920  0.2322
   69SLPC  C216 5904   4.408   4.066   9.149  0.9191  0.1402  0.1844
   69SLPC  H16R 5905   4.307   4.112   9.153  0.6126 -0.6015  0.9991
   69SLPC  H16S 5906   4.403   3.956   9.157  3.1191 -0.0696 -0.6548
   69SLPC  C217 5907   4.472   4.089   9.011  0.4370 -0.1171 -0.6675
   69SLPC  H17R 5908   4.578   4.058   9.015  0.8504  1.1885 -1.0815
   69SLPC  H17S 5909   4.477   4.199   9.000  0.2395 -0.0833 -0.4233
   69SLPC  C218 5910   4.399   4.010   8.901  0.6198  0.8038  0.5682
   69SLPC  H18R 5911   4.332   4.083   8.851  1.2587  1.4813  0.6876
   69SLPC  H18S 5912   4.336   3.928   8.942  1.0598  0.1687 -0.0007
   69SLPC  H18T 5913   4.467   3.972   8.823 -0.1625 -1.7372  1.0143
   69SLPC   C33 5914   5.323   4.769  10.359  0.3152  0.2310  0.3909
   69SLPC   H3X 5915   5.358   4.842  10.434 -3.5109  4.2321 -1.3031
   69SLPC   H3Y 5916   5.233   4.823  10.324  0.1429 -0.2851  0.0195
   69SLPC   C34 5917   5.421   4.756  10.240  0.0663 -0.6919  0.0703
   69SLPC   H4X 5918   5.513   4.707  10.280  0.2187 -0.2462  0.2756
   69SLPC   H4Y 5919   5.456   4.858  10.216  0.6436 -0.5352  1.4421
   69SLPC   C35 5920   5.368   4.674  10.119 -0.0914 -0.1192 -0.0221
   69SLPC   H5X 5921   5.283   4.738  10.088  1.5288  2.4000  0.4448
   69SLPC   H5Y 5922   5.337   4.572  10.150  1.7103 -0.5832  0.3762
   69SLPC   C36 5923   5.450   4.689   9.993 -0.0985 -0.4209  0.1166
   69SLPC   H6X 5924   5.530   4.612   9.993  0.6044  0.2884 -0.8012
   69SLPC   H6Y 5925   5.485   4.794   9.991  2.3509 -1.1208  1.9062
   69SLPC   C37 5926   5.365   4.653   9.872  0.1703 -0.1919  0.4021
   69SLPC   H7X 5927   5.269   4.709   9.872  1.6446  2.5206 -0.1538
   69SLPC   H7Y 5928   5.335   4.547   9.882  2.4362 -0.6897  3.8050
   69SLPC   C38 5929   5.437   4.679   9.744 -0.8183 -0.1503  0.4315
   69SLPC   H8X 5930   5.532   4.623   9.731  1.2480  3.4411 -1.6835
   69SLPC   H8Y 5931   5.462   4.787   9.736 -1.0520 -0.2189 -2.2533
   69SLPC   C39 5932   5.349   4.649   9.631 -0.1317 -0.9690  0.1246
   69SLPC   H9X 5933   5.267   4.724   9.638  0.1600 -0.5154 -1.0281
   69SLPC   H9Y 5934   5.312   4.545   9.640 -2.3436 -0.1040  2.2952
   69SLPC  C310 5935   5.419   4.684   9.503 -0.2548  0.3269  0.1245
   69SLPC  H10X 5936   5.524   4.646   9.501 -0.7046 -1.2080  2.2881
   69SLPC  H10Y 5937   5.425   4.794   9.491 -4.5155  0.8699  1.3816
   69SLPC  C311 5938   5.344   4.621   9.391  0.3577 -0.7178  0.5116
   69SLPC  H11X 5939   5.240   4.659   9.402 -0.0382 -0.3953 -3.1240
   69SLPC  H11Y 5940   5.344   4.512   9.411 -0.8204 -0.6330  1.0729
   69SLPC  C312 5941   5.393   4.650   9.250 -0.7976  0.2110 -0.1207
   69SLPC  H12X 5942   5.490   4.597   9.237 -1.2301 -0.9153  1.0730
   69SLPC  H12Y 5943   5.429   4.756   9.245 -2.3161  0.7503 -0.1665
   69SLPC  C313 5944   5.288   4.635   9.144 -0.5840  0.9348  0.2225
   69SLPC  H13X 5945   5.239   4.537   9.155  1.1661 -0.3489 -2.5228
   69SLPC  H13Y 5946   5.337   4.630   9.045 -0.0253 -0.4107  0.5540
   69SLPC  C314 5947   5.182   4.759   9.140 -0.7152  0.5132 -0.0390
   69SLPC  H14X 5948   5.223   4.836   9.072  1.1145  0.5109  1.0124
   69SLPC  H14Y 5949   5.176   4.812   9.237  1.5648  0.2348  0.3010
   69SLPC  C315 5950   5.045   4.713   9.103  0.2961  0.2068 -0.0962
   69SLPC  H15X 5951   4.971   4.785   9.145 -1.1517 -1.4236  0.2466
   69SLPC  H15Y 5952   5.020   4.620   9.157 -0.5903  0.7229  0.4069
   69SLPC  C316 5953   5.019   4.712   8.957  0.2244  0.2604  0.8488
   69SLPC  H16X 5954   5.099   4.663   8.897 -2.9357 -0.5630 -3.2138
   69SLPC  H16Y 5955   5.010   4.815   8.917 -0.4040 -0.9749 -2.5801
   69SLPC  C317 5956   4.891   4.649   8.900  1.3436  0.2317 -0.0070
   69SLPC  H17X 5957   4.805   4.703   8.945  1.4560  0.6462 -0.2939
   69SLPC  H17Y 5958   4.882   4.539   8.919 -1.1423  0.0023 -1.9086
   69SLPC  C318 5959   4.874   4.672   8.750 -0.2760  0.5038 -0.0186
   69SLPC  H18X 5960   4.863   4.782   8.736 -0.6467  0.4031 -0.5581
   69SLPC  H18Y 5961   4.780   4.626   8.713 -2.0859  2.4168  1.8719
   69SLPC  H18Z 5962   4.961   4.644   8.688 -0.5577  0.8885 -0.5969
   70SLPC     N 5963   5.297   1.520  10.883  0.5125 -0.3525  0.0923
   70SLPC   C13 5964   5.302   1.470  10.735  0.0034 -0.6175 -0.3985
   70SLPC  H13A 5965   5.314   1.556  10.672  1.5932 -0.2569  0.3401
   70SLPC  H13B 5966   5.370   1.387  10.723  1.7478  0.8422 -1.0298
   70SLPC  H13C 5967   5.211   1.417  10.710 -0.1371 -1.2626  1.3412
   70SLPC   C14 5968   5.329   1.402  10.966  0.3829  0.2114  0.1980
   70SLPC  H14A 5969   5.325   1.430  11.071  4.4729 -0.9207  0.8497
   70SLPC  H14B 5970   5.258   1.323  10.947 -0.4857  0.3645  2.5010
   70SLPC  H14C 5971   5.432   1.376  10.944  0.6005  0.9821  0.2616
   70SLPC   C15 5972   5.157   1.558  10.914  1.0203  0.1685 -0.4952
   70SLPC  H15A 5973   5.123   1.643  10.856 -0.9112  1.0180  1.6702
   70SLPC  H15B 5974   5.087   1.476  10.915  1.4221 -0.2516  2.2229
   70SLPC  H15C 5975   5.144   1.586  11.018  1.5223 -1.4701  0.0443
   70SLPC   C12 5976   5.396   1.641  10.907  0.5209 -0.1775  0.0204
   70SLPC  H12A 5977   5.398   1.674  11.010  0.6932  1.3785 -0.4511
   70SLPC  H12B 5978   5.354   1.721  10.846 -0.8835 -0.7631  0.1865
   70SLPC   C11 5979   5.543   1.624  10.863  0.7666  0.6520 -0.7878
   70SLPC  H11A 5980   5.605   1.716  10.872  1.6264 -0.0131  0.4453
   70SLPC  H11B 5981   5.540   1.592  10.757  2.4146 -0.2871 -0.5850
   70SLPC     P 5982   5.729   1.446  10.924 -0.2612  0.1353  0.5140
   70SLPC   O13 5983   5.838   1.544  10.935 -0.6100 -0.1585 -0.5473
   70SLPC   O14 5984   5.731   1.339  11.030 -0.1808  0.3351  1.0525
   70SLPC   O12 5985   5.604   1.536  10.944  0.1668  0.2627  0.2092
   70SLPC   O11 5986   5.731   1.393  10.776  0.0870  0.2854  0.0209
   70SLPC    C1 5987   5.648   1.282  10.740  0.4560  0.2219 -0.4522
   70SLPC    HA 5988   5.677   1.189  10.793  1.1782  0.2571 -0.7756
   70SLPC    HB 5989   5.541   1.296  10.765  0.5804  0.6564 -0.1606
   70SLPC    C2 5990   5.654   1.262  10.582 -0.2125 -0.0458 -0.1865
   70SLPC    HS 5991   5.575   1.185  10.568 -1.9036  1.8047 -1.2085
   70SLPC   O21 5992   5.788   1.221  10.539 -0.7504  0.3143  0.7765
   70SLPC   C21 5993   5.813   1.093  10.574 -0.4509  0.1248  0.2366
   70SLPC   O22 5994   5.740   1.014  10.626  0.5771 -0.2208  0.1609
   70SLPC   C22 5995   5.959   1.063  10.547 -0.0431  0.3251 -0.0249
   70SLPC   H2R 5996   6.014   1.147  10.594 -2.1389  0.2071  2.8815
   70SLPC   H2S 5997   5.998   0.971  10.595 -0.5451  0.1066 -0.0295
   70SLPC    C3 5998   5.612   1.394  10.509  0.5498  0.2935  0.9331
   70SLPC    HX 5999   5.680   1.481  10.522  2.2280 -0.6505 -0.9194
   70SLPC    HY 6000   5.521   1.437  10.556  1.5427  0.2241  3.0438
   70SLPC   O31 6001   5.609   1.375  10.360 -0.3742  0.0046 -1.1027
   70SLPC   C31 6002   5.508   1.302  10.314 -0.3747 -0.6934 -0.2963
   70SLPC   O32 6003   5.404   1.278  10.374  0.1808 -0.3357  0.1199
   70SLPC   C32 6004   5.517   1.282  10.165 -0.9529  0.1861  0.2584
   70SLPC   H2X 6005   5.531   1.381  10.115 -0.9650 -0.4928 -1.1303
   70SLPC   H2Y 6006   5.416   1.241  10.143 -1.9654  0.6693  3.4726
   70SLPC   C23 6007   5.988   1.054  10.396  0.0547 -0.9924  0.0475
   70SLPC   H3R 6008   6.095   1.063  10.369  0.4669 -3.2840  0.6968
   70SLPC   H3S 6009   5.921   1.119  10.337  0.3819 -0.8601 -0.1797
   70SLPC   C24 6010   5.962   0.913  10.353 -0.1832 -0.2032  0.5538
   70SLPC   H4R 6011   5.852   0.906  10.337 -0.3072 -1.7846  1.8208
   70SLPC   H4S 6012   5.990   0.838  10.430  0.7149  0.6652  1.0983
   70SLPC   C25 6013   6.039   0.868  10.225  0.0524 -0.0168  0.0800
   70SLPC   H5R 6014   6.144   0.856  10.258  0.0303  0.4875  0.3489
   70SLPC   H5S 6015   6.022   0.955  10.159 -0.3194  0.1540  0.3975
   70SLPC   C26 6016   5.994   0.739  10.157  0.0771  0.3431 -0.7079
   70SLPC   H6R 6017   5.883   0.737  10.147  0.1023 -2.5202 -1.4744
   70SLPC   H6S 6018   6.029   0.650  10.214  0.9704  2.5583  2.4197
   70SLPC   C27 6019   6.055   0.744  10.018  0.4255 -0.5462  0.5095
   70SLPC   H7R 6020   6.166   0.749  10.017  0.3704  2.8292 -0.9336
   70SLPC   H7S 6021   6.023   0.837   9.966  0.9279 -1.9915 -2.6347
   70SLPC   C28 6022   6.027   0.619   9.925 -0.5100  0.5326  0.0487
   70SLPC   H8R 6023   6.062   0.532   9.984 -0.8126  0.4251  0.0721
   70SLPC   H8S 6024   6.087   0.632   9.833 -0.1183  0.1046  0.2438
   70SLPC   C29 6025   5.886   0.611   9.880  0.2346  0.3593  0.3502
   70SLPC   H9R 6026   5.825   0.583   9.968 -0.8615  0.6608 -0.3018
   70SLPC  C210 6027   5.850   0.616   9.751  0.2849 -0.0519  0.4914
   70SLPC  H10R 6028   5.741   0.608   9.740  0.2868 -0.1241  0.5240
   70SLPC  C211 6029   5.935   0.640   9.624 -0.7396 -0.0966 -0.2393
   70SLPC  H11R 6030   6.042   0.615   9.639 -0.7229  0.7384  1.2431
   70SLPC  H11S 6031   5.925   0.747   9.595  2.6468  0.4953  0.4438
   70SLPC  C212 6032   5.896   0.556   9.508  0.8351  0.5462 -0.0384
   70SLPC  H12R 6033   5.821   0.482   9.540 -0.0531  1.0740 -0.8311
   70SLPC  C213 6034   5.939   0.553   9.379  0.6233 -0.1338  0.9136
   70SLPC  H13R 6035   5.892   0.484   9.307 -2.2072 -0.4625  2.9103
   70SLPC  C214 6036   6.036   0.642   9.304 -0.3313  0.0662 -0.0954
   70SLPC  H14R 6037   6.135   0.592   9.304 -0.7829 -0.8411 -0.5244
   70SLPC  H14S 6038   6.053   0.737   9.359  0.5462  0.9532 -1.8326
   70SLPC  C215 6039   5.988   0.679   9.165 -0.6005 -0.1448 -0.4522
   70SLPC  H15R 6040   5.989   0.584   9.108  1.0449  0.2566 -1.1603
   70SLPC  H15S 6041   6.070   0.737   9.116 -0.0333  0.8073  1.5030
   70SLPC  C216 6042   5.852   0.754   9.161  0.3831  0.0225 -0.4016
   70SLPC  H16R 6043   5.842   0.787   9.267 -1.0981 -1.2012 -0.1169
   70SLPC  H16S 6044   5.780   0.684   9.112 -0.5564  0.8784 -0.2793
   70SLPC  C217 6045   5.869   0.880   9.065 -0.3149  0.0560  0.0484
   70SLPC  H17R 6046   5.946   0.949   9.106  0.0409 -1.2860  1.7497
   70SLPC  H17S 6047   5.771   0.932   9.070  0.0242  0.6616  0.6092
   70SLPC  C218 6048   5.899   0.852   8.922  0.0730  0.5935  0.6635
   70SLPC  H18R 6049   5.990   0.790   8.907 -0.9824 -1.0404  0.6993
   70SLPC  H18S 6050   5.930   0.942   8.865  0.7684 -0.3662 -0.5237
   70SLPC  H18T 6051   5.811   0.796   8.884  1.4838 -1.7719  0.6762
   70SLPC   C33 6052   5.643   1.193  10.136  0.4927 -0.0876  0.4346
   70SLPC   H3X 6053   5.624   1.101  10.196  1.2898 -0.8932 -0.5324
   70SLPC   H3Y 6054   5.731   1.250  10.172  0.0860  1.8475 -1.4333
   70SLPC   C34 6055   5.657   1.151   9.988 -1.4468 -0.2309 -0.0866
   70SLPC   H4X 6056   5.709   1.238   9.942 -0.4840 -0.6932  0.1185
   70SLPC   H4Y 6057   5.566   1.139   9.925 -0.5754 -0.9097 -1.2664
   70SLPC   C35 6058   5.755   1.035   9.967 -0.0541  0.5545  0.9701
   70SLPC   H5X 6059   5.693   0.946   9.991  0.4578  0.4539  1.9740
   70SLPC   H5Y 6060   5.847   1.037  10.029  0.4308  1.0793  0.2435
   70SLPC   C36 6061   5.810   1.033   9.818  0.7314 -0.8180 -0.5997
   70SLPC   H6X 6062   5.895   0.961   9.811  0.2341 -1.6681  1.3662
   70SLPC   H6Y 6063   5.843   1.139   9.810  1.5519 -0.6954  2.9327
   70SLPC   C37 6064   5.712   0.981   9.717 -0.3393 -0.1968  0.5414
   70SLPC   H7X 6065   5.610   1.023   9.726  0.2862  1.1714  1.5396
   70SLPC   H7Y 6066   5.702   0.870   9.724  0.1976 -0.6393 -3.5249
   70SLPC   C38 6067   5.771   1.014   9.582 -0.3873  0.3584 -0.4780
   70SLPC   H8X 6068   5.768   0.918   9.525 -0.8666  0.4838 -0.6673
   70SLPC   H8Y 6069   5.880   1.034   9.582 -0.4075  0.5494  0.7111
   70SLPC   C39 6070   5.695   1.124   9.510 -0.6168  0.5952  0.7823
   70SLPC   H9X 6071   5.736   1.214   9.560 -1.2431  2.0782 -1.2338
   70SLPC   H9Y 6072   5.587   1.125   9.538  0.0010 -1.9806  3.8293
   70SLPC  C310 6073   5.720   1.132   9.359 -0.4427 -0.5619 -0.0630
   70SLPC  H10X 6074   5.696   1.030   9.321 -0.6684 -0.3762 -0.4270
   70SLPC  H10Y 6075   5.830   1.127   9.345 -0.6883 -1.7999 -1.9624
   70SLPC  C311 6076   5.662   1.247   9.283 -0.1867 -0.0211 -0.3482
   70SLPC  H11X 6077   5.713   1.339   9.319 -0.7158 -0.3048  1.2119
   70SLPC  H11Y 6078   5.553   1.242   9.306 -0.4056 -1.6861 -1.5951
   70SLPC  C312 6079   5.683   1.224   9.135  0.0375 -1.2115  0.6838
   70SLPC  H12X 6080   5.671   1.117   9.109  0.3059 -0.6928 -1.8409
   70SLPC  H12Y 6081   5.783   1.264   9.109 -1.4158  2.4521  0.1462
   70SLPC  C313 6082   5.574   1.293   9.051 -0.3011 -0.5508 -0.2290
   70SLPC  H13X 6083   5.597   1.401   9.048 -0.3636 -0.5518 -0.7668
   70SLPC  H13Y 6084   5.474   1.268   9.092  0.3493 -0.5266  1.4434
   70SLPC  C314 6085   5.570   1.242   8.905  0.0105 -0.3972  0.4803
   70SLPC  H14X 6086   5.469   1.273   8.869 -0.0924  0.2581  1.2931
   70SLPC  H14Y 6087   5.559   1.132   8.893  0.4160 -0.3081 -0.8819
   70SLPC  C315 6088   5.684   1.292   8.814 -0.2872  1.2765 -0.6183
   70SLPC  H15X 6089   5.783   1.245   8.830  0.1618  2.7800  1.2672
   70SLPC  H15Y 6090   5.687   1.403   8.821 -0.5378  1.2519 -0.0589
   70SLPC  C316 6091   5.637   1.265   8.670  0.2478  0.6178  0.0663
   70SLPC  H16X 6092   5.543   1.323   8.655  0.2152  0.7907  0.9184
   70SLPC  H16Y 6093   5.609   1.158   8.666  1.3314  0.3228  0.0454
   70SLPC  C317 6094   5.732   1.286   8.554  0.3385 -0.1750  0.5380
   70SLPC  H17X 6095   5.737   1.397   8.544 -0.4405 -0.0595  1.3336
   70SLPC  H17Y 6096   5.677   1.244   8.468  3.2376 -1.5336 -0.7772
   70SLPC  C318 6097   5.861   1.216   8.567 -0.7785  0.2153 -0.8860
   70SLPC  H18X 6098   5.905   1.193   8.467 -1.1200 -2.0158 -0.5692
   70SLPC  H18Y 6099   5.858   1.117   8.616 -0.3028  0.8763  0.5301
   70SLPC  H18Z 6100   5.936   1.273   8.625  1.5833 -1.7708 -1.8425
   71SLPC     N 6101   5.585   6.015  11.018 -0.6319 -0.5911  0.3521
   71SLPC   C13 6102   5.671   5.914  11.087 -0.8144  0.2422 -0.6379
   71SLPC  H13A 6103   5.759   5.961  11.129 -1.0534 -0.3096  0.4972
   71SLPC  H13B 6104   5.618   5.872  11.171  1.0357 -0.1740  0.3766
   71SLPC  H13C 6105   5.712   5.837  11.024 -0.6231  0.0458 -0.2743
   71SLPC   C14 6106   5.547   6.114  11.125 -0.0776 -0.0021  0.0729
   71SLPC  H14A 6107   5.632   6.172  11.156 -1.2946  0.6668  2.3429
   71SLPC  H14B 6108   5.472   6.177  11.081 -2.4755 -1.6811  1.5174
   71SLPC  H14C 6109   5.498   6.063  11.207 -0.8566  1.8178  0.7878
   71SLPC   C15 6110   5.460   5.946  10.969 -0.6047 -0.3783  0.4117
   71SLPC  H15A 6111   5.494   5.863  10.910 -0.9749 -0.0458 -0.2785
   71SLPC  H15B 6112   5.406   5.900  11.051  0.0900 -1.9632  0.0112
   71SLPC  H15C 6113   5.391   6.010  10.917 -0.6332  1.5119  2.6168
   71SLPC   C12 6114   5.669   6.084  10.903  0.5392 -0.7741 -0.6936
   71SLPC  H12A 6115   5.767   6.108  10.941  0.1909  0.5181 -0.5561
   71SLPC  H12B 6116   5.608   6.169  10.875 -0.9098 -1.9991 -1.3705
   71SLPC   C11 6117   5.691   6.003  10.770 -0.4111  0.4738  0.2803
   71SLPC  H11A 6118   5.745   6.043  10.681 -1.7391  1.7625  0.0065
   71SLPC  H11B 6119   5.588   5.998  10.729  0.6291  0.9128 -2.6693
   71SLPC     P 6120   5.868   5.809  10.742 -0.2640  0.1016  0.2280
   71SLPC   O13 6121   5.989   5.894  10.753 -0.1970  0.0126 -0.2065
   71SLPC   O14 6122   5.892   5.671  10.797  0.4880 -0.5786 -0.2914
   71SLPC   O12 6123   5.745   5.878  10.813 -1.2278  0.3767  0.5273
   71SLPC   O11 6124   5.817   5.821  10.588  0.4764  0.1466 -0.1108
   71SLPC    C1 6125   5.705   5.745  10.554  0.3398  0.1111  0.1731
   71SLPC    HA 6126   5.656   5.691  10.638 -2.3148 -1.5285 -2.2283
   71SLPC    HB 6127   5.627   5.810  10.509  1.4133  2.3614  1.4181
   71SLPC    C2 6128   5.745   5.647  10.445  0.1998  0.6069  0.4458
   71SLPC    HS 6129   5.826   5.584  10.487  2.3752  3.0933  0.2556
   71SLPC   O21 6130   5.791   5.728  10.336  0.3204 -0.5392 -0.0104
   71SLPC   C21 6131   5.868   5.667  10.252 -0.2624 -1.3137  0.3421
   71SLPC   O22 6132   5.906   5.552  10.262 -0.3063  0.1827  0.6748
   71SLPC   C22 6133   5.907   5.765  10.140 -1.2377 -0.0441 -0.1294
   71SLPC   H2R 6134   5.826   5.841  10.141 -0.9095  0.3129 -0.1681
   71SLPC   H2S 6135   6.000   5.821  10.167 -0.1752 -1.1010 -1.4883
   71SLPC    C3 6136   5.630   5.555  10.404  0.0545  0.3391 -0.0018
   71SLPC    HX 6137   5.572   5.527  10.495 -0.0139  2.8137  0.7994
   71SLPC    HY 6138   5.663   5.463  10.350  1.2726  1.5924 -1.5033
   71SLPC   O31 6139   5.547   5.636  10.321  0.3201 -0.3543  0.0381
   71SLPC   C31 6140   5.419   5.589  10.311 -0.0087  0.6421  0.2333
   71SLPC   O32 6141   5.385   5.483  10.361  0.2175  0.5965  0.2718
   71SLPC   C32 6142   5.325   5.678  10.241 -0.1691 -0.1476 -0.8247
   71SLPC   H2X 6143   5.319   5.770  10.302 -2.1073 -2.0183  2.0524
   71SLPC   H2Y 6144   5.223   5.635  10.245 -0.7292  1.2280  1.1662
   71SLPC   C23 6145   5.915   5.716   9.996  0.0358 -0.0127  0.2235
   71SLPC   H3R 6146   5.874   5.613   9.984  1.1517 -0.3271 -1.2138
   71SLPC   H3S 6147   6.024   5.710   9.974 -0.2672 -1.7621 -1.0682
   71SLPC   C24 6148   5.868   5.810   9.883  0.1769  0.2172 -0.5742
   71SLPC   H4R 6149   5.923   5.904   9.904 -1.1860  0.9019  0.0263
   71SLPC   H4S 6150   5.761   5.838   9.886  0.8093  2.9408 -1.1134
   71SLPC   C25 6151   5.892   5.744   9.748  0.5525 -0.8383  0.4570
   71SLPC   H5R 6152   5.843   5.645   9.756 -3.5654  0.9671 -0.0288
   71SLPC   H5S 6153   6.001   5.721   9.744  0.6532 -0.9355  2.6283
   71SLPC   C26 6154   5.812   5.822   9.640  0.6742  0.2701 -0.2216
   71SLPC   H6R 6155   5.844   5.929   9.641 -1.0812  0.8321  0.5840
   71SLPC   H6S 6156   5.706   5.812   9.672  0.7906 -1.3527 -0.2648
   71SLPC   C27 6157   5.823   5.739   9.515  0.4833  0.1906  0.2699
   71SLPC   H7R 6158   5.729   5.765   9.463  0.6410  2.4413  1.0098
   71SLPC   H7S 6159   5.824   5.629   9.528 -1.5692  0.0729 -0.3295
   71SLPC   C28 6160   5.938   5.785   9.421 -0.2582 -0.3328  0.1140
   71SLPC   H8R 6161   6.030   5.789   9.484 -3.1327  0.6981  4.7646
   71SLPC   H8S 6162   5.917   5.888   9.385 -0.2523 -0.6829 -0.9234
   71SLPC   C29 6163   5.949   5.679   9.316 -0.0132 -0.7265 -0.0418
   71SLPC   H9R 6164   6.031   5.605   9.319  1.0399  0.4125  1.7913
   71SLPC  C210 6165   5.871   5.694   9.207  0.3638 -0.0909 -0.1184
   71SLPC  H10R 6166   5.880   5.614   9.132  1.9018  0.1401 -0.2203
   71SLPC  C211 6167   5.765   5.793   9.171 -0.6832 -0.2630  0.6597
   71SLPC  H11R 6168   5.815   5.874   9.114 -0.9618  0.3100  1.2153
   71SLPC  H11S 6169   5.725   5.848   9.258  1.0498  3.1584 -0.5365
   71SLPC  C212 6170   5.643   5.737   9.103  0.3751 -0.2529 -0.4128
   71SLPC  H12R 6171   5.572   5.703   9.181  2.5892 -0.3252  1.6966
   71SLPC  C213 6172   5.625   5.733   8.969  0.2964  0.0613 -0.9287
   71SLPC  H13R 6173   5.530   5.694   8.930  0.0370  1.0889 -1.3813
   71SLPC  C214 6174   5.721   5.777   8.850  0.5438  0.7247 -0.0975
   71SLPC  H14R 6175   5.749   5.686   8.793  0.4603  1.7492 -1.8377
   71SLPC  H14S 6176   5.817   5.819   8.887  2.6926 -1.0357 -3.2813
   71SLPC  C215 6177   5.659   5.887   8.760 -0.4365 -0.9601 -0.6307
   71SLPC  H15R 6178   5.644   5.981   8.817 -1.1686 -0.2405 -1.9494
   71SLPC  H15S 6179   5.562   5.858   8.714 -0.6780  0.1927 -0.8660
   71SLPC  C216 6180   5.749   5.924   8.643 -0.0555 -0.9159 -0.3803
   71SLPC  H16R 6181   5.839   5.976   8.682 -0.5865  0.7035 -1.2246
   71SLPC  H16S 6182   5.687   5.992   8.582 -0.2442  1.7823  2.5600
   71SLPC  C217 6183   5.794   5.813   8.537  0.2189 -0.4569 -0.5064
   71SLPC  H17R 6184   5.709   5.811   8.465  0.1360  3.7620 -0.7589
   71SLPC  H17S 6185   5.792   5.723   8.602 -0.9384  1.0009  1.6238
   71SLPC  C218 6186   5.933   5.838   8.479  0.8899  0.3258 -0.4994
   71SLPC  H18R 6187   5.996   5.905   8.543  1.5429  1.5673 -2.3551
   71SLPC  H18S 6188   5.918   5.891   8.382  0.6819 -1.6303 -1.5727
   71SLPC  H18T 6189   5.981   5.739   8.467 -1.9402 -1.0831 -1.0287
   71SLPC   C33 6190   5.369   5.706  10.100 -0.2578  0.1157  0.2715
   71SLPC   H3X 6191   5.398   5.613  10.047  1.9702 -0.0442  1.6478
   71SLPC   H3Y 6192   5.460   5.769  10.091  1.5962 -2.3690  0.6611
   71SLPC   C34 6193   5.251   5.764  10.019 -0.7209  0.1990  0.3594
   71SLPC   H4X 6194   5.222   5.862  10.062  2.8936  1.7148 -0.2717
   71SLPC   H4Y 6195   5.163   5.696  10.017 -1.9058  1.7008 -0.8395
   71SLPC   C35 6196   5.300   5.794   9.880  0.4594 -0.2152 -0.7004
   71SLPC   H5X 6197   5.405   5.829   9.877  0.9084 -1.5878 -2.4383
   71SLPC   H5Y 6198   5.237   5.881   9.850 -0.0662 -0.1069  0.6705
   71SLPC   C36 6199   5.298   5.679   9.778  0.5743 -0.8125 -0.0924
   71SLPC   H6X 6200   5.201   5.623   9.780 -0.1639  0.0179 -4.1884
   71SLPC   H6Y 6201   5.372   5.597   9.790  1.2433 -0.0751  0.8704
   71SLPC   C37 6202   5.299   5.732   9.632  0.0033  0.6454 -0.2171
   71SLPC   H7X 6203   5.399   5.770   9.604  0.3891 -0.3156 -0.1918
   71SLPC   H7Y 6204   5.215   5.802   9.613  1.2415  1.2986 -4.5323
   71SLPC   C38 6205   5.273   5.609   9.530  0.1636 -0.2671  0.0646
   71SLPC   H8X 6206   5.176   5.558   9.547  0.8366 -1.5711  0.1026
   71SLPC   H8Y 6207   5.363   5.545   9.521  0.1254 -0.1275 -1.4859
   71SLPC   C39 6208   5.243   5.669   9.395  0.1227 -0.1654 -0.3725
   71SLPC   H9X 6209   5.322   5.745   9.376 -0.8112  0.8969 -0.1504
   71SLPC   H9Y 6210   5.150   5.730   9.397  0.5126  0.4286  2.1365
   71SLPC  C310 6211   5.226   5.565   9.288  0.0026 -0.1490  0.3044
   71SLPC  H10X 6212   5.158   5.481   9.310  0.4198 -0.5742  0.0088
   71SLPC  H10Y 6213   5.329   5.521   9.291  1.2522  2.5624 -0.0707
   71SLPC  C311 6214   5.200   5.630   9.150 -0.2284  0.4956 -0.5258
   71SLPC  H11X 6215   5.260   5.599   9.062 -0.9497 -0.9082 -0.5584
   71SLPC  H11Y 6216   5.231   5.735   9.165  1.5116  0.0699 -0.8964
   71SLPC  C312 6217   5.055   5.622   9.110  1.2196  0.0195 -0.5700
   71SLPC  H12X 6218   4.996   5.601   9.202  3.2478 -0.5857  0.6704
   71SLPC  H12Y 6219   5.033   5.538   9.040  0.7782 -0.9861  0.7307
   71SLPC  C313 6220   4.995   5.758   9.051 -0.3689  0.3655 -0.5085
   71SLPC  H13X 6221   5.048   5.774   8.955  0.7702  1.2318  0.2383
   71SLPC  H13Y 6222   5.018   5.841   9.121  1.6993  0.2727 -1.0047
   71SLPC  C314 6223   4.847   5.743   9.016  0.1684  0.3126 -0.5108
   71SLPC  H14X 6224   4.796   5.708   9.108  1.5629  1.1510  0.6240
   71SLPC  H14Y 6225   4.834   5.667   8.936  1.2474  0.3228 -0.7069
   71SLPC  C315 6226   4.785   5.864   8.943 -0.1703 -0.2723  0.7776
   71SLPC  H15X 6227   4.774   5.946   9.018 -0.2788 -0.1272  0.6061
   71SLPC  H15Y 6228   4.679   5.839   8.922  0.1333 -0.3521 -0.7527
   71SLPC  C316 6229   4.855   5.921   8.821  0.1950  0.0185  0.1572
   71SLPC  H16X 6230   4.846   5.837   8.748  0.2760 -0.8319  1.1075
   71SLPC  H16Y 6231   4.965   5.931   8.837  0.0493  1.2137  0.5316
   71SLPC  C317 6232   4.798   6.055   8.759  0.0558 -0.2009  0.0946
   71SLPC  H17X 6233   4.858   6.092   8.672  0.7594 -1.2390  0.1156
   71SLPC  H17Y 6234   4.806   6.136   8.834  2.0786 -0.9338  0.7436
   71SLPC  C318 6235   4.645   6.046   8.714 -0.2244 -0.2868 -0.1013
   71SLPC  H18X 6236   4.638   5.952   8.655 -0.5424 -1.0342  1.0994
   71SLPC  H18Y 6237   4.624   6.130   8.644  1.6244 -0.0423 -0.4192
   71SLPC  H18Z 6238   4.586   6.049   8.808  2.2446  1.4507  1.5313
   72SLPC     N 6239   6.476   5.803  11.189  0.1874  0.4709 -0.4273
   72SLPC   C13 6240   6.539   5.689  11.259 -0.4296 -0.3572  0.4774
   72SLPC  H13A 6241   6.561   5.717  11.361 -0.0181 -0.1783  0.3443
   72SLPC  H13B 6242   6.475   5.604  11.242 -0.5657 -0.2501  0.4473
   72SLPC  H13C 6243   6.635   5.664  11.216 -1.0499  1.8025 -2.4965
   72SLPC   C14 6244   6.351   5.829  11.262  0.2116  0.4945 -0.2560
   72SLPC  H14A 6245   6.284   5.744  11.256  2.1510 -0.9982 -3.2233
   72SLPC  H14B 6246   6.367   5.854  11.366 -0.4851 -0.5830  0.1289
   72SLPC  H14C 6247   6.297   5.915  11.224 -0.0295  0.2637 -0.4348
   72SLPC   C15 6248   6.452   5.767  11.044  0.3503 -0.7733 -0.0838
   72SLPC  H15A 6249   6.549   5.769  10.998  0.3369  1.9317 -0.1313
   72SLPC  H15B 6250   6.396   5.675  11.032  1.3906 -1.2940 -1.1424
   72SLPC  H15C 6251   6.399   5.853  11.005 -0.8842  0.4355  3.7859
   72SLPC   C12 6252   6.565   5.925  11.202  1.0910  0.4888  0.0715
   72SLPC  H12A 6253   6.665   5.897  11.173  0.2132 -3.0786 -0.0818
   72SLPC  H12B 6254   6.569   5.960  11.304  3.2065 -0.9521  0.5491
   72SLPC   C11 6255   6.538   6.050  11.100 -0.1463  0.1202  0.6033
   72SLPC  H11A 6256   6.585   6.140  11.145  1.4447 -1.4743  2.2786
   72SLPC  H11B 6257   6.430   6.075  11.100 -0.4087 -0.9762  0.9025
   72SLPC     P 6258   6.599   6.113  10.842  0.1313 -0.2077  0.3239
   72SLPC   O13 6259   6.694   6.210  10.892  0.0571 -0.4982  0.7226
   72SLPC   O14 6260   6.638   6.037  10.725 -0.0582 -0.6789 -0.1011
   72SLPC   O12 6261   6.568   6.011  10.964  0.5432  0.4707  0.4029
   72SLPC   O11 6262   6.457   6.188  10.823  0.2053 -0.4014 -0.1766
   72SLPC    C1 6263   6.326   6.123  10.836 -0.1332  0.5093 -0.3714
   72SLPC    HA 6264   6.346   6.021  10.873  1.8214  0.7040 -0.7806
   72SLPC    HB 6265   6.260   6.184  10.901 -2.0275 -2.2489  0.4793
   72SLPC    C2 6266   6.245   6.111  10.704 -0.2614  0.2797  0.4452
   72SLPC    HS 6267   6.153   6.053  10.727 -1.5960  0.6675 -3.2966
   72SLPC   O21 6268   6.333   6.038  10.615  0.3348 -1.4340 -0.2508
   72SLPC   C21 6269   6.269   5.984  10.521  0.4584 -0.0600 -0.5427
   72SLPC   O22 6270   6.150   5.995  10.488 -0.0453  0.3314 -0.7228
   72SLPC   C22 6271   6.380   5.918  10.439 -0.3228 -0.3923  0.2895
   72SLPC   H2R 6272   6.456   5.993  10.408 -0.7419  0.3210  0.9366
   72SLPC   H2S 6273   6.433   5.848  10.507 -1.1349 -0.1228  1.2274
   72SLPC    C3 6274   6.218   6.249  10.634 -0.9464  0.4468  0.0098
   72SLPC    HX 6275   6.151   6.297  10.709  0.0088 -0.6634  1.6251
   72SLPC    HY 6276   6.154   6.249  10.543 -1.4247  1.0414  0.3348
   72SLPC   O31 6277   6.331   6.330  10.609  0.4414 -0.4691 -0.3068
   72SLPC   C31 6278   6.362   6.430  10.701  0.1746  0.5176 -0.1904
   72SLPC   O32 6279   6.304   6.443  10.804 -0.1622 -1.0074 -0.4477
   72SLPC   C32 6280   6.481   6.500  10.644  0.4273 -0.0548 -0.1337
   72SLPC   H2X 6281   6.561   6.433  10.609  0.2293 -1.0925  1.2865
   72SLPC   H2Y 6282   6.535   6.545  10.730 -1.1193  0.1466  0.7828
   72SLPC   C23 6283   6.335   5.837  10.318 -0.1226  0.4139 -0.0776
   72SLPC   H3R 6284   6.262   5.761  10.354  1.2084 -0.7610  0.2082
   72SLPC   H3S 6285   6.421   5.779  10.280 -1.5994 -2.2585  0.4152
   72SLPC   C24 6286   6.276   5.918  10.200 -0.2791 -0.0093 -0.1606
   72SLPC   H4R 6287   6.318   6.018  10.223  0.8448 -0.5450  0.1786
   72SLPC   H4S 6288   6.167   5.933  10.219 -0.1284  0.5502  0.2928
   72SLPC   C25 6289   6.299   5.857  10.064 -0.2428  0.2318  0.2677
   72SLPC   H5R 6290   6.237   5.765  10.062  0.4676 -0.2670 -2.5294
   72SLPC   H5S 6291   6.400   5.809  10.063  0.5384  1.7789  0.9209
   72SLPC   C26 6292   6.274   5.938   9.940  0.6818 -0.1596  0.0623
   72SLPC   H6R 6293   6.339   6.027   9.929 -0.5459  0.5930 -1.4743
   72SLPC   H6S 6294   6.169   5.976   9.942  0.7428  0.2081 -1.8028
   72SLPC   C27 6295   6.288   5.838   9.820 -0.0800  0.5005  0.3507
   72SLPC   H7R 6296   6.232   5.745   9.843  2.7747 -1.7693 -1.1538
   72SLPC   H7S 6297   6.395   5.808   9.817  0.5654  2.6985 -1.0321
   72SLPC   C28 6298   6.250   5.890   9.679 -0.4819  0.3248  0.7214
   72SLPC   H8R 6299   6.153   5.944   9.682 -0.4973  0.3567 -0.0796
   72SLPC   H8S 6300   6.241   5.799   9.616 -0.3974 -0.4046  1.7372
   72SLPC   C29 6301   6.352   5.993   9.638 -0.4925  0.0069 -0.1064
   72SLPC   H9R 6302   6.368   6.071   9.713  1.5185 -0.6518  0.2215
   72SLPC  C210 6303   6.425   5.992   9.529 -0.6518  0.8167  0.3197
   72SLPC  H10R 6304   6.495   6.075   9.512  1.0930 -0.3856  1.2685
   72SLPC  C211 6305   6.437   5.888   9.423 -0.3848  0.5646  0.0810
   72SLPC  H11R 6306   6.480   5.794   9.464  0.7680  0.4053 -1.3959
   72SLPC  H11S 6307   6.508   5.917   9.343 -0.9146  2.4988  0.2534
   72SLPC  C212 6308   6.304   5.863   9.351  0.0678 -0.5320  0.0949
   72SLPC  H12R 6309   6.217   5.892   9.413  0.5962 -1.3388  1.2653
   72SLPC  C213 6310   6.270   5.801   9.241  0.3745 -0.1143  0.6031
   72SLPC  H13R 6311   6.170   5.818   9.199  1.4309  0.5703 -1.8526
   72SLPC  C214 6312   6.366   5.749   9.138 -0.2572 -0.0508  0.0644
   72SLPC  H14R 6313   6.385   5.642   9.158 -0.6264  0.0946  1.2966
   72SLPC  H14S 6314   6.464   5.801   9.145  0.8322 -1.9972 -0.2421
   72SLPC  C215 6315   6.324   5.759   8.991  0.3109 -0.2624  0.7974
   72SLPC  H15R 6316   6.395   5.708   8.924 -1.1137 -0.0897 -0.9350
   72SLPC  H15S 6317   6.323   5.866   8.959  0.3194 -1.0256 -1.9900
   72SLPC  C216 6318   6.176   5.697   8.968 -0.3230  0.0133  0.3252
   72SLPC  H16R 6319   6.094   5.768   8.988  1.0358  1.4956  0.8696
   72SLPC  H16S 6320   6.160   5.607   9.031 -3.0421  0.6409  0.6680
   72SLPC  C217 6321   6.172   5.645   8.824 -0.3391 -0.7167 -0.0726
   72SLPC  H17R 6322   6.251   5.569   8.808  0.9418  0.5229  0.1512
   72SLPC  H17S 6323   6.195   5.728   8.755 -2.7755 -1.9941 -2.6222
   72SLPC  C218 6324   6.032   5.587   8.795  0.1835  0.5276  0.6118
   72SLPC  H18R 6325   6.024   5.494   8.856  1.2923  0.5992  0.8961
   72SLPC  H18S 6326   6.028   5.565   8.687  1.1578  1.5797  0.3327
   72SLPC  H18T 6327   5.949   5.658   8.817 -0.0938  0.1855  0.6770
   72SLPC   C33 6328   6.458   6.613  10.542 -0.4661 -0.6753  0.0267
   72SLPC   H3X 6329   6.555   6.656  10.509 -0.9846  0.6285  0.1318
   72SLPC   H3Y 6330   6.408   6.700  10.590 -2.4118 -2.1164  0.7829
   72SLPC   C34 6331   6.369   6.575  10.428  0.2217  0.2074  0.1033
   72SLPC   H4X 6332   6.343   6.662  10.365  0.1826 -0.3173 -0.6239
   72SLPC   H4Y 6333   6.269   6.542  10.466  1.4345 -2.2247  1.4431
   72SLPC   C35 6334   6.423   6.464  10.342  0.2613  1.3192  0.1556
   72SLPC   H5X 6335   6.436   6.369  10.399 -1.3909  1.5077  0.8905
   72SLPC   H5Y 6336   6.529   6.492  10.323  0.1958  2.3703  1.2501
   72SLPC   C36 6337   6.345   6.459  10.215  0.5148 -0.1065  0.2423
   72SLPC   H6X 6338   6.286   6.553  10.204 -2.4203 -1.7318  1.1002
   72SLPC   H6Y 6339   6.266   6.382  10.215  1.9876 -1.6836 -0.1446
   72SLPC   C37 6340   6.442   6.445  10.094  0.3862 -0.0668  0.8689
   72SLPC   H7X 6341   6.512   6.359  10.104  2.6870  1.7011  1.0340
   72SLPC   H7Y 6342   6.499   6.540  10.086  0.3813 -0.1374 -0.1230
   72SLPC   C38 6343   6.370   6.422   9.959 -0.9695  0.1990  0.4532
   72SLPC   H8X 6344   6.269   6.469   9.953 -1.5055 -1.0361 -0.7756
   72SLPC   H8Y 6345   6.344   6.314   9.963  0.8378 -0.2306  1.3443
   72SLPC   C39 6346   6.458   6.467   9.840  0.1229 -0.0409 -0.2500
   72SLPC   H9X 6347   6.533   6.385   9.839 -0.3999 -0.5383 -0.9751
   72SLPC   H9Y 6348   6.508   6.564   9.855 -0.1459  0.9193 -4.2861
   72SLPC  C310 6349   6.382   6.458   9.708 -0.4956  0.0622 -0.4620
   72SLPC  H10X 6350   6.294   6.525   9.706 -1.0687 -0.6965 -0.9545
   72SLPC  H10Y 6351   6.339   6.356   9.708 -0.4308  0.0290  0.3501
   72SLPC  C311 6352   6.480   6.470   9.584  0.9063 -0.0115 -0.1438
   72SLPC  H11X 6353   6.565   6.400   9.596  0.2774 -0.5913  1.0931
   72SLPC  H11Y 6354   6.522   6.571   9.565  0.2543  0.2447 -0.2481
   72SLPC  C312 6355   6.409   6.411   9.457 -0.3667  0.4925  0.1554
   72SLPC  H12X 6356   6.310   6.457   9.438  0.0518  1.1257 -0.5125
   72SLPC  H12Y 6357   6.411   6.300   9.467  1.9887  0.5367  0.8823
   72SLPC  C313 6358   6.503   6.451   9.339 -0.1896  0.1538 -0.3701
   72SLPC  H13X 6359   6.608   6.417   9.356  0.1971  0.0402 -2.5995
   72SLPC  H13Y 6360   6.504   6.562   9.346 -1.9328  0.2180 -0.7070
   72SLPC  C314 6361   6.448   6.394   9.211  0.0382 -0.7345  0.1903
   72SLPC  H14X 6362   6.354   6.444   9.181  0.7760  1.2013  0.8995
   72SLPC  H14Y 6363   6.439   6.284   9.222  1.6094 -0.8633  0.4953
   72SLPC  C315 6364   6.551   6.424   9.097  0.1556 -0.2869 -0.2594
   72SLPC  H15X 6365   6.649   6.379   9.123  0.1584 -0.0654  0.1119
   72SLPC  H15Y 6366   6.571   6.534   9.094 -1.2471 -0.0219 -0.5712
   72SLPC  C316 6367   6.494   6.383   8.959 -0.7520  0.8468  0.2151
   72SLPC  H16X 6368   6.460   6.277   8.964 -1.4492  1.0821  0.5201
   72SLPC  H16Y 6369   6.576   6.398   8.886  0.1527  2.3992  1.4926
   72SLPC  C317 6370   6.373   6.463   8.895  0.6001  0.4772  0.2107
   72SLPC  H17X 6371   6.285   6.452   8.962 -0.9086 -1.7387 -1.9620
   72SLPC  H17Y 6372   6.334   6.409   8.806 -2.1345 -1.0153  2.1497
   72SLPC  C318 6373   6.403   6.614   8.866 -0.5581  0.7555 -0.9209
   72SLPC  H18X 6374   6.424   6.677   8.956  0.9222  2.2140 -2.2330
   72SLPC  H18Y 6375   6.309   6.656   8.825  0.6130  1.8935 -2.5695
   72SLPC  H18Z 6376   6.492   6.627   8.802  1.5329  0.3922  1.7023
   73SLPC     N 6377   1.121   3.464  11.067 -0.5154  0.3623  0.2660
   73SLPC   C13 6378   1.168   3.362  11.160  0.5150  0.8601 -0.2157
   73SLPC  H13A 6379   1.164   3.398  11.262 -0.7232 -1.2115  0.5492
   73SLPC  H13B 6380   1.096   3.281  11.162 -0.3674  1.6242  2.1700
   73SLPC  H13C 6381   1.270   3.331  11.142  0.7159  2.0775 -1.2988
   73SLPC   C14 6382   1.225   3.577  11.073 -0.3357  0.1744 -0.7685
   73SLPC  H14A 6383   1.232   3.602  11.178 -0.7940 -1.5160 -0.3119
   73SLPC  H14B 6384   1.323   3.537  11.050 -0.0783 -0.6354  1.4305
   73SLPC  H14C 6385   1.210   3.667  11.016 -0.3846  0.2590 -0.6250
   73SLPC   C15 6386   0.990   3.504  11.114 -0.5539  0.2384  0.4243
   73SLPC  H15A 6387   0.944   3.581  11.054 -1.0269  0.0238  0.5153
   73SLPC  H15B 6388   0.916   3.426  11.119 -0.3926 -0.0640 -1.3235
   73SLPC  H15C 6389   0.999   3.556  11.209  0.1232 -0.2196  0.6276
   73SLPC   C12 6390   1.103   3.408  10.927 -0.6500 -0.7356  0.2401
   73SLPC  H12A 6391   1.029   3.466  10.874 -0.0286 -0.0578  0.1019
   73SLPC  H12B 6392   1.051   3.314  10.943  0.9645 -1.5941  0.6932
   73SLPC   C11 6393   1.226   3.361  10.837  0.0596 -0.4938 -0.1058
   73SLPC  H11A 6394   1.287   3.451  10.816 -1.2579 -0.1984 -3.2306
   73SLPC  H11B 6395   1.189   3.334  10.736 -1.7456 -0.7545  0.5908
   73SLPC     P 6396   1.253   3.105  10.874 -0.5283  0.2572 -0.4041
   73SLPC   O13 6397   1.337   3.021  10.967  0.2165 -0.3653  0.5604
   73SLPC   O14 6398   1.109   3.095  10.877  0.5766  0.2365 -0.0744
   73SLPC   O12 6399   1.297   3.258  10.900  0.0933  0.0381 -0.2927
   73SLPC   O11 6400   1.304   3.082  10.731 -0.3554 -0.1105 -0.0025
   73SLPC    C1 6401   1.432   3.130  10.688 -0.0465 -0.0208 -0.2368
   73SLPC    HA 6402   1.434   3.241  10.688 -0.6218  0.0272 -2.4192
   73SLPC    HB 6403   1.510   3.095  10.760  1.5864  1.1088 -1.3776
   73SLPC    C2 6404   1.473   3.074  10.548  0.9852  0.6959 -0.3514
   73SLPC    HS 6405   1.581   3.093  10.526  1.0420  0.7129 -0.0627
   73SLPC   O21 6406   1.394   3.133  10.441 -0.4813  0.2144 -0.3741
   73SLPC   C21 6407   1.439   3.249  10.402  0.2237 -0.8095 -0.5152
   73SLPC   O22 6408   1.543   3.302  10.444  0.3665  0.8495 -0.6365
   73SLPC   C22 6409   1.359   3.312  10.288 -0.8541  0.1042  0.3026
   73SLPC   H2R 6410   1.255   3.318  10.326 -1.2755  2.6824 -1.0194
   73SLPC   H2S 6411   1.396   3.415  10.268  0.0748 -0.6580 -2.4130
   73SLPC    C3 6412   1.460   2.920  10.545  0.0292 -0.5386 -0.1958
   73SLPC    HX 6413   1.355   2.886  10.527 -0.8234  2.2549 -0.9534
   73SLPC    HY 6414   1.462   2.882  10.649 -2.5926 -1.8442 -0.5282
   73SLPC   O31 6415   1.557   2.849  10.471 -0.7757  0.0456 -0.3305
   73SLPC   C31 6416   1.525   2.772  10.379  0.3244  0.4287 -0.7383
   73SLPC   O32 6417   1.409   2.750  10.338 -0.2188 -0.0164 -0.1457
   73SLPC   C32 6418   1.653   2.710  10.325  0.6218  0.3954  0.2598
   73SLPC   H2X 6419   1.677   2.617  10.380  0.8700  0.2405 -0.1069
   73SLPC   H2Y 6420   1.738   2.777  10.353  1.0529 -0.4389  1.0117
   73SLPC   C23 6421   1.363   3.221  10.159  0.0891 -0.2386 -0.0887
   73SLPC   H3R 6422   1.268   3.236  10.104 -0.7033  0.4328  1.3917
   73SLPC   H3S 6423   1.368   3.114  10.187 -0.6617 -0.1174  0.5700
   73SLPC   C24 6424   1.473   3.268  10.068  0.1521 -0.1096  0.0677
   73SLPC   H4R 6425   1.575   3.262  10.110 -0.1413 -0.6493  0.7297
   73SLPC   H4S 6426   1.453   3.376  10.052  1.5899 -0.0747 -1.8088
   73SLPC   C25 6427   1.475   3.197   9.929  0.0705  0.5086  0.4955
   73SLPC   H5R 6428   1.376   3.178   9.883 -0.2413  0.5828  1.1173
   73SLPC   H5S 6429   1.521   3.098   9.950  2.1659  0.7495 -2.4140
   73SLPC   C26 6430   1.568   3.272   9.833  0.2738  0.5293  0.3656
   73SLPC   H6R 6431   1.673   3.247   9.863 -0.0596  0.2780  1.3839
   73SLPC   H6S 6432   1.544   3.380   9.835 -1.0423  0.3101 -1.4415
   73SLPC   C27 6433   1.533   3.214   9.692  0.2193  0.2039  0.1534
   73SLPC   H7R 6434   1.436   3.258   9.660  1.2872  1.9849 -0.7722
   73SLPC   H7S 6435   1.526   3.103   9.700  0.3075  0.2907  2.2360
   73SLPC   C28 6436   1.641   3.260   9.587  0.3053 -0.2082  0.0423
   73SLPC   H8R 6437   1.739   3.238   9.635  0.8970  0.2223 -0.9426
   73SLPC   H8S 6438   1.630   3.369   9.573  2.1868  0.0553  0.3568
   73SLPC   C29 6439   1.630   3.182   9.459 -0.5302 -0.5122  0.6239
   73SLPC   H9R 6440   1.637   3.072   9.463 -0.0255 -0.4876  0.4658
   73SLPC  C210 6441   1.602   3.224   9.334  0.4436  0.7854  0.0500
   73SLPC  H10R 6442   1.604   3.152   9.251 -0.9261 -2.0659  2.3208
   73SLPC  C211 6443   1.577   3.359   9.285 -0.3518 -0.1686  0.1620
   73SLPC  H11R 6444   1.586   3.429   9.372 -1.5893  1.3967 -0.9011
   73SLPC  H11S 6445   1.472   3.370   9.250  0.0300  2.2720 -0.4295
   73SLPC  C212 6446   1.671   3.406   9.172  0.4937  0.8820  0.0063
   73SLPC  H12R 6447   1.762   3.443   9.220 -0.2612  0.9236  1.4583
   73SLPC  C213 6448   1.654   3.403   9.035 -0.0930  0.0975  0.1792
   73SLPC  H13R 6449   1.733   3.444   8.970  0.0048 -0.0560  0.2012
   73SLPC  C214 6450   1.536   3.369   8.954  0.0051  0.6862 -0.9298
   73SLPC  H14R 6451   1.447   3.361   9.019  1.4255 -0.2106  0.9818
   73SLPC  H14S 6452   1.558   3.273   8.903  2.2482 -0.5425  2.0930
   73SLPC  C215 6453   1.507   3.486   8.850  0.3048 -0.4827  0.1353
   73SLPC  H15R 6454   1.597   3.505   8.787  0.1961  3.4667  0.8950
   73SLPC  H15S 6455   1.497   3.584   8.901 -0.8328 -0.5322  0.0353
   73SLPC  C216 6456   1.379   3.457   8.770 -0.0461  0.1497  0.7845
   73SLPC  H16R 6457   1.293   3.453   8.841 -1.5003  2.2023 -0.7351
   73SLPC  H16S 6458   1.398   3.364   8.712 -3.0139 -0.1200  0.0749
   73SLPC  C217 6459   1.339   3.559   8.661 -0.2803  0.0082  0.0211
   73SLPC  H17R 6460   1.422   3.579   8.590 -1.5983 -0.3452 -1.6820
   73SLPC  H17S 6461   1.309   3.649   8.720 -3.0595  0.2676 -1.6417
   73SLPC  C218 6462   1.208   3.517   8.593  0.2166  0.1998  0.0341
   73SLPC  H18R 6463   1.191   3.588   8.509  3.1879  0.4536 -0.4486
   73SLPC  H18S 6464   1.121   3.522   8.662  0.7328  1.3580  0.6278
   73SLPC  H18T 6465   1.221   3.414   8.554 -0.2163 -0.0713  0.5910
   73SLPC   C33 6466   1.645   2.674  10.176 -0.1856 -0.4120 -0.0939
   73SLPC   H3X 6467   1.559   2.607  10.158  0.4418 -0.8338 -1.7249
   73SLPC   H3Y 6468   1.740   2.623  10.148 -0.7597 -0.9715 -1.0455
   73SLPC   C34 6469   1.630   2.799  10.088 -0.2824 -0.3651 -0.2071
   73SLPC   H4X 6470   1.717   2.869  10.092  0.5128 -1.3531  0.2446
   73SLPC   H4Y 6471   1.541   2.861  10.110 -0.3141 -1.2988  2.6851
   73SLPC   C35 6472   1.631   2.747   9.942 -0.2167  0.5763  0.5981
   73SLPC   H5X 6473   1.573   2.653   9.926  1.3367  0.1049 -3.1568
   73SLPC   H5Y 6474   1.729   2.701   9.918 -1.0016 -1.5034  1.1241
   73SLPC   C36 6475   1.603   2.849   9.843  0.3666 -0.5009 -0.0640
   73SLPC   H6X 6476   1.656   2.944   9.866  2.3859 -1.6642  0.3132
   73SLPC   H6Y 6477   1.494   2.868   9.851  0.1910 -0.9225 -1.2204
   73SLPC   C37 6478   1.644   2.818   9.693 -0.4095  0.4919 -0.5537
   73SLPC   H7X 6479   1.753   2.799   9.689 -0.8187 -2.0064 -2.6134
   73SLPC   H7Y 6480   1.631   2.903   9.623 -2.4098 -0.5563 -1.5417
   73SLPC   C38 6481   1.575   2.688   9.648 -0.5049 -0.5214  0.1853
   73SLPC   H8X 6482   1.469   2.720   9.642 -0.2806 -0.0627 -2.7762
   73SLPC   H8Y 6483   1.569   2.605   9.722 -1.8573 -1.3369 -0.7930
   73SLPC   C39 6484   1.617   2.634   9.511  0.1822  0.2151 -0.4075
   73SLPC   H9X 6485   1.560   2.542   9.487  1.3249  0.2436 -3.7583
   73SLPC   H9Y 6486   1.724   2.604   9.516 -0.1240 -0.8417  0.1529
   73SLPC  C310 6487   1.575   2.730   9.405  0.7842  0.9639 -0.1583
   73SLPC  H10X 6488   1.611   2.832   9.430 -3.1412  1.9816  2.2548
   73SLPC  H10Y 6489   1.464   2.728   9.397  0.8050  1.0796 -0.5079
   73SLPC  C311 6490   1.634   2.695   9.263  0.4980 -0.3003  0.1232
   73SLPC  H11X 6491   1.594   2.600   9.222  2.9474 -2.1965  1.8526
   73SLPC  H11Y 6492   1.745   2.694   9.269  0.4759 -1.6537  0.4949
   73SLPC  C312 6493   1.595   2.808   9.158 -0.4107  0.5288  0.1402
   73SLPC  H12X 6494   1.626   2.911   9.184  0.6124  0.0498  0.8909
   73SLPC  H12Y 6495   1.484   2.804   9.154 -0.5443 -1.4960  2.7980
   73SLPC  C313 6496   1.657   2.770   9.027  0.3206 -0.3874 -0.5944
   73SLPC  H13X 6497   1.636   2.663   9.005 -0.6382 -0.3387  0.0294
   73SLPC  H13Y 6498   1.766   2.782   9.043  0.0795  0.4631  0.6643
   73SLPC  C314 6499   1.611   2.851   8.905  0.2276  0.5896 -0.0987
   73SLPC  H14X 6500   1.601   2.957   8.936 -0.3665  1.0568 -1.7629
   73SLPC  H14Y 6501   1.504   2.829   8.885  0.3619 -1.8339  1.4230
   73SLPC  C315 6502   1.677   2.819   8.775  0.0217 -0.2880 -0.5972
   73SLPC  H15X 6503   1.673   2.714   8.739  2.5730 -0.4892 -0.4842
   73SLPC  H15Y 6504   1.785   2.842   8.786  0.2982 -1.9239  0.3440
   73SLPC  C316 6505   1.610   2.893   8.656  0.2322  0.7755  0.0518
   73SLPC  H16X 6506   1.503   2.865   8.643  0.6831 -0.8299 -0.4665
   73SLPC  H16Y 6507   1.669   2.862   8.567 -0.5439 -0.8276  0.0591
   73SLPC  C317 6508   1.612   3.046   8.680  0.6091  0.3667  0.0674
   73SLPC  H17X 6509   1.715   3.078   8.706  0.4935  0.2200  0.7257
   73SLPC  H17Y 6510   1.559   3.084   8.770 -0.4068  3.4162 -1.6632
   73SLPC  C318 6511   1.561   3.119   8.552 -0.3397  0.8166 -0.6838
   73SLPC  H18X 6512   1.575   3.229   8.566 -0.5113  0.7352  0.1945
   73SLPC  H18Y 6513   1.459   3.091   8.519 -0.1780  0.0908 -0.5826
   73SLPC  H18Z 6514   1.635   3.094   8.472  1.5111  0.1098  1.1426
   74SLPC     N 6515   2.213   4.746  11.210  0.2620 -0.1440  0.4645
   74SLPC   C13 6516   2.084   4.827  11.203 -0.3783 -0.3870  0.8013
   74SLPC  H13A 6517   2.036   4.788  11.114  1.6026 -2.0048  0.3723
   74SLPC  H13B 6518   2.017   4.800  11.283  1.3989  0.9576  2.8652
   74SLPC  H13C 6519   2.098   4.934  11.204  1.1860 -0.5757  0.6627
   74SLPC   C14 6520   2.200   4.623  11.142 -0.1857  0.0838  0.3408
   74SLPC  H14A 6521   2.111   4.568  11.171 -0.0384  0.3721  1.3596
   74SLPC  H14B 6522   2.200   4.634  11.034 -0.6941  0.5601  0.3847
   74SLPC  H14C 6523   2.287   4.560  11.155  0.3311  1.2297  3.0708
   74SLPC   C15 6524   2.241   4.708  11.352  0.1818 -0.5667 -0.1174
   74SLPC  H15A 6525   2.251   4.795  11.416  1.1302  0.1721 -1.2360
   74SLPC  H15B 6526   2.165   4.641  11.390  0.6599 -1.7362 -1.1572
   74SLPC  H15C 6527   2.331   4.650  11.371  1.9869  2.7584  2.6894
   74SLPC   C12 6528   2.340   4.827  11.156  0.1613 -0.2202  0.4402
   74SLPC  H12A 6529   2.426   4.769  11.184  0.5887  0.2090  0.0470
   74SLPC  H12B 6530   2.350   4.912  11.222 -1.2034  1.0028 -0.8498
   74SLPC   C11 6531   2.363   4.857  11.002  0.1459  0.7240 -0.7485
   74SLPC  H11A 6532   2.438   4.937  10.984  2.0405 -0.8460 -0.1098
   74SLPC  H11B 6533   2.263   4.871  10.954 -1.2166 -2.4688  0.8468
   74SLPC     P 6534   2.367   4.676  10.812 -0.1703  0.0564 -0.0804
   74SLPC   O13 6535   2.488   4.628  10.745 -0.0945  0.0352 -0.2860
   74SLPC   O14 6536   2.268   4.575  10.837 -0.1863 -0.2629  0.1004
   74SLPC   O12 6537   2.415   4.738  10.951  0.0662  0.3833  0.2635
   74SLPC   O11 6538   2.302   4.800  10.730 -0.6042 -0.3937  0.3330
   74SLPC    C1 6539   2.389   4.860  10.635  0.7643  0.2211 -0.1153
   74SLPC    HA 6540   2.359   4.967  10.641 -3.5901 -0.7826 -0.5149
   74SLPC    HB 6541   2.497   4.839  10.650  0.1333 -2.5209  1.2914
   74SLPC    C2 6542   2.333   4.799  10.498  0.0443 -0.0008 -0.4292
   74SLPC    HS 6543   2.380   4.699  10.484  0.6699  0.1112  0.7591
   74SLPC   O21 6544   2.356   4.885  10.386 -0.3581 -0.4285  0.2514
   74SLPC   C21 6545   2.483   4.875  10.337 -0.2572 -0.2096 -0.3991
   74SLPC   O22 6546   2.572   4.803  10.382  0.3535  0.1288  0.2450
   74SLPC   C22 6547   2.506   4.972  10.230 -0.0961  0.1107  0.7500
   74SLPC   H2R 6548   2.438   5.060  10.230 -0.4748 -0.1652 -0.2549
   74SLPC   H2S 6549   2.611   5.008  10.237  0.8589 -1.1111 -3.8793
   74SLPC    C3 6550   2.183   4.776  10.501  0.0602  0.1106  0.4296
   74SLPC    HX 6551   2.139   4.878  10.505  4.2846  2.2197 -1.4138
   74SLPC    HY 6552   2.140   4.718  10.586 -1.5867 -0.3727 -0.6834
   74SLPC   O31 6553   2.132   4.729  10.376 -0.3040 -0.0940 -0.7745
   74SLPC   C31 6554   2.114   4.594  10.374  0.2305 -0.1427 -0.1354
   74SLPC   O32 6555   2.159   4.522  10.463 -0.0561 -0.2247 -0.7793
   74SLPC   C32 6556   2.040   4.550  10.251 -0.1484 -0.0894  0.5196
   74SLPC   H2X 6557   1.970   4.634  10.231  2.2754  1.6760 -1.1879
   74SLPC   H2Y 6558   1.975   4.463  10.274 -0.8772  0.7782  1.8565
   74SLPC   C23 6559   2.492   4.912  10.086 -0.1659  0.1740  0.2074
   74SLPC   H3R 6560   2.550   4.818  10.073 -0.0174  0.3536 -0.4346
   74SLPC   H3S 6561   2.523   4.988  10.012 -1.7198  1.6867  1.0285
   74SLPC   C24 6562   2.351   4.877  10.044  0.3478  0.5131  0.5900
   74SLPC   H4R 6563   2.287   4.968  10.046 -1.5258 -0.6724 -0.9446
   74SLPC   H4S 6564   2.305   4.795  10.104  1.9404 -0.9024 -0.0445
   74SLPC   C25 6565   2.349   4.817   9.901 -0.1033 -0.3666 -0.0705
   74SLPC   H5R 6566   2.249   4.774   9.877  0.0369 -0.6048 -0.2277
   74SLPC   H5S 6567   2.433   4.745   9.905 -0.0647 -0.3680 -0.8219
   74SLPC   C26 6568   2.374   4.920   9.794 -0.5408 -0.0533 -0.0083
   74SLPC   H6R 6569   2.482   4.946   9.796  0.1964 -2.8525  0.6332
   74SLPC   H6S 6570   2.316   5.013   9.816 -2.2645 -1.6965  3.1261
   74SLPC   C27 6571   2.343   4.869   9.650 -0.1536  0.2519 -0.7317
   74SLPC   H7R 6572   2.243   4.820   9.651 -0.7671  1.4523  0.2634
   74SLPC   H7S 6573   2.417   4.788   9.636  1.6490  1.3408  1.7174
   74SLPC   C28 6574   2.333   4.986   9.547 -0.1827 -0.0484 -0.1826
   74SLPC   H8R 6575   2.254   5.053   9.588 -2.6789 -2.2373 -1.0932
   74SLPC   H8S 6576   2.285   4.953   9.452 -0.4874  2.6567 -1.0452
   74SLPC   C29 6577   2.460   5.065   9.520  0.5163 -0.0548  0.8294
   74SLPC   H9R 6578   2.520   5.072   9.612 -0.2267  1.4642  1.2309
   74SLPC  C210 6579   2.504   5.108   9.401 -0.2047 -0.0887  0.5220
   74SLPC  H10R 6580   2.601   5.159   9.393 -0.3874  0.6324  2.3537
   74SLPC  C211 6581   2.435   5.078   9.272  0.1304 -0.6220 -0.2253
   74SLPC  H11R 6582   2.334   5.122   9.286  0.1507 -0.8608  0.7348
   74SLPC  H11S 6583   2.426   4.968   9.260 -0.2760 -0.6887  0.6259
   74SLPC  C212 6584   2.499   5.142   9.150 -0.3281 -0.5687 -0.0831
   74SLPC  H12R 6585   2.609   5.133   9.138 -0.3354 -0.6734 -0.0773
   74SLPC  C213 6586   2.445   5.205   9.045 -0.1719  0.0440  1.2460
   74SLPC  H13R 6587   2.519   5.237   8.970 -0.8217  0.7757  0.8984
   74SLPC  C214 6588   2.297   5.246   9.028 -0.3510  0.2741  0.8236
   74SLPC  H14R 6589   2.288   5.349   8.987 -1.8796 -1.0607 -2.6805
   74SLPC  H14S 6590   2.235   5.238   9.119 -1.4622 -0.7763  0.0062
   74SLPC  C215 6591   2.220   5.151   8.931 -0.0472  0.2363 -0.0343
   74SLPC  H15R 6592   2.253   5.189   8.832 -0.3236  1.3897  0.2917
   74SLPC  H15S 6593   2.111   5.171   8.947 -0.1783 -0.9972  0.6989
   74SLPC  C216 6594   2.236   4.994   8.943 -0.3131 -0.1378 -0.4378
   74SLPC  H16R 6595   2.209   4.962   9.046 -1.8627  0.4853 -0.6225
   74SLPC  H16S 6596   2.338   4.955   8.924  0.0650 -0.1134  1.3393
   74SLPC  C217 6597   2.128   4.915   8.862 -0.1788 -0.2220 -0.0964
   74SLPC  H17R 6598   2.024   4.945   8.887 -0.2117 -1.1757  1.0072
   74SLPC  H17S 6599   2.134   4.805   8.878  0.2292 -0.5806 -2.4191
   74SLPC  C218 6600   2.153   4.945   8.708 -0.1649 -0.0734  0.1599
   74SLPC  H18R 6601   2.125   5.050   8.683 -1.6468 -0.4671  0.0909
   74SLPC  H18S 6602   2.089   4.872   8.655  0.0781 -0.8146  0.8744
   74SLPC  H18T 6603   2.259   4.915   8.695 -0.0883 -0.4019  1.4452
   74SLPC   C33 6604   2.137   4.515  10.136  0.5912  0.4853  0.2344
   74SLPC   H3X 6605   2.184   4.416  10.151 -2.1174 -0.6202  2.4471
   74SLPC   H3Y 6606   2.211   4.597  10.128  2.3137 -0.8047  2.2030
   74SLPC   C34 6607   2.058   4.501  10.003 -0.5637 -0.7127  0.1055
   74SLPC   H4X 6608   1.997   4.594   9.994  0.7747  0.4092  1.9472
   74SLPC   H4Y 6609   2.000   4.408  10.018 -1.9187  0.3190  1.5354
   74SLPC   C35 6610   2.155   4.492   9.880  0.2877 -0.9661  0.4080
   74SLPC   H5X 6611   2.171   4.385   9.856 -0.4586 -0.6552 -1.6513
   74SLPC   H5Y 6612   2.248   4.551   9.897  0.6473 -0.9206 -1.5679
   74SLPC   C36 6613   2.095   4.549   9.747  0.9974  0.4657  0.3884
   74SLPC   H6X 6614   2.087   4.659   9.760  1.3378  0.4845  0.4643
   74SLPC   H6Y 6615   1.998   4.495   9.754  1.3898 -0.3317 -0.2375
   74SLPC   C37 6616   2.177   4.520   9.617  0.1660 -0.1015 -0.5315
   74SLPC   H7X 6617   2.190   4.410   9.608 -0.4767 -0.2349  0.0356
   74SLPC   H7Y 6618   2.269   4.582   9.620 -1.3366  2.2957 -1.0716
   74SLPC   C38 6619   2.098   4.566   9.487 -0.4901  0.0501  0.3048
   74SLPC   H8X 6620   2.060   4.669   9.504  3.2251  1.4488  1.0773
   74SLPC   H8Y 6621   2.013   4.495   9.487  0.0054 -0.5903  1.9934
   74SLPC   C39 6622   2.171   4.551   9.351 -0.0120  0.2476  0.2415
   74SLPC   H9X 6623   2.253   4.477   9.348  1.0634  1.3979  0.1613
   74SLPC   H9Y 6624   2.213   4.653   9.333 -2.1358  1.2455  0.5824
   74SLPC  C310 6625   2.075   4.528   9.234 -0.1897  0.1268 -0.5759
   74SLPC  H10X 6626   2.018   4.619   9.205 -2.1258 -0.8907 -0.1493
   74SLPC  H10Y 6627   2.002   4.452   9.268 -0.5884  1.5694  2.0134
   74SLPC  C311 6628   2.132   4.450   9.108  0.0461 -1.2019  0.2915
   74SLPC  H11X 6629   2.051   4.437   9.033  1.0711 -3.6661 -0.4833
   74SLPC  H11Y 6630   2.166   4.348   9.136  0.4238 -0.6538  1.9394
   74SLPC  C312 6631   2.247   4.521   9.030  0.4898  0.4391  0.9984
   74SLPC  H12X 6632   2.341   4.515   9.089 -0.0622  3.0156  2.2802
   74SLPC  H12Y 6633   2.207   4.624   9.014  0.0523  0.0025 -1.0151
   74SLPC  C313 6634   2.264   4.453   8.890  0.6194 -0.5382 -0.3591
   74SLPC  H13X 6635   2.327   4.517   8.825 -1.1596 -0.0320 -1.6569
   74SLPC  H13Y 6636   2.166   4.460   8.838 -0.3283  2.6289  1.5408
   74SLPC  C314 6637   2.322   4.315   8.899 -0.4984  0.8109  0.3179
   74SLPC  H14X 6638   2.249   4.245   8.945  0.9867 -0.5156  0.7348
   74SLPC  H14Y 6639   2.415   4.324   8.959  0.5020  1.2731 -1.2496
   74SLPC  C315 6640   2.359   4.245   8.763 -0.8767 -0.1672 -0.0437
   74SLPC  H15X 6641   2.398   4.145   8.789 -0.0541 -0.3261 -1.7429
   74SLPC  H15Y 6642   2.441   4.299   8.710 -1.3024 -0.3272 -0.8772
   74SLPC  C316 6643   2.248   4.236   8.660 -0.5090  0.2994 -0.0580
   74SLPC  H16X 6644   2.203   4.331   8.624  0.4226  0.2697 -1.3733
   74SLPC  H16Y 6645   2.166   4.178   8.708  1.0452 -1.0699  1.0712
   74SLPC  C317 6646   2.292   4.148   8.537 -0.3216 -0.3060 -0.1333
   74SLPC  H17X 6647   2.379   4.179   8.476  0.4182 -1.9285  0.0389
   74SLPC  H17Y 6648   2.202   4.172   8.476  0.4922  3.6276 -0.0275
   74SLPC  C318 6649   2.305   4.001   8.554 -0.8430 -0.0457  0.1113
   74SLPC  H18X 6650   2.207   3.951   8.570 -1.4712  0.6239 -1.3928
   74SLPC  H18Y 6651   2.360   3.970   8.645  0.1029 -1.4353 -0.8782
   74SLPC  H18Z 6652   2.361   3.949   8.473 -2.4473 -0.4414 -0.8040
   75SLPC     N 6653   5.912   4.103   6.598 -0.0709 -0.1744  0.1803
   75SLPC   C13 6654   5.999   4.189   6.675  0.3463  0.0913 -1.0486
   75SLPC  H13A 6655   6.097   4.196   6.630  1.0731 -0.9217  0.2794
   75SLPC  H13B 6656   5.960   4.289   6.677 -0.7449 -0.2089 -3.5386
   75SLPC  H13C 6657   6.010   4.157   6.778  1.5702  1.3127 -0.7664
   75SLPC   C14 6658   5.980   3.969   6.575  0.1810 -0.1937 -0.3686
   75SLPC  H14A 6659   6.079   3.973   6.532  0.1634  0.5861 -0.3406
   75SLPC  H14B 6660   5.988   3.912   6.667 -1.9406 -1.1271 -0.6816
   75SLPC  H14C 6661   5.927   3.905   6.506  2.7570 -2.8008 -0.1189
   75SLPC   C15 6662   5.888   4.172   6.466 -0.0098  0.4135  0.1675
   75SLPC  H15A 6663   5.816   4.120   6.405  1.4385 -1.0913 -0.3044
   75SLPC  H15B 6664   5.854   4.270   6.497  1.0382  0.4954  1.1180
   75SLPC  H15C 6665   5.974   4.184   6.402  0.2316 -2.5680 -0.2131
   75SLPC   C12 6666   5.783   4.084   6.675  0.4956 -0.9762 -0.2643
   75SLPC  H12A 6667   5.746   4.176   6.717 -1.9435 -2.0661  0.1579
   75SLPC  H12B 6668   5.813   4.027   6.762  0.1628 -1.5861 -0.5374
   75SLPC   C11 6669   5.657   4.015   6.612 -0.2655 -0.2091 -0.3120
   75SLPC  H11A 6670   5.610   4.094   6.550  0.8756  1.6015  1.0353
   75SLPC  H11B 6671   5.582   3.995   6.691  0.6252  2.9653  1.4996
   75SLPC     P 6672   5.675   3.754   6.586  0.1346  0.0859  0.2983
   75SLPC   O13 6673   5.530   3.735   6.627  0.6894  0.8378 -0.0079
   75SLPC   O14 6674   5.730   3.646   6.500 -0.3040  0.1378  0.1150
   75SLPC   O12 6675   5.690   3.900   6.531 -0.3885 -0.1676 -0.4968
   75SLPC   O11 6676   5.761   3.770   6.720 -0.2799 -0.2860 -0.3336
   75SLPC    C1 6677   5.865   3.673   6.756  0.7928  0.6980 -0.2192
   75SLPC    HA 6678   5.927   3.653   6.666  0.0156  2.3386 -1.1720
   75SLPC    HB 6679   5.922   3.709   6.845  0.0430  0.7556  0.2460
   75SLPC    C2 6680   5.792   3.540   6.795  0.1351 -0.6991  0.6307
   75SLPC    HS 6681   5.739   3.507   6.703 -0.0530  1.5198 -0.0985
   75SLPC   O21 6682   5.704   3.578   6.904  0.1692  0.5108 -0.2446
   75SLPC   C21 6683   5.610   3.487   6.919  0.4614 -1.2187 -0.4271
   75SLPC   O22 6684   5.600   3.383   6.860  0.3538  0.1951  0.0189
   75SLPC   C22 6685   5.506   3.548   7.015 -0.1117 -0.2282 -0.8542
   75SLPC   H2R 6686   5.572   3.599   7.087 -1.4990  0.5559 -0.0978
   75SLPC   H2S 6687   5.450   3.627   6.961  0.9299  2.0782  1.2544
   75SLPC    C3 6688   5.887   3.422   6.835 -0.3403  0.0134  0.5566
   75SLPC    HX 6689   5.969   3.409   6.762 -0.1266  0.0775  0.7870
   75SLPC    HY 6690   5.828   3.328   6.829 -1.3416  0.6053  0.7638
   75SLPC   O31 6691   5.931   3.428   6.971  0.4238 -0.0999  0.1039
   75SLPC   C31 6692   6.051   3.480   6.991 -0.2878 -0.1311 -0.1846
   75SLPC   O32 6693   6.118   3.537   6.901  0.0245  0.0645  0.0356
   75SLPC   C32 6694   6.072   3.480   7.143  0.2813  0.4792 -0.5215
   75SLPC   H2X 6695   6.073   3.375   7.180  0.5561 -0.0508 -1.9781
   75SLPC   H2Y 6696   5.981   3.531   7.182  0.5262 -0.1635  0.9633
   75SLPC   C23 6697   5.406   3.438   7.072 -0.5170 -0.4388  0.2487
   75SLPC   H3R 6698   5.478   3.365   7.114  0.5958  0.8047  0.5736
   75SLPC   H3S 6699   5.345   3.393   6.990  0.1153 -1.9379  0.5615
   75SLPC   C24 6700   5.333   3.489   7.191 -0.3533  0.2525 -0.1885
   75SLPC   H4R 6701   5.264   3.576   7.179  1.3476  1.4001 -2.3212
   75SLPC   H4S 6702   5.411   3.520   7.264 -0.6428  0.8544 -0.1274
   75SLPC   C25 6703   5.244   3.383   7.263 -0.2083  0.7619  0.7356
   75SLPC   H5R 6704   5.295   3.284   7.263 -3.3150 -0.9882  1.5759
   75SLPC   H5S 6705   5.149   3.379   7.206  0.5391  2.9368 -0.7578
   75SLPC   C26 6706   5.205   3.419   7.405  0.0196 -0.4990  0.4310
   75SLPC   H6R 6707   5.132   3.503   7.398 -0.8736 -1.2649  0.4592
   75SLPC   H6S 6708   5.298   3.445   7.461  1.3502 -2.6100 -0.7028
   75SLPC   C27 6709   5.132   3.306   7.481  0.1545  0.2436 -0.4723
   75SLPC   H7R 6710   5.197   3.216   7.485  0.9139  0.6573 -2.3640
   75SLPC   H7S 6711   5.046   3.276   7.417  1.1591 -1.6485 -1.0053
   75SLPC   C28 6712   5.062   3.348   7.616  0.0918 -0.0471  0.4316
   75SLPC   H8R 6713   5.016   3.258   7.664  0.6066  0.6503  2.3026
   75SLPC   H8S 6714   4.985   3.414   7.571  0.2971 -2.0607 -3.3380
   75SLPC   C29 6715   5.146   3.411   7.719  0.1898  0.2147  0.2783
   75SLPC   H9R 6716   5.149   3.521   7.721  1.4904  0.1795  1.7715
   75SLPC  C210 6717   5.205   3.354   7.829 -0.0335 -0.3945  0.1301
   75SLPC  H10R 6718   5.261   3.409   7.906  0.1214 -1.2863  0.6621
   75SLPC  C211 6719   5.188   3.211   7.864  0.0598  0.6826 -0.1890
   75SLPC  H11R 6720   5.205   3.133   7.788 -0.6840  0.4820 -0.1602
   75SLPC  H11S 6721   5.077   3.205   7.876  0.2535 -0.2031  1.3977
   75SLPC  C212 6722   5.263   3.169   7.993 -0.1904  0.2803 -0.4531
   75SLPC  H12R 6723   5.368   3.202   7.995 -1.1006  3.5348  2.4912
   75SLPC  C213 6724   5.208   3.117   8.103 -0.4554  0.1206 -0.4430
   75SLPC  H13R 6725   5.284   3.120   8.182  0.7567  1.5395 -1.5881
   75SLPC  C214 6726   5.066   3.081   8.131  0.2304  0.0523 -0.0823
   75SLPC  H14R 6727   5.034   2.984   8.088  0.4197 -1.3867  2.8443
   75SLPC  H14S 6728   5.004   3.162   8.086  1.9985  0.8035 -1.2698
   75SLPC  C215 6729   5.056   3.070   8.281 -0.8964  0.3648 -0.0392
   75SLPC  H15R 6730   5.101   3.161   8.327 -2.2385  1.5263 -0.9551
   75SLPC  H15S 6731   5.108   2.978   8.315 -1.6765 -1.4523 -3.3728
   75SLPC  C216 6732   4.911   3.065   8.347 -0.4049 -0.2479 -0.1077
   75SLPC  H16R 6733   4.911   3.069   8.458  1.1017  0.5995 -0.1004
   75SLPC  H16S 6734   4.875   2.962   8.327  3.0829 -2.0834  1.9371
   75SLPC  C217 6735   4.810   3.171   8.301 -1.1320 -0.1978  0.2220
   75SLPC  H17R 6736   4.816   3.186   8.191  1.6980  0.9764  0.4505
   75SLPC  H17S 6737   4.851   3.270   8.331  0.1423  0.2186 -2.5919
   75SLPC  C218 6738   4.673   3.165   8.370 -0.4210 -0.8464 -0.0954
   75SLPC  H18R 6739   4.610   3.251   8.337 -0.5193 -0.8451  0.0969
   75SLPC  H18S 6740   4.690   3.167   8.480 -1.1370 -1.0612  0.0245
   75SLPC  H18T 6741   4.610   3.073   8.361 -1.5671 -0.2022  1.0373
   75SLPC   C33 6742   6.176   3.573   7.189  0.3801 -0.3370 -0.4005
   75SLPC   H3X 6743   6.271   3.565   7.133  0.9329 -0.6411  0.5483
   75SLPC   H3Y 6744   6.135   3.675   7.175  0.3053 -0.3653 -0.3881
   75SLPC   C34 6745   6.198   3.557   7.343 -0.3841  0.4154  0.4333
   75SLPC   H4X 6746   6.097   3.581   7.382 -1.1008  0.3568 -1.3108
   75SLPC   H4Y 6747   6.269   3.637   7.374  1.5741 -1.4427  0.9800
   75SLPC   C35 6748   6.251   3.424   7.411 -0.1487  0.1461  0.3609
   75SLPC   H5X 6749   6.357   3.401   7.388 -0.1144 -0.6144  1.2346
   75SLPC   H5Y 6750   6.182   3.339   7.393 -0.1342  0.2836 -0.3864
   75SLPC   C36 6751   6.261   3.449   7.570 -0.2486 -0.3260  0.9604
   75SLPC   H6X 6752   6.316   3.543   7.592  2.2352 -1.2855 -0.6599
   75SLPC   H6Y 6753   6.322   3.366   7.610 -0.1347 -1.2490 -1.0036
   75SLPC   C37 6754   6.123   3.448   7.628  0.2277 -0.6044 -0.6111
   75SLPC   H7X 6755   6.056   3.390   7.561 -0.8072 -1.0880  0.8000
   75SLPC   H7Y 6756   6.088   3.552   7.615  0.0684 -0.8571 -2.5778
   75SLPC   C38 6757   6.117   3.410   7.774  0.8696  0.3920 -0.1839
   75SLPC   H8X 6758   6.214   3.431   7.824 -0.0814  1.3798  1.3350
   75SLPC   H8Y 6759   6.096   3.301   7.787  0.4204  0.6510  1.5164
   75SLPC   C39 6760   5.997   3.481   7.842  0.1559 -0.4734  0.1234
   75SLPC   H9X 6761   5.899   3.438   7.811  0.0880 -0.8096  0.7748
   75SLPC   H9Y 6762   6.000   3.590   7.821  0.2330 -0.2628  1.1444
   75SLPC  C310 6763   5.999   3.462   7.992  0.2806 -0.1638  0.1074
   75SLPC  H10X 6764   6.092   3.510   8.031  0.3744  0.3867 -0.7605
   75SLPC  H10Y 6765   6.001   3.355   8.020  0.4105 -0.5525 -1.3014
   75SLPC  C311 6766   5.879   3.516   8.074  0.4556 -0.6739 -0.3977
   75SLPC  H11X 6767   5.788   3.471   8.028  0.2640  0.8112 -1.5584
   75SLPC  H11Y 6768   5.869   3.625   8.054  0.7022 -0.3856  0.9946
   75SLPC  C312 6769   5.894   3.492   8.227 -0.3399  0.4059  0.1245
   75SLPC  H12X 6770   5.961   3.574   8.262  2.1087 -0.9141 -1.2618
   75SLPC  H12Y 6771   5.954   3.402   8.253 -0.5557  1.0322  3.1574
   75SLPC  C313 6772   5.764   3.491   8.306  0.3489 -0.0943 -0.1305
   75SLPC  H13X 6773   5.696   3.421   8.254 -1.7253  1.8960 -0.2240
   75SLPC  H13Y 6774   5.708   3.586   8.291  2.0121  0.7851 -1.0751
   75SLPC  C314 6775   5.792   3.447   8.450 -0.3947 -0.1189  0.4372
   75SLPC  H14X 6776   5.843   3.524   8.511 -0.8235 -0.2450  0.9630
   75SLPC  H14Y 6777   5.856   3.357   8.455  0.4885  0.5372  1.3389
   75SLPC  C315 6778   5.661   3.413   8.529  0.3731  1.1479  0.0186
   75SLPC  H15X 6779   5.596   3.502   8.545  1.2381  1.5245  1.8011
   75SLPC  H15Y 6780   5.699   3.402   8.633  3.1838 -0.8528 -1.1027
   75SLPC  C316 6781   5.598   3.289   8.488  0.4599  0.2458 -0.1472
   75SLPC  H16X 6782   5.679   3.227   8.445 -1.6045 -2.0233 -0.9675
   75SLPC  H16Y 6783   5.531   3.303   8.400 -0.4501 -0.3482  0.4342
   75SLPC  C317 6784   5.519   3.215   8.589  0.3557  0.8967 -0.1801
   75SLPC  H17X 6785   5.441   3.280   8.635 -0.4783 -0.0440 -0.2304
   75SLPC  H17Y 6786   5.588   3.184   8.670  0.6653  0.8587 -0.4578
   75SLPC  C318 6787   5.457   3.081   8.524 -0.6923 -0.2325  0.2768
   75SLPC  H18X 6788   5.403   3.095   8.428  0.0489  1.6489  0.0809
   75SLPC  H18Y 6789   5.391   3.028   8.596  0.4036 -1.8137  0.1710
   75SLPC  H18Z 6790   5.540   3.010   8.502 -0.8800 -0.0845 -0.9708
   76SLPC     N 6791   1.568   2.122   6.280  0.8212 -0.2181  0.4549
   76SLPC   C13 6792   1.700   2.151   6.215 -0.7027  0.0219 -0.4591
   76SLPC  H13A 6793   1.777   2.111   6.280 -0.9872 -0.4451 -0.4026
   76SLPC  H13B 6794   1.716   2.103   6.120  1.3401  1.4832 -0.9346
   76SLPC  H13C 6795   1.712   2.258   6.205 -0.2808  0.1276  0.8931
   76SLPC   C14 6796   1.540   1.975   6.265 -0.0242 -0.7210 -0.5754
   76SLPC  H14A 6797   1.605   1.908   6.320 -0.4727  0.3272  1.3349
   76SLPC  H14B 6798   1.440   1.958   6.301 -0.4157  2.0696 -0.1000
   76SLPC  H14C 6799   1.544   1.949   6.160  0.7588 -0.6283 -0.5794
   76SLPC   C15 6800   1.458   2.189   6.205  0.7672  0.2970 -0.5605
   76SLPC  H15A 6801   1.359   2.167   6.242  0.2901  1.4879 -1.0678
   76SLPC  H15B 6802   1.464   2.297   6.211 -1.4516  0.4048  0.9843
   76SLPC  H15C 6803   1.457   2.156   6.102 -0.9260 -1.0178 -0.1593
   76SLPC   C12 6804   1.578   2.166   6.428  0.3053  1.0385 -0.3893
   76SLPC  H12A 6805   1.489   2.139   6.481  0.8815  1.7837  1.0088
   76SLPC  H12B 6806   1.583   2.274   6.433  1.2195  0.9714  3.8921
   76SLPC   C11 6807   1.693   2.111   6.513 -0.2984 -0.5133  0.7725
   76SLPC  H11A 6808   1.683   2.000   6.508 -0.0150 -0.5197  0.2570
   76SLPC  H11B 6809   1.668   2.143   6.616 -1.5929  3.3255 -0.5478
   76SLPC     P 6810   1.949   2.075   6.495 -0.1865  0.1978 -0.1437
   76SLPC   O13 6811   1.934   1.968   6.389 -0.1274 -0.2844 -0.3765
   76SLPC   O14 6812   2.067   2.157   6.491 -0.2041 -0.2553 -0.7598
   76SLPC   O12 6813   1.818   2.163   6.478 -0.7384  0.2989 -0.7751
   76SLPC   O11 6814   1.938   2.014   6.646 -0.6625  0.1969  0.6865
   76SLPC    C1 6815   1.972   2.086   6.762 -0.2324  0.8857  0.2474
   76SLPC    HA 6816   2.073   2.056   6.796 -0.4651  0.0592  0.2249
   76SLPC    HB 6817   1.978   2.195   6.740  0.2414  0.6191 -1.0663
   76SLPC    C2 6818   1.864   2.050   6.872 -0.1028 -0.2514  0.0754
   76SLPC    HS 6819   1.769   2.095   6.835 -0.5298 -1.1654  0.0437
   76SLPC   O21 6820   1.909   2.100   7.007  0.3459  0.0765 -0.2051
   76SLPC   C21 6821   1.915   2.231   7.022 -1.0096  0.0429  0.4748
   76SLPC   O22 6822   1.867   2.314   6.943  0.2052 -0.0128  0.4408
   76SLPC   C22 6823   1.989   2.256   7.149 -0.4049 -0.2151  0.5213
   76SLPC   H2R 6824   2.039   2.161   7.180  0.8315 -1.2185 -3.8133
   76SLPC   H2S 6825   2.060   2.338   7.124 -0.0854 -0.8187 -0.6436
   76SLPC    C3 6826   1.847   1.897   6.870  0.5178  0.1769 -0.1135
   76SLPC    HX 6827   1.941   1.849   6.906  0.1231  0.5939  1.5260
   76SLPC    HY 6828   1.818   1.850   6.773  0.6037 -0.3720  0.1190
   76SLPC   O31 6829   1.755   1.856   6.967 -0.0896 -0.2517  0.7174
   76SLPC   C31 6830   1.635   1.810   6.941  0.3013 -0.4412 -0.1216
   76SLPC   O32 6831   1.585   1.800   6.832 -0.3190 -0.0513 -1.1060
   76SLPC   C32 6832   1.572   1.750   7.083 -0.5532 -0.3153 -0.0750
   76SLPC   H2X 6833   1.654   1.711   7.147 -0.8194 -2.1200 -0.7798
   76SLPC   H2Y 6834   1.506   1.666   7.052  0.3225 -1.6829  1.6396
   76SLPC   C23 6835   1.892   2.300   7.259 -0.6492  0.1276  0.4780
   76SLPC   H3R 6836   1.818   2.223   7.290  0.6996 -0.6764  1.7740
   76SLPC   H3S 6837   1.843   2.395   7.228 -0.9527 -0.0434  0.4247
   76SLPC   C24 6838   1.963   2.303   7.392  0.5458  0.3047  0.8036
   76SLPC   H4R 6839   2.055   2.364   7.379  0.1716  0.9555  1.1134
   76SLPC   H4S 6840   1.990   2.201   7.427  0.5631  0.2788  0.7143
   76SLPC   C25 6841   1.868   2.359   7.504  0.5382 -0.1181  0.6131
   76SLPC   H5R 6842   1.763   2.325   7.494 -0.8258  2.5217  3.9374
   76SLPC   H5S 6843   1.856   2.469   7.492 -1.6760 -0.1347  2.1887
   76SLPC   C26 6844   1.937   2.324   7.639  0.4408  0.7153 -0.0799
   76SLPC   H6R 6845   1.984   2.224   7.627 -1.0562 -0.0464  0.1376
   76SLPC   H6S 6846   1.858   2.326   7.716  1.7438  1.5317  1.2952
   76SLPC   C27 6847   2.038   2.431   7.693 -0.0043 -0.4885 -0.8959
   76SLPC   H7R 6848   1.981   2.526   7.697  3.3268  1.6900 -0.7078
   76SLPC   H7S 6849   2.116   2.455   7.617  2.0240  1.2375  1.5452
   76SLPC   C28 6850   2.084   2.390   7.830  0.1831 -0.9657  0.1275
   76SLPC   H8R 6851   1.996   2.382   7.898 -1.1971  0.9778 -1.2930
   76SLPC   H8S 6852   2.134   2.291   7.827  1.6222 -0.2485 -0.3293
   76SLPC   C29 6853   2.175   2.496   7.880  0.6195 -0.0765  0.0052
   76SLPC   H9R 6854   2.230   2.551   7.802 -3.1892  2.8883 -0.9066
   76SLPC  C210 6855   2.182   2.545   8.007  0.3327 -0.0583  0.4486
   76SLPC  H10R 6856   2.261   2.615   8.036  1.4004 -1.6117  1.4473
   76SLPC  C211 6857   2.124   2.477   8.124 -0.2592  0.2476  0.0773
   76SLPC  H11R 6858   2.139   2.367   8.119 -1.0019  0.1031  0.8401
   76SLPC  H11S 6859   2.014   2.487   8.123 -0.1409  1.7636 -0.2711
   76SLPC  C212 6860   2.166   2.519   8.264  0.1788  0.7680  0.1452
   76SLPC  H12R 6861   2.110   2.601   8.312  1.2277  2.7654 -1.8125
   76SLPC  C213 6862   2.270   2.462   8.329 -0.3101 -0.1379 -0.4582
   76SLPC  H13R 6863   2.291   2.494   8.433 -1.7003  1.3855 -0.6048
   76SLPC  C214 6864   2.362   2.356   8.281 -0.1490 -0.3615  0.0704
   76SLPC  H14R 6865   2.453   2.405   8.240  0.5667 -0.9064  0.9517
   76SLPC  H14S 6866   2.311   2.301   8.200  1.7351 -2.8971  0.4592
   76SLPC  C215 6867   2.397   2.241   8.379 -0.1687  0.1292  0.0588
   76SLPC  H15R 6868   2.318   2.163   8.377  2.2583 -2.5084 -0.8975
   76SLPC  H15S 6869   2.400   2.282   8.482  0.8219  0.3463 -0.0399
   76SLPC  C216 6870   2.524   2.158   8.348  0.7995 -0.4079  0.5630
   76SLPC  H16R 6871   2.608   2.227   8.370 -0.8503  1.3847  1.5392
   76SLPC  H16S 6872   2.535   2.114   8.247  1.6371 -0.1883  0.5551
   76SLPC  C217 6873   2.544   2.040   8.448 -0.2788  0.6347 -0.3235
   76SLPC  H17R 6874   2.646   2.003   8.424  0.6327  2.2277  0.8841
   76SLPC  H17S 6875   2.470   1.960   8.426 -1.6904  1.3941  1.3677
   76SLPC  C218 6876   2.543   2.073   8.599  0.4102  0.2950 -0.2405
   76SLPC  H18R 6877   2.617   2.012   8.656  1.7176  0.3941 -1.7719
   76SLPC  H18S 6878   2.440   2.049   8.633  0.3124 -1.6481 -1.7901
   76SLPC  H18T 6879   2.569   2.177   8.630  1.5268 -0.7384  2.6031
   76SLPC   C33 6880   1.484   1.847   7.174  0.0760  0.7555  0.1722
   76SLPC   H3X 6881   1.456   1.797   7.269 -0.5687 -2.3539 -1.5308
   76SLPC   H3Y 6882   1.396   1.894   7.124  0.1580  0.3052 -0.4088
   76SLPC   C34 6883   1.569   1.971   7.200 -0.5879 -0.4308 -0.1968
   76SLPC   H4X 6884   1.508   2.063   7.212  0.1010  0.0729 -0.4972
   76SLPC   H4Y 6885   1.626   1.995   7.107  1.7167 -1.5530  0.8498
   76SLPC   C35 6886   1.684   1.945   7.303  0.0428  0.5961  0.8310
   76SLPC   H5X 6887   1.752   2.032   7.306  0.1970  0.4732  0.9494
   76SLPC   H5Y 6888   1.757   1.865   7.281  0.5850  1.1837  0.4810
   76SLPC   C36 6889   1.631   1.936   7.454  0.4229  0.0775 -0.1497
   76SLPC   H6X 6890   1.565   1.847   7.452 -0.4619  0.6069 -4.0165
   76SLPC   H6Y 6891   1.572   2.024   7.487 -2.5086 -1.3984 -1.0901
   76SLPC   C37 6892   1.732   1.907   7.566  0.3568  0.0467 -0.1752
   76SLPC   H7X 6893   1.802   1.991   7.583 -0.5298  0.8446 -0.3705
   76SLPC   H7Y 6894   1.786   1.817   7.530  1.0690  1.0285 -1.6336
   76SLPC   C38 6895   1.665   1.873   7.704 -0.4487 -0.2067  0.3446
   76SLPC   H8X 6896   1.582   1.801   7.691  0.5835 -1.0125 -2.4992
   76SLPC   H8Y 6897   1.621   1.971   7.735 -2.4220 -0.7697 -0.5350
   76SLPC   C39 6898   1.765   1.819   7.811 -0.5273 -0.1130  0.4944
   76SLPC   H9X 6899   1.830   1.900   7.852  1.6720 -0.4431 -2.0435
   76SLPC   H9Y 6900   1.831   1.747   7.757 -0.1010  0.3177  0.4341
   76SLPC  C310 6901   1.697   1.771   7.942 -0.3839  0.4130  0.6824
   76SLPC  H10X 6902   1.642   1.680   7.912 -1.0318  0.9337  0.2785
   76SLPC  H10Y 6903   1.615   1.832   7.986 -0.0238  1.1876  0.2977
   76SLPC  C311 6904   1.793   1.744   8.055  0.4124 -0.0225 -0.3937
   76SLPC  H11X 6905   1.846   1.837   8.082 -0.0110  0.2513 -0.4904
   76SLPC  H11Y 6906   1.858   1.660   8.022 -0.4956 -1.9416  2.3076
   76SLPC  C312 6907   1.716   1.701   8.178  0.8453  0.7823 -0.4688
   76SLPC  H12X 6908   1.620   1.660   8.140  1.9072  0.8410 -3.4581
   76SLPC  H12Y 6909   1.693   1.793   8.236 -0.4443  0.1932  0.0027
   76SLPC  C313 6910   1.780   1.610   8.290 -0.5150  0.5144 -0.2572
   76SLPC  H13X 6911   1.883   1.640   8.321 -1.1202  1.1322  1.2327
   76SLPC  H13Y 6912   1.793   1.506   8.251  3.4001 -0.1412  2.1936
   76SLPC  C314 6913   1.701   1.595   8.413  0.4486 -0.4246  0.3174
   76SLPC  H14X 6914   1.695   1.697   8.457 -1.4669 -0.4178  0.1083
   76SLPC  H14Y 6915   1.756   1.534   8.488  1.8550  0.0669 -0.2680
   76SLPC  C315 6916   1.550   1.551   8.403 -0.4366 -0.2602 -0.2191
   76SLPC  H15X 6917   1.562   1.448   8.363  0.8097 -0.3345  0.3116
   76SLPC  H15Y 6918   1.490   1.600   8.323  0.5435 -0.3292 -1.0196
   76SLPC  C316 6919   1.467   1.550   8.536  0.1148  0.0346  1.0751
   76SLPC  H16X 6920   1.538   1.527   8.617  0.4601 -1.9386  0.2855
   76SLPC  H16Y 6921   1.385   1.475   8.535 -0.1022  0.2716  0.6709
   76SLPC  C317 6922   1.407   1.680   8.580  0.5275 -0.3808  0.9874
   76SLPC  H17X 6923   1.351   1.719   8.492  0.3274  1.5199  1.9047
   76SLPC  H17Y 6924   1.475   1.762   8.610  0.2447  0.6439 -0.9828
   76SLPC  C318 6925   1.307   1.660   8.694  0.6298 -0.1421  0.6406
   76SLPC  H18X 6926   1.239   1.574   8.670  1.5498 -0.0854 -2.7663
   76SLPC  H18Y 6927   1.243   1.749   8.711 -0.1555 -0.0058 -2.4360
   76SLPC  H18Z 6928   1.356   1.626   8.787 -1.9350 -0.9737  1.7893
   77SLPC     N 6929   2.851   0.193   6.402  0.2838 -0.1859  0.4546
   77SLPC   C13 6930   2.975   0.261   6.347  0.1076  0.8830 -0.4611
   77SLPC  H13A 6931   3.007   0.227   6.250  2.8487 -1.3517  1.1015
   77SLPC  H13B 6932   2.959   0.366   6.324 -0.3483  0.7660 -0.6892
   77SLPC  H13C 6933   3.053   0.254   6.421 -0.2839  2.3271  0.1432
   77SLPC   C14 6934   2.865   0.051   6.360 -0.6123 -1.1056 -0.3180
   77SLPC  H14A 6935   2.953   0.000   6.398 -1.1245 -1.5974  0.2276
   77SLPC  H14B 6936   2.774   0.000   6.388 -0.0128 -1.6023  0.7960
   77SLPC  H14C 6937   2.868   0.040   6.252 -0.2876  0.1071 -0.4490
   77SLPC   C15 6938   2.738   0.244   6.313  0.6117 -0.3334 -0.9164
   77SLPC  H15A 6939   2.730   0.200   6.215 -0.3660  0.0563 -1.0246
   77SLPC  H15B 6940   2.645   0.215   6.361  1.3644  0.1146  0.9037
   77SLPC  H15C 6941   2.739   0.352   6.310 -1.8463 -0.0593  2.0757
   77SLPC   C12 6942   2.827   0.212   6.548 -0.4193  0.9379 -1.5769
   77SLPC  H12A 6943   2.794   0.312   6.574  0.4449  0.7014  0.6442
   77SLPC  H12B 6944   2.912   0.194   6.611 -1.2944  0.8491 -0.3930
   77SLPC   C11 6945   2.712   0.122   6.603  0.3991 -0.0810 -0.0620
   77SLPC  H11A 6946   2.711   0.151   6.710 -1.0964  2.5462 -0.7021
   77SLPC  H11B 6947   2.723   0.015   6.573 -1.7495 -0.3392 -0.0737
   77SLPC     P 6948   2.517   0.302   6.579 -0.0413 -0.4965  0.1714
   77SLPC   O13 6949   2.609   0.413   6.596 -0.1258 -0.0420 -0.0004
   77SLPC   O14 6950   2.405   0.326   6.487 -0.0182  0.0732 -0.2194
   77SLPC   O12 6951   2.583   0.167   6.543 -0.0421  0.5126  1.0783
   77SLPC   O11 6952   2.464   0.270   6.719 -0.3353 -0.1608  0.1546
   77SLPC    C1 6953   2.354   0.179   6.731  0.1405  0.2448 -0.0023
   77SLPC    HA 6954   2.263   0.233   6.701  0.7485  1.4116  0.2041
   77SLPC    HB 6955   2.367   0.089   6.666 -0.5667  0.3353 -0.2748
   77SLPC    C2 6956   2.343   0.133   6.874 -0.3706  0.3522 -0.4046
   77SLPC    HS 6957   2.248   0.080   6.890  0.5465 -1.5601 -1.0364
   77SLPC   O21 6958   2.337   0.256   6.951 -0.0584  0.0587 -0.0757
   77SLPC   C21 6959   2.219   0.328   6.946 -0.5261 -0.1518  0.0074
   77SLPC   O22 6960   2.124   0.293   6.881  0.2497 -0.1032  0.2881
   77SLPC   C22 6961   2.238   0.463   7.021 -0.0739 -0.1733  0.6848
   77SLPC   H2R 6962   2.343   0.481   7.052 -0.0870  1.3960 -0.0446
   77SLPC   H2S 6963   2.220   0.535   6.938  1.8985 -0.7552 -0.3062
   77SLPC    C3 6964   2.449   0.038   6.927  0.6895 -0.0447 -0.6929
   77SLPC    HX 6965   2.547   0.089   6.917  0.0485  1.3074 -0.1908
   77SLPC    HY 6966   2.454  -0.056   6.867  0.1205  0.9760 -2.4180
   77SLPC   O31 6967   2.428   0.004   7.071 -0.5544 -0.4657  0.2560
   77SLPC   C31 6968   2.449   0.109   7.160 -0.8232  0.4732 -0.5676
   77SLPC   O32 6969   2.533   0.198   7.143 -0.0538 -0.3044 -0.4710
   77SLPC   C32 6970   2.354   0.092   7.277 -0.0374  0.6984 -0.0169
   77SLPC   H2X 6971   2.349  -0.017   7.300 -1.9050  0.8853  0.6646
   77SLPC   H2Y 6972   2.251   0.115   7.243 -0.6162 -2.0178 -0.3444
   77SLPC   C23 6973   2.139   0.496   7.132  0.3496 -0.1397 -0.2533
   77SLPC   H3R 6974   2.035   0.482   7.096  0.1427 -2.3113  1.0056
   77SLPC   H3S 6975   2.142   0.603   7.161  0.2508 -0.2733  0.2757
   77SLPC   C24 6976   2.153   0.416   7.264 -0.0283  0.2844  0.0707
   77SLPC   H4R 6977   2.257   0.423   7.302  0.0364 -1.1315  0.2212
   77SLPC   H4S 6978   2.128   0.310   7.241  1.1152  0.1875 -0.8172
   77SLPC   C25 6979   2.038   0.466   7.357 -0.2932  0.5135  0.4223
   77SLPC   H5R 6980   1.941   0.457   7.303  0.4107 -0.4630 -0.7331
   77SLPC   H5S 6981   2.050   0.575   7.371  0.0414  0.5109  0.1658
   77SLPC   C26 6982   2.021   0.401   7.491  0.6207 -0.1400 -0.4652
   77SLPC   H6R 6983   2.113   0.398   7.554  0.0816 -2.6329  0.2990
   77SLPC   H6S 6984   1.998   0.294   7.475 -0.5702 -0.3390  2.0302
   77SLPC   C27 6985   1.907   0.462   7.572  0.0127 -0.4777  0.1305
   77SLPC   H7R 6986   1.812   0.436   7.521 -0.0355 -1.3372  0.6384
   77SLPC   H7S 6987   1.906   0.572   7.555 -0.2477 -0.3248  1.0677
   77SLPC   C28 6988   1.890   0.451   7.722  0.0889 -0.3489 -0.6628
   77SLPC   H8R 6989   1.833   0.530   7.776  0.5292 -0.1690 -0.4492
   77SLPC   H8S 6990   1.993   0.474   7.758 -0.6998  1.7070  0.5048
   77SLPC   C29 6991   1.868   0.310   7.773  0.0304  0.5457 -0.3887
   77SLPC   H9R 6992   1.907   0.228   7.712  0.4050 -0.2595  0.8789
   77SLPC  C210 6993   1.786   0.284   7.875 -0.3877  0.2353  0.3293
   77SLPC  H10R 6994   1.775   0.179   7.907 -2.5936 -0.6858 -2.9050
   77SLPC  C211 6995   1.707   0.375   7.958 -0.2812  0.4110  0.6656
   77SLPC  H11R 6996   1.600   0.359   7.932  0.9137 -3.5177 -2.8567
   77SLPC  H11S 6997   1.736   0.481   7.944 -0.3905  0.5338  1.3317
   77SLPC  C212 6998   1.726   0.347   8.108  0.1737  0.1829  0.3264
   77SLPC  H12R 6999   1.828   0.363   8.146  0.5322 -0.4337 -0.3380
   77SLPC  C213 7000   1.644   0.291   8.198  0.7412 -0.4657  0.2481
   77SLPC  H13R 7001   1.679   0.281   8.302 -1.8415 -3.0974  1.0036
   77SLPC  C214 7002   1.502   0.241   8.157  0.0389 -0.6175 -0.3716
   77SLPC  H14R 7003   1.453   0.310   8.084 -0.0814 -1.7299 -1.3687
   77SLPC  H14S 7004   1.451   0.233   8.255  1.2178 -3.4641  0.1053
   77SLPC  C215 7005   1.500   0.098   8.101 -0.0163 -0.4112  0.5960
   77SLPC  H15R 7006   1.564   0.093   8.010  0.2224  0.8138  0.6844
   77SLPC  H15S 7007   1.401   0.074   8.055  0.7923 -1.3101 -0.7856
   77SLPC  C216 7008   1.530  -0.010   8.206 -0.2719 -0.4079  0.4959
   77SLPC  H16R 7009   1.627   0.020   8.253  0.2535  0.2297 -0.9396
   77SLPC  H16S 7010   1.546  -0.105   8.150  1.1129  1.1140 -1.8558
   77SLPC  C217 7011   1.411  -0.045   8.294 -0.2884 -0.7819 -0.7555
   77SLPC  H17R 7012   1.325  -0.088   8.238  0.3832 -0.5221 -2.0383
   77SLPC  H17S 7013   1.369   0.049   8.336  1.1799 -0.3108 -0.2913
   77SLPC  C218 7014   1.448  -0.135   8.417  0.0862 -0.3197  0.2907
   77SLPC  H18R 7015   1.508  -0.222   8.384 -0.9374 -0.7992 -0.3837
   77SLPC  H18S 7016   1.351  -0.173   8.457  0.4923 -0.5839  1.0493
   77SLPC  H18T 7017   1.506  -0.090   8.501 -1.9048  1.9741  0.5632
   77SLPC   C33 7018   2.392   0.165   7.405 -0.3154  0.3191 -0.2567
   77SLPC   H3X 7019   2.404   0.275   7.393 -0.2153  0.6325  2.2170
   77SLPC   H3Y 7020   2.490   0.138   7.449 -0.1251 -1.1496 -1.5169
   77SLPC   C34 7021   2.290   0.142   7.511 -0.5307 -0.4866 -0.2134
   77SLPC   H4X 7022   2.276   0.033   7.526 -2.1292 -0.3270 -0.3591
   77SLPC   H4Y 7023   2.197   0.191   7.477 -0.8487 -1.0786 -0.2008
   77SLPC   C35 7024   2.330   0.202   7.646 -0.2266 -0.3719 -0.4213
   77SLPC   H5X 7025   2.347   0.311   7.639  1.2724 -0.4281  1.4975
   77SLPC   H5Y 7026   2.423   0.154   7.685 -1.0655  0.6737  3.2730
   77SLPC   C36 7027   2.218   0.181   7.754 -0.9257 -0.0677  0.7102
   77SLPC   H6X 7028   2.200   0.073   7.772 -1.9956 -0.1199 -0.5111
   77SLPC   H6Y 7029   2.120   0.227   7.727 -0.4987  0.7620  0.5235
   77SLPC   C37 7030   2.271   0.229   7.892 -0.0881 -0.6246 -0.5850
   77SLPC   H7X 7031   2.317   0.329   7.885  0.8753 -1.0541 -0.4785
   77SLPC   H7Y 7032   2.347   0.166   7.943 -0.9360 -1.5474 -0.4047
   77SLPC   C38 7033   2.165   0.248   8.012  0.1200  0.2262 -0.8811
   77SLPC   H8X 7034   2.078   0.309   7.981 -1.1366 -0.4345  1.1562
   77SLPC   H8Y 7035   2.221   0.300   8.093 -0.6262  1.2956 -1.0326
   77SLPC   C39 7036   2.126   0.113   8.075 -0.4818  0.1588  0.7010
   77SLPC   H9X 7037   2.220   0.059   8.097 -0.8799  0.2529  2.8624
   77SLPC   H9Y 7038   2.078   0.062   7.989  1.7313  0.5926 -0.8678
   77SLPC  C310 7039   2.027   0.134   8.196 -0.3516 -0.8059  1.1104
   77SLPC  H10X 7040   1.929   0.184   8.176 -0.1814 -1.0708 -0.5117
   77SLPC  H10Y 7041   2.085   0.205   8.258 -1.0431  0.2790  0.5505
   77SLPC  C311 7042   2.002  -0.002   8.270  0.0521 -0.2081  0.4219
   77SLPC  H11X 7043   2.097  -0.060   8.262  0.4897  0.6136 -0.5137
   77SLPC  H11Y 7044   1.922  -0.064   8.224  2.0267 -1.6350 -1.2726
   77SLPC  C312 7045   1.980   0.016   8.416  0.3600  0.0522  0.2491
   77SLPC  H12X 7046   2.068   0.066   8.462 -0.2904 -0.4991  2.1718
   77SLPC  H12Y 7047   1.952  -0.086   8.451  0.9690  0.0329  0.6898
   77SLPC  C313 7048   1.858   0.104   8.440 -0.0025 -0.0991 -0.1988
   77SLPC  H13X 7049   1.781   0.061   8.372 -1.1847  5.2758 -2.8027
   77SLPC  H13Y 7050   1.870   0.210   8.412 -2.1769  0.2248 -0.0895
   77SLPC  C314 7051   1.813   0.095   8.586 -0.7531  0.1180 -0.1738
   77SLPC  H14X 7052   1.908   0.106   8.642  1.9509  2.2879 -4.6411
   77SLPC  H14Y 7053   1.769  -0.005   8.607 -1.3234  0.5595  0.8025
   77SLPC  C315 7054   1.717   0.201   8.635  0.3082  0.2431  0.1290
   77SLPC  H15X 7055   1.770   0.295   8.609 -0.2463  0.0510 -1.9124
   77SLPC  H15Y 7056   1.699   0.183   8.743 -0.9787  0.2333 -0.0653
   77SLPC  C316 7057   1.582   0.207   8.557  0.4385 -0.1990 -0.7061
   77SLPC  H16X 7058   1.512   0.154   8.626 -0.4413  0.5620 -0.9914
   77SLPC  H16Y 7059   1.573   0.144   8.466 -3.9171 -1.2717  0.2178
   77SLPC  C317 7060   1.533   0.351   8.534  0.1383 -0.2097  0.5342
   77SLPC  H17X 7061   1.445   0.354   8.467 -0.1719 -2.2432  0.7640
   77SLPC  H17Y 7062   1.617   0.402   8.483  1.1205 -0.4801  1.7996
   77SLPC  C318 7063   1.513   0.449   8.656 -0.0092 -0.0016 -0.4830
   77SLPC  H18X 7064   1.584   0.417   8.736 -1.3183  0.9221  1.1230
   77SLPC  H18Y 7065   1.411   0.435   8.698  0.0331 -1.1664 -0.7557
   77SLPC  H18Z 7066   1.523   0.554   8.621 -0.2621  0.1434 -0.1327
   78SLPC     N 7067   6.334   3.145   6.273  0.0795 -0.4647 -0.2987
   78SLPC   C13 7068   6.202   3.122   6.212  0.4470 -0.0544  0.4656
   78SLPC  H13A 7069   6.132   3.190   6.258  0.5292  0.9304 -0.7928
   78SLPC  H13B 7070   6.193   3.138   6.105 -1.7315 -3.1753  0.0577
   78SLPC  H13C 7071   6.164   3.023   6.230  1.2527 -0.1329  1.8835
   78SLPC   C14 7072   6.352   3.293   6.260 -0.8236  0.3076 -0.2135
   78SLPC  H14A 7073   6.456   3.316   6.277 -0.1739 -1.0678 -2.0093
   78SLPC  H14B 7074   6.333   3.330   6.160 -0.7307  0.5584 -0.1391
   78SLPC  H14C 7075   6.287   3.344   6.330 -1.5037 -0.7016 -0.0862
   78SLPC   C15 7076   6.440   3.074   6.188 -0.3118  0.7651 -0.2613
   78SLPC  H15A 7077   6.437   2.967   6.194  3.4900  0.6059  2.7119
   78SLPC  H15B 7078   6.437   3.102   6.083  2.1386 -0.2954 -0.6878
   78SLPC  H15C 7079   6.539   3.097   6.224  1.0484 -3.7379 -0.5468
   78SLPC   C12 7080   6.338   3.100   6.418 -0.1132 -0.7872 -0.7182
   78SLPC  H12A 7081   6.263   3.152   6.475  1.0111  0.7603 -0.5680
   78SLPC  H12B 7082   6.424   3.134   6.474 -2.9060  0.5447  3.1647
   78SLPC   C11 7083   6.309   2.947   6.443 -0.1917  0.4253 -0.1428
   78SLPC  H11A 7084   6.326   2.913   6.547  0.6682  2.0565  0.2943
   78SLPC  H11B 7085   6.389   2.888   6.392  1.1193 -0.8019  3.0857
   78SLPC     P 7086   6.056   2.887   6.507 -0.1643  0.0633  0.3016
   78SLPC   O13 7087   5.928   2.868   6.433 -0.9187  0.3337  1.0548
   78SLPC   O14 7088   6.096   2.775   6.597  0.0815  0.0182 -0.9087
   78SLPC   O12 7089   6.175   2.907   6.396 -0.8073 -0.0530  0.2883
   78SLPC   O11 7090   6.060   3.028   6.581 -0.2168 -0.0214 -0.4786
   78SLPC    C1 7091   5.962   3.061   6.673  0.2934  0.2185  0.1202
   78SLPC    HA 7092   5.959   3.172   6.673  0.1859  0.2305 -1.0075
   78SLPC    HB 7093   5.859   3.029   6.646 -0.4015  1.0719  1.6203
   78SLPC    C2 7094   5.989   3.006   6.814 -1.0148  0.0475 -0.4357
   78SLPC    HS 7095   5.976   2.896   6.802 -0.8137  0.0907 -1.1431
   78SLPC   O21 7096   5.903   3.054   6.915  0.0345 -0.1512  0.0620
   78SLPC   C21 7097   5.783   3.011   6.907 -0.3314 -0.0697 -0.3654
   78SLPC   O22 7098   5.746   2.924   6.834  0.0478 -0.1876 -0.6116
   78SLPC   C22 7099   5.703   3.060   7.032 -1.0944 -0.0065 -0.0717
   78SLPC   H2R 7100   5.621   3.113   6.979  0.2646  1.9652 -0.2955
   78SLPC   H2S 7101   5.665   2.970   7.084  0.5371 -1.7589 -1.7502
   78SLPC    C3 7102   6.131   3.035   6.864 -0.0657  0.0894 -0.6569
   78SLPC    HX 7103   6.138   3.146   6.877  2.6318  0.3302 -3.1184
   78SLPC    HY 7104   6.206   3.018   6.784 -1.0250 -1.6112 -1.2489
   78SLPC   O31 7105   6.171   2.963   6.984  0.6034  0.2007 -0.2169
   78SLPC   C31 7106   6.152   3.010   7.102  0.9152 -0.1989  0.6753
   78SLPC   O32 7107   6.122   3.125   7.133  0.0682  0.0214 -0.6421
   78SLPC   C32 7108   6.180   2.903   7.207 -0.4094  0.6612  0.0413
   78SLPC   H2X 7109   6.282   2.860   7.202 -1.7254 -2.8098  0.5997
   78SLPC   H2Y 7110   6.107   2.820   7.195 -2.6287  2.3119  1.3386
   78SLPC   C23 7111   5.764   3.165   7.126 -0.8973  0.3345  1.1686
   78SLPC   H3R 7112   5.766   3.256   7.063 -1.8658 -0.4503 -0.0278
   78SLPC   H3S 7113   5.867   3.130   7.150  0.1477  2.5693  0.3061
   78SLPC   C24 7114   5.693   3.189   7.262  0.1585  0.0613 -0.6438
   78SLPC   H4R 7115   5.640   3.099   7.302  0.8753  0.1992  0.6606
   78SLPC   H4S 7116   5.604   3.253   7.245  0.4810  0.5504 -0.4944
   78SLPC   C25 7117   5.780   3.251   7.375 -0.1419 -0.1586  0.2304
   78SLPC   H5R 7118   5.795   3.360   7.364  0.9793 -0.4470 -1.4050
   78SLPC   H5S 7119   5.886   3.216   7.370 -0.0968  0.0888 -0.7011
   78SLPC   C26 7120   5.733   3.214   7.517  0.4182 -0.0262 -0.0948
   78SLPC   H6R 7121   5.813   3.264   7.575  1.0283  1.5045 -2.1695
   78SLPC   H6S 7122   5.749   3.104   7.521  3.3795  0.1976 -2.3538
   78SLPC   C27 7123   5.594   3.264   7.566  0.4155  0.3742  0.5130
   78SLPC   H7R 7124   5.522   3.212   7.500  0.9862 -0.1210  0.2752
   78SLPC   H7S 7125   5.586   3.372   7.541 -1.1352  0.2643  0.4364
   78SLPC   C28 7126   5.574   3.235   7.711 -0.5313 -0.5985  0.6969
   78SLPC   H8R 7127   5.479   3.289   7.730 -0.3456  0.3616 -0.9371
   78SLPC   H8S 7128   5.658   3.274   7.772 -1.5339  0.5233  1.4022
   78SLPC   C29 7129   5.559   3.090   7.743 -0.0280  0.4760 -0.4457
   78SLPC   H9R 7130   5.466   3.048   7.703 -0.1895 -0.3366  0.7209
   78SLPC  C210 7131   5.644   3.013   7.811 -0.4127 -0.3802 -0.5640
   78SLPC  H10R 7132   5.616   2.911   7.843  3.1763 -1.2661  0.1714
   78SLPC  C211 7133   5.783   3.058   7.864 -0.7721 -0.1546 -0.4999
   78SLPC  H11R 7134   5.846   3.113   7.789  0.3758 -0.0482  0.5065
   78SLPC  H11S 7135   5.845   2.968   7.884 -0.4810  0.3838  1.1055
   78SLPC  C212 7136   5.792   3.143   7.986  0.1400 -0.7815 -0.3375
   78SLPC  H12R 7137   5.763   3.249   7.976  2.3845 -0.0574  0.2463
   78SLPC  C213 7138   5.829   3.098   8.107  0.1967  0.3515 -0.3000
   78SLPC  H13R 7139   5.831   3.179   8.182  3.4522  1.1012 -1.0419
   78SLPC  C214 7140   5.871   2.962   8.155 -0.3097 -0.3669  0.2876
   78SLPC  H14R 7141   5.976   2.938   8.129 -0.8813 -3.7651  0.6441
   78SLPC  H14S 7142   5.812   2.887   8.099  0.4796 -0.3427 -0.5940
   78SLPC  C215 7143   5.845   2.960   8.299  0.1195 -0.3001  0.5107
   78SLPC  H15R 7144   5.838   2.855   8.336 -0.8766 -0.2502  0.4896
   78SLPC  H15S 7145   5.740   2.991   8.319  1.3749  4.0872  1.1907
   78SLPC  C216 7146   5.933   3.044   8.392 -0.0593  0.2564 -0.0712
   78SLPC  H16R 7147   5.898   3.149   8.393  0.1015  0.3219 -0.7595
   78SLPC  H16S 7148   6.035   3.046   8.349  0.0609  0.5879  0.2237
   78SLPC  C217 7149   5.923   3.006   8.540  0.3618 -0.2254  0.5596
   78SLPC  H17R 7150   5.956   2.902   8.559 -1.0987 -0.7618  0.3074
   78SLPC  H17S 7151   5.815   3.022   8.560  0.3104 -0.3377  0.3715
   78SLPC  C218 7152   5.993   3.118   8.620 -0.0500  0.6488 -0.4537
   78SLPC  H18R 7153   6.100   3.099   8.599  0.3148  1.5321  0.5161
   78SLPC  H18S 7154   5.963   3.101   8.726 -0.2751  0.0952 -0.6020
   78SLPC  H18T 7155   5.968   3.220   8.583 -0.7250  0.4468 -0.5662
   78SLPC   C33 7156   6.171   2.962   7.355  0.5727  0.1119  0.2982
   78SLPC   H3X 7157   6.164   2.869   7.415 -1.7645 -0.7695 -1.2262
   78SLPC   H3Y 7158   6.086   3.023   7.391 -0.2214 -0.9234  0.2272
   78SLPC   C34 7159   6.296   3.040   7.396  0.3681 -0.5248 -0.2024
   78SLPC   H4X 7160   6.314   3.129   7.331 -1.2966 -0.2231 -0.3021
   78SLPC   H4Y 7161   6.388   2.979   7.393 -0.1481 -1.2915 -0.8491
   78SLPC   C35 7162   6.281   3.088   7.540  0.0647  0.0929  0.1937
   78SLPC   H5X 7163   6.247   2.999   7.597  1.3084 -0.3916  0.2050
   78SLPC   H5Y 7164   6.214   3.176   7.552  0.4669  0.4078  0.1728
   78SLPC   C36 7165   6.427   3.111   7.597  0.6901  0.1666 -0.1684
   78SLPC   H6X 7166   6.468   3.190   7.530  2.8287  0.2551  1.1707
   78SLPC   H6Y 7167   6.484   3.019   7.574  2.5595  1.6439 -1.8317
   78SLPC   C37 7168   6.437   3.145   7.746 -0.5849  0.0593  0.4520
   78SLPC   H7X 7169   6.371   3.235   7.753 -1.9372 -0.8214 -0.6741
   78SLPC   H7Y 7170   6.535   3.192   7.771 -0.9689 -0.1117  2.4454
   78SLPC   C38 7171   6.398   3.038   7.846  0.1812 -0.0038 -0.7255
   78SLPC   H8X 7172   6.483   3.023   7.916 -1.1147  2.6444  1.6393
   78SLPC   H8Y 7173   6.374   2.945   7.791 -1.8714  0.5736 -0.8914
   78SLPC   C39 7174   6.273   3.084   7.921  0.0551 -0.2230  0.5064
   78SLPC   H9X 7175   6.225   2.990   7.955  1.0697 -1.4672 -1.3725
   78SLPC   H9Y 7176   6.204   3.138   7.852 -0.5221 -1.4418  0.1171
   78SLPC  C310 7177   6.300   3.192   8.028  0.2132  0.4598 -0.0708
   78SLPC  H10X 7178   6.208   3.243   8.061 -0.1602  0.9671 -1.8041
   78SLPC  H10Y 7179   6.372   3.269   7.991  0.9519 -0.9545 -1.7913
   78SLPC  C311 7180   6.369   3.131   8.157  0.0951  0.5950 -0.0983
   78SLPC  H11X 7181   6.452   3.070   8.114  0.5095  1.5260 -0.6497
   78SLPC  H11Y 7182   6.296   3.070   8.214  1.5668  0.6519  1.9607
   78SLPC  C312 7183   6.426   3.235   8.254  0.0618 -0.7780  0.2398
   78SLPC  H12X 7184   6.482   3.306   8.190 -0.5334  1.5080  2.1082
   78SLPC  H12Y 7185   6.500   3.190   8.323  0.3056  0.6260  0.9268
   78SLPC  C313 7186   6.322   3.314   8.331  0.9451 -0.0472 -0.0891
   78SLPC  H13X 7187   6.222   3.297   8.286  0.3934 -0.5399  1.2951
   78SLPC  H13Y 7188   6.336   3.423   8.314 -1.9423  0.8141  2.2362
   78SLPC  C314 7189   6.318   3.299   8.480 -0.4231  0.2605  0.0642
   78SLPC  H14X 7190   6.420   3.334   8.510  0.2780 -1.1778 -0.5397
   78SLPC  H14Y 7191   6.300   3.195   8.513  0.3855  0.0891 -0.0116
   78SLPC  C315 7192   6.224   3.391   8.551  0.4682 -1.4765  0.7824
   78SLPC  H15X 7193   6.115   3.370   8.547  0.2783 -0.3853 -0.9714
   78SLPC  H15Y 7194   6.219   3.484   8.491 -0.6494 -1.8035  0.3383
   78SLPC  C316 7195   6.259   3.423   8.695 -0.7846  0.4859  0.0357
   78SLPC  H16X 7196   6.367   3.448   8.703 -0.9440  1.0210  0.5220
   78SLPC  H16Y 7197   6.237   3.329   8.749 -0.4298  0.4215  0.0696
   78SLPC  C317 7198   6.179   3.544   8.756 -0.2111 -0.5081  0.3052
   78SLPC  H17X 7199   6.071   3.520   8.741 -0.0483 -0.1849 -1.6129
   78SLPC  H17Y 7200   6.195   3.633   8.692  0.7441  0.3927  1.7413
   78SLPC  C318 7201   6.198   3.601   8.899 -0.2043  0.1715 -0.3043
   78SLPC  H18X 7202   6.145   3.539   8.975  2.3085  0.0833  1.4905
   78SLPC  H18Y 7203   6.167   3.707   8.905 -0.9760 -0.0253 -0.6506
   78SLPC  H18Z 7204   6.304   3.601   8.931 -0.1124 -0.7019 -0.5939
   79SLPC     N 7205   2.019   3.478   6.308 -0.2031  0.5104  0.3136
   79SLPC   C13 7206   1.891   3.405   6.319 -0.4669 -0.3617  0.6560
   79SLPC  H13A 7207   1.895   3.306   6.276  1.4207 -0.9192  1.9813
   79SLPC  H13B 7208   1.852   3.400   6.420 -1.0185 -1.8180  0.3978
   79SLPC  H13C 7209   1.814   3.467   6.276 -1.4829 -2.4249 -0.6793
   79SLPC   C14 7210   2.002   3.594   6.398 -0.4952 -0.6144  0.0313
   79SLPC  H14A 7211   1.976   3.574   6.501 -3.0226 -0.8696 -0.5944
   79SLPC  H14B 7212   2.095   3.649   6.401 -1.5797  1.3377 -0.4379
   79SLPC  H14C 7213   1.923   3.661   6.368  1.7732  1.2994 -2.0994
   79SLPC   C15 7214   2.046   3.531   6.172  0.3755 -0.6838  0.4977
   79SLPC  H15A 7215   2.137   3.588   6.158  0.3158 -0.7043  0.0041
   79SLPC  H15B 7216   2.070   3.452   6.103 -0.3064  1.2951 -2.1849
   79SLPC  H15C 7217   1.964   3.591   6.133  0.9872  0.4383  0.8890
   79SLPC   C12 7218   2.132   3.384   6.352  0.5563  0.2668  0.2201
   79SLPC  H12A 7219   2.170   3.326   6.268 -0.4102  0.7608 -0.5750
   79SLPC  H12B 7220   2.088   3.319   6.427  1.0277 -0.0319  0.2446
   79SLPC   C11 7221   2.257   3.462   6.406  0.0236  0.1109 -0.7504
   79SLPC  H11A 7222   2.327   3.385   6.445 -2.1141 -0.9913  1.0904
   79SLPC  H11B 7223   2.229   3.521   6.495  0.4986  1.0976 -1.2282
   79SLPC     P 7224   2.353   3.680   6.304  0.1534 -0.4913 -0.1138
   79SLPC   O13 7225   2.411   3.730   6.178  0.2482  0.1107  0.3082
   79SLPC   O14 7226   2.242   3.757   6.363 -0.6933 -0.2009 -1.3856
   79SLPC   O12 7227   2.329   3.530   6.304  0.4893  0.2887 -0.0669
   79SLPC   O11 7228   2.465   3.683   6.411  0.1177 -0.3681 -0.3134
   79SLPC    C1 7229   2.481   3.788   6.510  0.4730 -0.6119  1.0691
   79SLPC    HA 7230   2.560   3.855   6.472 -0.6653  0.0670 -0.1937
   79SLPC    HB 7231   2.393   3.854   6.527  1.0093  0.2792  0.4309
   79SLPC    C2 7232   2.528   3.747   6.649 -0.1943  0.0262 -0.0977
   79SLPC    HS 7233   2.552   3.840   6.705  2.1106  0.8997 -2.3494
   79SLPC   O21 7234   2.652   3.674   6.650 -0.4091 -0.3049  0.6395
   79SLPC   C21 7235   2.762   3.741   6.632 -0.4137 -0.4460  0.4674
   79SLPC   O22 7236   2.775   3.865   6.625 -0.2997  0.0560 -0.0432
   79SLPC   C22 7237   2.878   3.639   6.610  0.0522 -1.0638 -0.1537
   79SLPC   H2R 7238   2.843   3.534   6.606 -0.7712 -0.9281  2.0349
   79SLPC   H2S 7239   2.929   3.654   6.513 -0.2948 -2.3736 -0.5563
   79SLPC    C3 7240   2.417   3.667   6.719  0.1906  0.4693 -0.2015
   79SLPC    HX 7241   2.407   3.579   6.651  0.6396  0.8139 -0.7342
   79SLPC    HY 7242   2.324   3.724   6.734  1.0836  2.0492 -0.4883
   79SLPC   O31 7243   2.453   3.627   6.851  0.4468  0.1257 -0.1252
   79SLPC   C31 7244   2.513   3.512   6.867 -0.5436  0.7898 -0.4042
   79SLPC   O32 7245   2.543   3.442   6.776  0.0179 -0.2351  0.7635
   79SLPC   C32 7246   2.529   3.473   7.015 -0.3395  0.1761 -0.1481
   79SLPC   H2X 7247   2.456   3.531   7.076  2.5065  0.6978  3.0499
   79SLPC   H2Y 7248   2.632   3.502   7.045  0.2902 -0.8459 -1.2271
   79SLPC   C23 7249   2.980   3.647   6.721  0.0008 -0.5927 -0.7002
   79SLPC   H3R 7250   3.025   3.748   6.731  1.5532 -1.2239 -0.9122
   79SLPC   H3S 7251   3.067   3.587   6.687  1.1355 -1.2428  2.8611
   79SLPC   C24 7252   2.913   3.583   6.845 -0.5954  0.0022 -0.2191
   79SLPC   H4R 7253   2.872   3.486   6.809  0.4584 -0.1289 -1.1468
   79SLPC   H4S 7254   2.824   3.640   6.878 -0.5195  0.3967 -0.6843
   79SLPC   C25 7255   3.008   3.564   6.964 -0.8657  0.0458  0.1765
   79SLPC   H5R 7256   3.071   3.655   6.967  1.0966 -1.2501  0.1789
   79SLPC   H5S 7257   3.078   3.479   6.947  0.5995  1.4470 -1.1359
   79SLPC   C26 7258   2.934   3.552   7.099  0.5978 -0.2726  0.2354
   79SLPC   H6R 7259   2.876   3.458   7.094 -0.8629  0.6342 -0.6139
   79SLPC   H6S 7260   2.871   3.640   7.123  1.6683  1.6822 -3.3787
   79SLPC   C27 7261   3.018   3.539   7.224 -0.2489 -0.6786  0.4256
   79SLPC   H7R 7262   3.041   3.639   7.267 -0.6822 -1.0067  1.4582
   79SLPC   H7S 7263   3.113   3.487   7.200  0.0210 -0.6815  1.4406
   79SLPC   C28 7264   2.948   3.451   7.330  0.4159 -0.0317 -0.5693
   79SLPC   H8R 7265   3.023   3.419   7.406  0.9275 -0.3699 -1.2016
   79SLPC   H8S 7266   2.919   3.351   7.292  2.3392 -0.9443  0.2426
   79SLPC   C29 7267   2.831   3.519   7.395  0.4116  0.8624 -0.9132
   79SLPC   H9R 7268   2.760   3.548   7.317  0.8530 -0.7434 -1.9574
   79SLPC  C210 7269   2.801   3.534   7.524  0.2876  0.6240  0.2394
   79SLPC  H10R 7270   2.702   3.577   7.545  0.0702  0.4810 -0.4699
   79SLPC  C211 7271   2.861   3.462   7.646 -0.3139  0.0964 -0.0783
   79SLPC  H11R 7272   2.870   3.535   7.730 -3.7505 -0.6683  1.0985
   79SLPC  H11S 7273   2.956   3.410   7.620 -1.0872 -0.9685 -0.8445
   79SLPC  C212 7274   2.760   3.367   7.704 -0.0278 -0.1744  0.9733
   79SLPC  H12R 7275   2.743   3.280   7.639 -1.0819  0.6093  0.1586
   79SLPC  C213 7276   2.672   3.382   7.804  0.8974  0.3721  0.4753
   79SLPC  H13R 7277   2.598   3.301   7.817 -0.6435  1.8256  1.1823
   79SLPC  C214 7278   2.649   3.494   7.904 -0.0775 -0.6294 -0.3252
   79SLPC  H14R 7279   2.676   3.594   7.863  1.0019 -0.8179 -0.1118
   79SLPC  H14S 7280   2.709   3.464   7.992  1.5198  1.1680 -0.7429
   79SLPC  C215 7281   2.504   3.514   7.956  0.1093 -0.0465 -0.5335
   79SLPC  H15R 7282   2.429   3.529   7.874 -1.0670  2.6303  0.9121
   79SLPC  H15S 7283   2.511   3.609   8.013  1.3932 -0.4712  0.0420
   79SLPC  C216 7284   2.455   3.410   8.051  0.1374 -0.2887 -0.7182
   79SLPC  H16R 7285   2.531   3.387   8.128  0.2951  2.8046  0.2015
   79SLPC  H16S 7286   2.417   3.320   7.998 -0.2458 -0.7446  0.3111
   79SLPC  C217 7287   2.324   3.456   8.126 -0.5247 -0.2360 -0.0931
   79SLPC  H17R 7288   2.260   3.508   8.052 -1.1784  1.6243  1.6833
   79SLPC  H17S 7289   2.361   3.532   8.198 -0.8854 -0.6393  0.5246
   79SLPC  C218 7290   2.244   3.351   8.206 -0.5086 -0.0704  0.8120
   79SLPC  H18R 7291   2.305   3.300   8.283 -0.8158  0.3003  1.3080
   79SLPC  H18S 7292   2.201   3.284   8.128 -0.4477  0.6455  0.1460
   79SLPC  H18T 7293   2.157   3.403   8.252 -0.7087 -0.5480  0.9810
   79SLPC   C33 7294   2.493   3.323   7.042 -0.2643 -0.0426  0.5645
   79SLPC   H3X 7295   2.556   3.261   6.976  2.0804  0.9856  1.7353
   79SLPC   H3Y 7296   2.385   3.309   7.019 -0.0939  0.3029 -0.4755
   79SLPC   C34 7297   2.531   3.278   7.185  0.2309  0.0592 -0.2196
   79SLPC   H4X 7298   2.639   3.300   7.193  0.6936 -1.9303 -0.4632
   79SLPC   H4Y 7299   2.509   3.171   7.202  0.0429  0.2102  0.5447
   79SLPC   C35 7300   2.449   3.354   7.284  0.0728  0.7565 -0.2486
   79SLPC   H5X 7301   2.341   3.345   7.259 -0.3758  0.2105  1.6785
   79SLPC   H5Y 7302   2.466   3.463   7.278  0.6382  0.7354  0.7036
   79SLPC   C36 7303   2.469   3.304   7.429 -0.4897  0.1653  0.2042
   79SLPC   H6X 7304   2.567   3.343   7.464 -1.7518  0.6915  3.6114
   79SLPC   H6Y 7305   2.467   3.193   7.422  1.1272  0.2355 -2.5368
   79SLPC   C37 7306   2.355   3.356   7.522 -0.2970  0.0011  0.3866
   79SLPC   H7X 7307   2.262   3.364   7.461 -0.3072 -2.0058  0.0830
   79SLPC   H7Y 7308   2.380   3.460   7.554  2.7683 -0.6920  0.5820
   79SLPC   C38 7309   2.349   3.270   7.647 -0.1764 -0.4650  0.1619
   79SLPC   H8X 7310   2.440   3.275   7.710  0.7416 -4.3296 -0.5831
   79SLPC   H8Y 7311   2.333   3.167   7.608  3.0247 -0.8364 -0.4145
   79SLPC   C39 7312   2.223   3.307   7.739  0.3455  0.0292  0.2313
   79SLPC   H9X 7313   2.263   3.405   7.773 -0.3075  0.6682 -0.7666
   79SLPC   H9Y 7314   2.229   3.234   7.822  1.9372  0.7469  0.7927
   79SLPC  C310 7315   2.086   3.319   7.671  0.3893  0.2590 -0.2434
   79SLPC  H10X 7316   2.060   3.216   7.638  0.5650 -0.6518  2.2758
   79SLPC  H10Y 7317   2.096   3.397   7.593  1.9053 -0.2548 -0.5873
   79SLPC  C311 7318   1.985   3.367   7.777 -0.0693 -0.0516  0.3222
   79SLPC  H11X 7319   2.010   3.296   7.858  1.9857 -1.2271 -1.2488
   79SLPC  H11Y 7320   1.878   3.360   7.747 -0.3038 -0.2800  1.1817
   79SLPC  C312 7321   2.018   3.513   7.822  0.4614 -0.1484  0.2019
   79SLPC  H12X 7322   2.018   3.577   7.731 -1.9721  0.5305  0.5874
   79SLPC  H12Y 7323   2.121   3.514   7.864  0.9527  2.0932 -0.8811
   79SLPC  C313 7324   1.919   3.569   7.928 -0.5892  0.6650  0.6022
   79SLPC  H13X 7325   1.814   3.553   7.897 -0.5181 -2.4713  1.5980
   79SLPC  H13Y 7326   1.932   3.679   7.939 -0.1260  0.7395 -0.5799
   79SLPC  C314 7327   1.927   3.487   8.058 -0.2256  0.3636  0.3804
   79SLPC  H14X 7328   2.035   3.469   8.078 -0.3258 -0.5447  0.1307
   79SLPC  H14Y 7329   1.889   3.384   8.043 -1.3551  0.8608 -0.3242
   79SLPC  C315 7330   1.864   3.556   8.183  0.1822 -0.3446  0.1490
   79SLPC  H15X 7331   1.848   3.480   8.263  1.1804 -0.2332  0.4604
   79SLPC  H15Y 7332   1.765   3.593   8.148  0.4845 -0.8075 -1.2379
   79SLPC  C316 7333   1.942   3.674   8.239  0.1800  0.6262  0.3769
   79SLPC  H16X 7334   1.944   3.764   8.174  2.9292  0.1517 -0.3461
   79SLPC  H16Y 7335   2.046   3.635   8.235 -0.3945 -0.8877 -0.7016
   79SLPC  C317 7336   1.908   3.720   8.383  0.5291 -0.5659  0.0463
   79SLPC  H17X 7337   1.913   3.637   8.457 -1.1709 -1.0116 -0.2866
   79SLPC  H17Y 7338   1.799   3.742   8.388  0.7965  0.5888  1.1361
   79SLPC  C318 7339   1.993   3.841   8.430 -0.4985 -0.3218 -0.3167
   79SLPC  H18X 7340   2.100   3.815   8.428 -0.5326 -0.4164 -1.7891
   79SLPC  H18Y 7341   1.962   3.882   8.529 -1.1917 -0.2065 -0.5704
   79SLPC  H18Z 7342   1.967   3.925   8.362  1.9096  1.0484  0.3465
   80SLPC     N 7343   4.659   2.239   6.320  0.0912 -0.5481  0.1212
   80SLPC   C13 7344   4.804   2.235   6.351 -0.3595  0.3778  0.0756
   80SLPC  H13A 7345   4.838   2.321   6.406 -0.5800 -0.1809  1.1164
   80SLPC  H13B 7346   4.825   2.152   6.418  0.2554  1.5187  1.3504
   80SLPC  H13C 7347   4.848   2.227   6.253 -3.0056  2.5212 -1.4017
   80SLPC   C14 7348   4.626   2.125   6.232  0.1717  0.4470  0.1139
   80SLPC  H14A 7349   4.637   2.036   6.292  0.5532  1.5751  1.7877
   80SLPC  H14B 7350   4.522   2.123   6.201  0.0177  1.3342  0.5436
   80SLPC  H14C 7351   4.697   2.119   6.151  0.3259  1.4602  0.1705
   80SLPC   C15 7352   4.632   2.368   6.251 -0.6503 -0.4297 -0.2534
   80SLPC  H15A 7353   4.634   2.360   6.143 -0.6428  2.1022 -0.5032
   80SLPC  H15B 7354   4.535   2.408   6.276  0.5042  3.6135 -1.5228
   80SLPC  H15C 7355   4.705   2.442   6.280 -1.0135 -0.9579  2.2235
   80SLPC   C12 7356   4.580   2.232   6.448 -0.1056  0.0244  0.5527
   80SLPC  H12A 7357   4.479   2.251   6.416  0.3562 -0.7784 -1.5508
   80SLPC  H12B 7358   4.607   2.319   6.507  1.3497  2.0990 -2.8066
   80SLPC   C11 7359   4.582   2.103   6.531 -0.0851  0.0562  0.1792
   80SLPC  H11A 7360   4.512   2.118   6.616  1.5102  2.2977  1.1917
   80SLPC  H11B 7361   4.677   2.079   6.582 -2.0017 -3.1161  2.6879
   80SLPC     P 7362   4.394   1.955   6.413 -0.2234 -0.0324 -0.3560
   80SLPC   O13 7363   4.323   2.076   6.373 -0.4398  0.3845  0.3048
   80SLPC   O14 7364   4.400   1.849   6.312 -0.1258 -0.0347  0.2828
   80SLPC   O12 7365   4.545   1.984   6.459  0.3088  0.6875  0.0494
   80SLPC   O11 7366   4.325   1.900   6.543 -0.2839  0.3401  0.5544
   80SLPC    C1 7367   4.390   1.799   6.626 -0.1299  0.4559 -0.1833
   80SLPC    HA 7368   4.354   1.694   6.619  3.1664 -0.7745 -0.8706
   80SLPC    HB 7369   4.497   1.791   6.598  0.3113  1.3401  1.1344
   80SLPC    C2 7370   4.394   1.835   6.777 -0.6171  0.2806  0.3198
   80SLPC    HS 7371   4.289   1.861   6.801 -1.3108 -2.3954  0.5497
   80SLPC   O21 7372   4.490   1.944   6.801 -0.4739  0.4124  0.2365
   80SLPC   C21 7373   4.469   2.014   6.905  0.4703  0.1974 -0.1519
   80SLPC   O22 7374   4.363   2.021   6.966 -0.0509  0.6980 -0.0784
   80SLPC   C22 7375   4.590   2.099   6.943 -0.2019 -0.1417 -0.0051
   80SLPC   H2R 7376   4.675   2.028   6.934 -1.3037 -1.7251  1.3974
   80SLPC   H2S 7377   4.596   2.170   6.858 -0.8236  0.2038  0.2298
   80SLPC    C3 7378   4.421   1.703   6.864 -0.2528 -0.7855  0.5397
   80SLPC    HX 7379   4.528   1.680   6.844  0.4275  2.7637 -0.4637
   80SLPC    HY 7380   4.354   1.621   6.829  0.3456 -0.1113 -2.4554
   80SLPC   O31 7381   4.418   1.726   7.001 -0.1799  0.0010 -0.5161
   80SLPC   C31 7382   4.293   1.739   7.054  0.0252  0.0266 -0.2158
   80SLPC   O32 7383   4.187   1.729   6.994 -0.0903  0.5455 -0.8283
   80SLPC   C32 7384   4.308   1.744   7.202  1.1802  0.5154 -0.2425
   80SLPC   H2X 7385   4.211   1.785   7.237  2.1354  1.4054  1.4821
   80SLPC   H2Y 7386   4.373   1.828   7.233  0.7464  1.2529 -1.2875
   80SLPC   C23 7387   4.586   2.161   7.085 -0.5536 -1.1486 -0.5236
   80SLPC   H3R 7388   4.483   2.189   7.115 -0.3767  0.8243 -1.5368
   80SLPC   H3S 7389   4.647   2.253   7.069  1.4243 -2.1503  0.9498
   80SLPC   C24 7390   4.667   2.097   7.204  0.0602 -0.2929  0.4378
   80SLPC   H4R 7391   4.767   2.079   7.161 -1.0894 -1.8794 -1.7439
   80SLPC   H4S 7392   4.621   1.998   7.227 -0.0567 -0.5886 -0.9580
   80SLPC   C25 7393   4.666   2.183   7.327  1.1733  0.0863  0.0042
   80SLPC   H5R 7394   4.562   2.204   7.360  0.7472 -0.8237 -0.7043
   80SLPC   H5S 7395   4.705   2.287   7.323 -0.3366  0.7286  0.9540
   80SLPC   C26 7396   4.746   2.123   7.439 -0.6203 -0.0770 -0.0889
   80SLPC   H6R 7397   4.728   2.188   7.527 -2.2297  0.9969 -1.1457
   80SLPC   H6S 7398   4.854   2.143   7.421 -0.9961  1.9931 -0.3471
   80SLPC   C27 7399   4.713   1.983   7.491  0.2102 -0.4630  0.1191
   80SLPC   H7R 7400   4.717   1.907   7.411 -1.0633  1.4351 -1.8750
   80SLPC   H7S 7401   4.609   1.982   7.530  0.1645 -0.0486  0.0159
   80SLPC   C28 7402   4.799   1.943   7.609 -0.0846 -0.1868 -0.1764
   80SLPC   H8R 7403   4.798   2.009   7.698  1.4460 -1.4888  0.8615
   80SLPC   H8S 7404   4.904   1.945   7.571 -0.7371 -0.8604 -2.1553
   80SLPC   C29 7405   4.776   1.800   7.660 -0.0307  0.7805 -0.0638
   80SLPC   H9R 7406   4.775   1.722   7.583  3.1459  0.3091  0.2257
   80SLPC  C210 7407   4.747   1.756   7.790  0.9535 -0.6950 -0.3182
   80SLPC  H10R 7408   4.719   1.652   7.815 -0.3016 -0.1640  0.5706
   80SLPC  C211 7409   4.729   1.846   7.908  0.8724  0.2652 -0.0196
   80SLPC  H11R 7410   4.670   1.793   7.986 -0.1842  2.2722  0.5993
   80SLPC  H11S 7411   4.662   1.926   7.870 -0.3523 -0.2754  0.9111
   80SLPC  C212 7412   4.848   1.918   7.962  0.0256 -0.2125  0.8650
   80SLPC  H12R 7413   4.936   1.908   7.896 -1.6566 -0.7651 -1.4606
   80SLPC  C213 7414   4.849   1.991   8.078 -0.3050  1.0132  0.4616
   80SLPC  H13R 7415   4.945   2.032   8.114 -0.9231  2.3276  0.6910
   80SLPC  C214 7416   4.728   2.009   8.161  0.3364  0.2774  0.4944
   80SLPC  H14R 7417   4.708   1.921   8.226 -0.2959 -0.5109 -0.7449
   80SLPC  H14S 7418   4.634   2.024   8.105 -0.4882 -0.5539  1.5999
   80SLPC  C215 7419   4.741   2.115   8.271 -1.1746 -0.3778  0.0633
   80SLPC  H15R 7420   4.650   2.125   8.334  0.0698 -2.6818  2.4137
   80SLPC  H15S 7421   4.777   2.210   8.227 -0.7977 -1.0933 -1.2078
   80SLPC  C216 7422   4.845   2.086   8.384 -0.7112 -0.3037  0.5865
   80SLPC  H16R 7423   4.946   2.076   8.337 -0.2557 -0.2940  1.5416
   80SLPC  H16S 7424   4.812   1.991   8.430  1.6645 -2.1679 -1.2585
   80SLPC  C217 7425   4.857   2.189   8.499  0.8635  0.1513  0.3160
   80SLPC  H17R 7426   4.758   2.194   8.548  0.4155  1.4436 -0.6824
   80SLPC  H17S 7427   4.866   2.289   8.451  1.2119 -0.6528 -1.3800
   80SLPC  C218 7428   4.963   2.154   8.602  0.6183 -0.5132 -0.1914
   80SLPC  H18R 7429   5.058   2.140   8.546  0.9755  1.8197 -0.2454
   80SLPC  H18S 7430   4.929   2.064   8.657 -1.1605 -0.6199 -1.3691
   80SLPC  H18T 7431   4.968   2.238   8.674 -1.5164 -0.7379  0.2884
   80SLPC   C33 7432   4.334   1.613   7.280  0.0605  0.3146  0.6794
   80SLPC   H3X 7433   4.415   1.551   7.237  0.2294  1.1726 -0.2624
   80SLPC   H3Y 7434   4.240   1.555   7.268  0.5957 -0.6190  0.8801
   80SLPC   C34 7435   4.367   1.644   7.426 -0.2773 -0.6002 -0.8359
   80SLPC   H4X 7436   4.285   1.697   7.479  0.3756 -1.2991  0.9339
   80SLPC   H4Y 7437   4.457   1.709   7.435  0.5278 -1.9674  2.6489
   80SLPC   C35 7438   4.410   1.524   7.522 -0.2378 -0.1314  0.5769
   80SLPC   H5X 7439   4.504   1.477   7.487 -1.3026 -2.2392  0.3842
   80SLPC   H5Y 7440   4.324   1.455   7.513  1.0240 -1.5201 -1.4323
   80SLPC   C36 7441   4.412   1.586   7.668  0.5826  0.2234 -0.1187
   80SLPC   H6X 7442   4.308   1.622   7.686  0.4423 -0.1562 -0.1608
   80SLPC   H6Y 7443   4.482   1.672   7.669  0.9080 -0.0002 -1.4805
   80SLPC   C37 7444   4.468   1.485   7.766  0.0066 -0.0533  0.8885
   80SLPC   H7X 7445   4.571   1.458   7.733 -0.9453 -2.6914 -0.2047
   80SLPC   H7Y 7446   4.420   1.386   7.752  3.3381 -1.6300 -0.7668
   80SLPC   C38 7447   4.467   1.539   7.913 -0.0384  0.5455 -0.4537
   80SLPC   H8X 7448   4.362   1.572   7.924 -0.1972 -0.4571  1.7454
   80SLPC   H8Y 7449   4.548   1.612   7.933  2.2573 -2.0405  0.3731
   80SLPC   C39 7450   4.475   1.424   8.014 -0.2228 -0.0150  0.5014
   80SLPC   H9X 7451   4.582   1.395   8.011 -0.7488 -2.0694 -0.2537
   80SLPC   H9Y 7452   4.424   1.332   7.978 -0.8104  0.6719 -0.4635
   80SLPC  C310 7453   4.457   1.459   8.159 -0.2703 -0.1201  0.3131
   80SLPC  H10X 7454   4.489   1.565   8.169 -0.1201 -0.1450  0.1196
   80SLPC  H10Y 7455   4.520   1.388   8.217 -0.9114 -0.3792  0.6938
   80SLPC  C311 7456   4.309   1.443   8.204 -0.2291 -0.6727 -0.1353
   80SLPC  H11X 7457   4.243   1.487   8.127 -1.9513 -1.1936  0.9818
   80SLPC  H11Y 7458   4.287   1.492   8.301 -1.5111 -0.0858 -0.7037
   80SLPC  C312 7459   4.280   1.295   8.226  1.3581  0.1424 -0.1608
   80SLPC  H12X 7460   4.367   1.247   8.276  0.3522 -0.2747  1.2420
   80SLPC  H12Y 7461   4.257   1.247   8.129 -4.0675  1.0827  0.3518
   80SLPC  C313 7462   4.151   1.278   8.310  0.8216 -0.8971 -0.0817
   80SLPC  H13X 7463   4.059   1.324   8.268  1.2000 -0.5577 -0.5382
   80SLPC  H13Y 7464   4.160   1.321   8.412 -0.7064 -2.2854  0.6927
   80SLPC  C314 7465   4.103   1.125   8.336  0.6820 -0.2767 -0.1440
   80SLPC  H14X 7466   4.164   1.073   8.413  1.7467 -1.1391 -1.5176
   80SLPC  H14Y 7467   4.109   1.070   8.239 -1.8704 -3.2844  1.2305
   80SLPC  C315 7468   3.961   1.121   8.395  0.0364  0.0150  0.3495
   80SLPC  H15X 7469   3.896   1.181   8.327  0.1299 -1.6458 -1.2730
   80SLPC  H15Y 7470   3.954   1.165   8.497 -1.2573  0.6634  0.0147
   80SLPC  C316 7471   3.897   0.977   8.426 -0.2984  0.4389  0.1318
   80SLPC  H16X 7472   3.968   0.913   8.484 -2.5963  0.4312  3.2336
   80SLPC  H16Y 7473   3.878   0.936   8.325  0.0438 -0.6044  0.4694
   80SLPC  C317 7474   3.769   0.976   8.498 -0.0388  0.7849 -0.1251
   80SLPC  H17X 7475   3.685   1.021   8.443 -0.5472 -0.5420 -0.4723
   80SLPC  H17Y 7476   3.782   1.026   8.597  0.7546  0.5742 -0.1147
   80SLPC  C318 7477   3.735   0.830   8.532 -0.3852 -0.2715  0.6900
   80SLPC  H18X 7478   3.629   0.816   8.562 -1.2711  1.1471 -1.5123
   80SLPC  H18Y 7479   3.794   0.803   8.622  0.6212  0.3227  0.2252
   80SLPC  H18Z 7480   3.757   0.769   8.442  0.2499  1.8665 -0.6920
   81SAPS     N 7481   4.694   0.530  11.013 -0.7806  0.6919 -0.4920
   81SAPS   HN1 7482   4.731   0.447  10.963  0.6062  1.7248 -1.2679
   81SAPS   HN2 7483   4.773   0.595  11.035  0.2720  0.2816 -2.7823
   81SAPS   HN3 7484   4.646   0.506  11.102  2.0143  2.3169  1.6521
   81SAPS   C12 7485   4.606   0.609  10.924 -0.1596  0.1359  0.1183
   81SAPS  H12A 7486   4.631   0.580  10.823  0.3164  0.4231  0.1534
   81SAPS   C13 7487   4.457   0.581  10.929 -0.1272 -0.0337 -0.5259
   81SAPS  O13A 7488   4.410   0.473  10.970 -0.2701 -0.0546  0.0680
   81SAPS  O13B 7489   4.375   0.670  10.896 -0.1651 -0.2824 -0.2941
   81SAPS   C11 7490   4.642   0.756  10.951 -0.6614 -0.3931  0.3315
   81SAPS  H11A 7491   4.591   0.788  11.044 -0.0228 -2.4678  1.4621
   81SAPS  H11B 7492   4.592   0.820  10.875 -0.0616  0.5742  0.7363
   81SAPS     P 7493   4.836   0.931  10.936 -0.4519  0.4761  0.2855
   81SAPS   O13 7494   4.724   1.030  10.926  0.4556 -0.1394 -0.0904
   81SAPS   O14 7495   4.927   0.965  11.053 -0.0952  0.3928  0.1416
   81SAPS   O12 7496   4.784   0.782  10.955  0.0657 -0.2804 -0.7894
   81SAPS   O11 7497   4.913   0.940  10.794 -0.0606  0.0958 -0.3008
   81SAPS    C1 7498   4.870   0.878  10.674  0.0052  0.0958 -0.5020
   81SAPS    HA 7499   4.827   0.778  10.697  1.4091 -0.1185  1.4698
   81SAPS    HB 7500   4.792   0.928  10.613  1.0626  0.4131 -1.6534
   81SAPS    C2 7501   4.986   0.853  10.569 -0.1567  0.1136 -0.5905
   81SAPS    HS 7502   5.018   0.952  10.529 -0.6043  0.4882 -0.0493
   81SAPS   O21 7503   4.934   0.763  10.475 -0.1804 -0.0624 -0.1737
   81SAPS   C21 7504   4.966   0.776  10.345  0.6932 -0.6394  0.6518
   81SAPS   O22 7505   5.042   0.860  10.302  0.1609  0.0159  0.0065
   81SAPS   C22 7506   4.878   0.688  10.256 -0.4815  0.2942 -0.4470
   81SAPS   H2R 7507   4.786   0.658  10.311  0.2661 -0.2094  0.5633
   81SAPS   H2S 7508   4.855   0.743  10.162 -2.4295 -0.3611 -0.3958
   81SAPS    C3 7509   5.109   0.790  10.645  0.0546  0.4864  0.7093
   81SAPS    HX 7510   5.061   0.703  10.694  0.1896  0.6021  1.0483
   81SAPS    HY 7511   5.136   0.861  10.726  1.3141  1.2578 -0.3364
   81SAPS   O31 7512   5.219   0.751  10.567  0.7108 -0.5383  0.2896
   81SAPS   C31 7513   5.277   0.844  10.499  0.4852 -0.4195 -0.0881
   81SAPS   O32 7514   5.266   0.965  10.510  0.2529  0.0188 -0.0435
   81SAPS   C32 7515   5.374   0.771  10.400  0.1292  0.4345 -0.2517
   81SAPS   H2X 7516   5.308   0.729  10.321  0.6812  1.4445 -1.2849
   81SAPS   H2Y 7517   5.431   0.692  10.454 -0.0928 -1.3492 -2.4454
   81SAPS   C23 7518   4.944   0.560  10.203 -0.4960 -0.1114 -0.3462
   81SAPS   H3R 7519   4.870   0.505  10.143  0.1589 -0.2650 -1.0251
   81SAPS   H3S 7520   4.982   0.499  10.288  0.7251 -1.4901 -1.8255
   81SAPS   C24 7521   5.072   0.574  10.109  0.9361 -0.6021  0.7661
   81SAPS   H4R 7522   5.088   0.468  10.081 -2.1017 -0.8232 -0.4887
   81SAPS   H4S 7523   5.158   0.624  10.159  1.4460 -0.5878 -0.1040
   81SAPS   C25 7524   5.048   0.657   9.982 -0.0566  0.8328  0.1586
   81SAPS   H5R 7525   5.050   0.767   9.994  0.6435  1.2261 -2.8937
   81SAPS   C26 7526   5.010   0.612   9.861 -0.4701  0.0935 -0.2001
   81SAPS   H6R 7527   5.018   0.688   9.781 -1.9155  0.6599  0.1681
   81SAPS   C27 7528   4.979   0.471   9.811 -0.3085 -1.4638 -0.2998
   81SAPS   H7R 7529   4.887   0.479   9.751 -0.8316 -1.7986  0.4375
   81SAPS   H7S 7530   4.942   0.407   9.894 -0.1506 -0.0725  0.8821
   81SAPS   C28 7531   5.089   0.404   9.733  0.3873 -0.1476 -0.2118
   81SAPS   H8R 7532   5.165   0.360   9.798  0.6722 -0.1760 -0.5638
   81SAPS   C29 7533   5.074   0.385   9.595 -1.3035 -0.5132 -0.5335
   81SAPS   H9R 7534   5.155   0.341   9.535 -2.7062  0.3550 -3.1889
   81SAPS  C210 7535   4.963   0.435   9.500  0.2961 -0.0017  0.1062
   81SAPS  H10R 7536   4.870   0.478   9.544  0.4064  1.9297 -1.3804
   81SAPS  H10S 7537   4.921   0.344   9.452 -2.2545  1.3701 -0.4475
   81SAPS  C211 7538   5.024   0.527   9.398 -0.7351  0.4420  0.0734
   81SAPS  H11R 7539   5.058   0.619   9.446  0.9466 -0.4331  0.6524
   81SAPS  C212 7540   5.064   0.500   9.269 -0.6103  0.3789 -0.7022
   81SAPS  H12R 7541   5.125   0.576   9.218  0.0351 -0.1377 -0.7091
   81SAPS  C213 7542   5.051   0.382   9.179  0.2851  0.3399 -0.0218
   81SAPS  H13R 7543   4.978   0.308   9.217  0.7192 -0.0382  0.0818
   81SAPS  H13S 7544   5.143   0.320   9.173 -0.7543 -1.2905  0.3405
   81SAPS  C214 7545   5.008   0.406   9.041  0.6983 -0.0654  0.2862
   81SAPS  H14R 7546   4.906   0.445   9.029  1.6727  2.9522  0.9833
   81SAPS  C215 7547   5.082   0.390   8.929  0.0270  1.1142  0.4987
   81SAPS  H15R 7548   5.020   0.398   8.838 -1.4356 -1.1831  1.2047
   81SAPS  C216 7549   5.231   0.361   8.908  0.3706  0.0260 -0.4309
   81SAPS  H16R 7550   5.277   0.334   9.006 -0.4903  0.7213  0.1788
   81SAPS  H16S 7551   5.289   0.447   8.869 -2.3997  1.6440 -1.2521
   81SAPS  C217 7552   5.240   0.227   8.822 -0.0320 -0.1191  0.2063
   81SAPS  H17R 7553   5.191   0.141   8.872  1.9740 -1.0522  0.6683
   81SAPS  H17S 7554   5.345   0.191   8.826  0.3659  0.8366 -1.0426
   81SAPS  C218 7555   5.209   0.245   8.677 -0.2285  0.1184  0.3595
   81SAPS  H18R 7556   5.285   0.316   8.639  1.6891 -0.3942  3.0250
   81SAPS  H18S 7557   5.109   0.294   8.670 -0.1508  0.5325  1.9366
   81SAPS  C219 7558   5.217   0.112   8.588 -0.4362 -0.9853 -0.6885
   81SAPS  H19R 7559   5.322   0.077   8.598  0.4237  1.6248  0.4057
   81SAPS  H19S 7560   5.196   0.142   8.483 -1.8792 -0.8582 -0.3898
   81SAPS  C220 7561   5.124  -0.003   8.616  0.0003  0.1639  0.5133
   81SAPS  H20R 7562   5.125  -0.029   8.723 -1.5643  0.3694  0.5966
   81SAPS  H20S 7563   5.149  -0.091   8.553 -2.8616  0.9043 -1.8979
   81SAPS  H20T 7564   5.019   0.021   8.588  1.0413  2.1549 -2.1848
   81SAPS   C33 7565   5.471   0.877  10.348  0.5408 -0.5097 -0.0349
   81SAPS   H3X 7566   5.516   0.938  10.429 -0.0817 -0.0419 -0.0320
   81SAPS   H3Y 7567   5.420   0.953  10.285 -0.8935 -1.6636 -0.3262
   81SAPS   C34 7568   5.566   0.811  10.255 -0.3779 -0.4194  0.3593
   81SAPS   H4X 7569   5.624   0.727  10.299 -1.2380 -1.1647  0.1021
   81SAPS   H4Y 7570   5.640   0.886  10.219 -0.4886 -1.9026 -3.3699
   81SAPS   C35 7571   5.499   0.746  10.129 -0.3707  0.0049 -0.3404
   81SAPS   H5X 7572   5.430   0.662  10.152  0.7588 -0.4244  1.7262
   81SAPS   H5Y 7573   5.576   0.699  10.065  0.6092  1.8415 -0.5675
   81SAPS   C36 7574   5.426   0.853  10.043 -0.5767 -0.0153  0.0355
   81SAPS   H6X 7575   5.473   0.952  10.031  0.2482 -0.2975  0.8310
   81SAPS   H6Y 7576   5.331   0.860  10.100  0.5724 -0.6545  2.1207
   81SAPS   C37 7577   5.394   0.789   9.907 -0.1423  0.3391  0.7013
   81SAPS   H7X 7578   5.350   0.688   9.925 -0.0745  0.3854  1.1440
   81SAPS   H7Y 7579   5.487   0.761   9.854  0.4315  0.5608  1.5826
   81SAPS   C38 7580   5.285   0.875   9.839 -0.3050  0.6175 -0.4932
   81SAPS   H8X 7581   5.333   0.975   9.831  0.1051  0.5070  0.4174
   81SAPS   H8Y 7582   5.190   0.894   9.894 -0.7973  2.3610 -1.8536
   81SAPS   C39 7583   5.250   0.804   9.701 -0.7173 -0.0831  0.3508
   81SAPS   H9X 7584   5.156   0.850   9.665  0.7830  0.4792 -3.3060
   81SAPS   H9Y 7585   5.243   0.694   9.716  1.0891 -0.0808  1.5489
   81SAPS  C310 7586   5.358   0.838   9.594 -0.5365  0.1959  0.8305
   81SAPS  H10X 7587   5.443   0.767   9.598 -2.4502 -2.3496 -0.6173
   81SAPS  H10Y 7588   5.401   0.940   9.597 -1.8863  1.2485 -4.4842
   81SAPS  C311 7589   5.296   0.829   9.452  0.1207  0.2579  0.5011
   81SAPS  H11X 7590   5.218   0.907   9.441 -0.9280 -0.9293 -0.8585
   81SAPS  H11Y 7591   5.254   0.727   9.437 -0.6979  0.0689  3.3317
   81SAPS  C312 7592   5.394   0.868   9.336 -0.0948 -0.1808  0.3502
   81SAPS  H12X 7593   5.465   0.783   9.344 -0.2593 -0.5181 -1.4148
   81SAPS  H12Y 7594   5.437   0.966   9.366 -0.6522 -0.2319  1.3618
   81SAPS  C313 7595   5.323   0.855   9.212  0.2386 -0.2655  0.0650
   81SAPS  H13X 7596   5.255   0.942   9.198  1.1126  0.4339  0.0327
   81SAPS  H13Y 7597   5.259   0.764   9.212 -0.0223 -0.1925  3.2355
   81SAPS  C314 7598   5.423   0.862   9.095  0.4752 -0.9349 -0.4453
   81SAPS  H14X 7599   5.493   0.776   9.103  1.9377 -0.0358 -2.6639
   81SAPS  H14Y 7600   5.479   0.959   9.093  0.7300 -1.0541 -3.0874
   81SAPS  C315 7601   5.360   0.838   8.957  0.4975  0.4896  0.3911
   81SAPS  H15X 7602   5.312   0.931   8.918 -0.5440 -0.0209  0.4300
   81SAPS  H15Y 7603   5.308   0.740   8.966  3.2340 -1.1758 -0.7501
   81SAPS  C316 7604   5.474   0.819   8.853  0.2693  0.2378 -0.6120
   81SAPS  H16X 7605   5.529   0.733   8.896 -1.6795 -1.0892 -0.6537
   81SAPS  H16Y 7606   5.535   0.912   8.861  1.4444 -0.6084  0.6378
   81SAPS  C317 7607   5.433   0.763   8.716 -0.0950 -0.2068 -0.9928
   81SAPS  H17X 7608   5.358   0.827   8.664  1.7154  2.6854 -0.3026
   81SAPS  H17Y 7609   5.386   0.663   8.732  0.0380 -0.0281  0.6763
   81SAPS  C318 7610   5.551   0.751   8.623 -0.6920 -0.4177  0.3722
   81SAPS  H18X 7611   5.528   0.703   8.526 -0.5515 -0.5922  0.4235
   81SAPS  H18Y 7612   5.624   0.689   8.681 -0.5731 -0.7462 -0.1218
   81SAPS  H18Z 7613   5.595   0.851   8.605 -0.0941 -0.1223  2.9929
   82SAPS     N 7614   3.632   0.029  11.002 -0.5520 -0.6009 -0.7326
   82SAPS   HN1 7615   3.549   0.029  10.939 -0.5984 -0.8504 -0.6722
   82SAPS   HN2 7616   3.711   0.068  10.946  0.4158  0.1399  1.0570
   82SAPS   HN3 7617   3.645  -0.070  11.030  1.3551  0.1095  1.2142
   82SAPS   C12 7618   3.593   0.114  11.115 -1.0836 -0.1892 -0.6705
   82SAPS  H12A 7619   3.503   0.078  11.161 -0.1856 -2.0491 -0.2909
   82SAPS   C13 7620   3.702   0.112  11.229  0.3723  0.2622  0.9377
   82SAPS  O13A 7621   3.811   0.052  11.212  0.3719 -0.0480  0.3257
   82SAPS  O13B 7622   3.660   0.139  11.346  0.1456 -0.3758  0.5512
   82SAPS   C11 7623   3.573   0.263  11.068 -0.1479  0.1704 -0.0417
   82SAPS  H11A 7624   3.669   0.303  11.029 -0.5573  0.6759 -0.5534
   82SAPS  H11B 7625   3.548   0.333  11.151  2.8262  1.8087 -0.3879
   82SAPS     P 7626   3.324   0.321  10.995 -0.2062 -0.0476  0.2261
   82SAPS   O13 7627   3.246   0.233  10.910  0.2329  0.2387  0.3129
   82SAPS   O14 7628   3.282   0.320  11.134  0.0842 -0.2556 -0.0685
   82SAPS   O12 7629   3.475   0.278  10.967  0.1720 -1.4744  0.2336
   82SAPS   O11 7630   3.319   0.464  10.935  0.1539 -0.1831  0.1557
   82SAPS    C1 7631   3.438   0.522  10.895 -0.5015  0.0586  1.0567
   82SAPS    HA 7632   3.518   0.524  10.973  1.2442  1.9928 -0.6703
   82SAPS    HB 7633   3.473   0.467  10.806 -2.6810  0.8629 -0.3741
   82SAPS    C2 7634   3.434   0.666  10.845 -0.6976 -0.2860 -0.6832
   82SAPS    HS 7635   3.389   0.725  10.928  0.4522  0.0516 -0.2805
   82SAPS   O21 7636   3.351   0.667  10.731  0.4571  0.1650 -0.4430
   82SAPS   C21 7637   3.314   0.789  10.703 -0.1197 -0.2677 -0.3998
   82SAPS   O22 7638   3.350   0.893  10.757 -0.3018 -0.3024  0.1725
   82SAPS   C22 7639   3.207   0.785  10.600  0.0912 -0.3475 -0.2781
   82SAPS   H2R 7640   3.165   0.684  10.580  0.8498 -0.6291 -0.5006
   82SAPS   H2S 7641   3.123   0.851  10.631  0.0557  0.0506 -1.1851
   82SAPS    C3 7642   3.582   0.720  10.815 -0.1529 -0.1365 -0.6001
   82SAPS    HX 7643   3.650   0.706  10.903 -0.3625  0.4730 -0.3374
   82SAPS    HY 7644   3.591   0.830  10.800 -0.8203 -0.0015 -0.0322
   82SAPS   O31 7645   3.636   0.648  10.701 -0.1348 -0.3287 -0.5577
   82SAPS   C31 7646   3.632   0.708  10.587  0.0656 -0.9667  0.1649
   82SAPS   O32 7647   3.575   0.814  10.567 -0.4117  1.0256  0.1208
   82SAPS   C32 7648   3.708   0.636  10.480  0.0944 -0.2840  0.4933
   82SAPS   H2X 7649   3.773   0.558  10.526  0.6071  0.1723  0.5588
   82SAPS   H2Y 7650   3.774   0.715  10.438 -0.4489  0.2402  0.6107
   82SAPS   C23 7651   3.259   0.847  10.468 -0.6774 -0.3522  0.2264
   82SAPS   H3R 7652   3.363   0.882  10.487 -0.7689 -0.8415  1.7381
   82SAPS   H3S 7653   3.201   0.932  10.428 -1.4863 -1.1304 -0.2938
   82SAPS   C24 7654   3.274   0.759  10.345 -0.3641 -0.0181 -0.9070
   82SAPS   H4R 7655   3.169   0.738  10.315  0.3144  0.6064 -4.1505
   82SAPS   H4S 7656   3.313   0.661  10.380 -2.4295 -0.3314  0.7014
   82SAPS   C25 7657   3.347   0.820  10.230 -0.4974  0.5572 -0.0850
   82SAPS   H5R 7658   3.440   0.870  10.260  0.4625 -0.4634 -1.2092
   82SAPS   C26 7659   3.306   0.822  10.100  0.5197  0.8381 -0.2195
   82SAPS   H6R 7660   3.380   0.863  10.030  2.0136  0.9171  1.3144
   82SAPS   C27 7661   3.172   0.768  10.053 -0.2180 -0.0759  0.1424
   82SAPS   H7R 7662   3.120   0.719  10.139  0.3064  0.2759  0.6716
   82SAPS   H7S 7663   3.187   0.694   9.971  1.2338  1.4145 -1.0046
   82SAPS   C28 7664   3.103   0.885   9.987  0.7177  0.0887 -0.0408
   82SAPS   H8R 7665   3.075   0.964  10.057  0.0774 -0.4578  0.3265
   82SAPS   C29 7666   3.083   0.906   9.855  0.7246 -0.5797  0.2924
   82SAPS   H9R 7667   3.037   1.002   9.829  1.0494 -0.6391 -0.5172
   82SAPS  C210 7668   3.131   0.826   9.739 -0.3092 -0.2819 -0.1363
   82SAPS  H10R 7669   3.043   0.776   9.694 -0.4881 -0.6791  0.6389
   82SAPS  H10S 7670   3.195   0.742   9.773  1.5323  0.5370 -1.4350
   82SAPS  C211 7671   3.178   0.916   9.627 -0.3525 -0.3571  0.2028
   82SAPS  H11R 7672   3.159   1.024   9.632 -0.5991 -0.2606 -2.0507
   82SAPS  C212 7673   3.251   0.866   9.524 -0.0194  0.3078 -0.2721
   82SAPS  H12R 7674   3.296   0.923   9.442  3.4449 -1.2630  0.3332
   82SAPS  C213 7675   3.291   0.723   9.502  0.2125 -0.4981 -0.1182
   82SAPS  H13R 7676   3.270   0.687   9.399 -1.2208 -1.2325  0.4069
   82SAPS  H13S 7677   3.227   0.654   9.560  0.7747  0.4055  1.6379
   82SAPS  C214 7678   3.429   0.695   9.554  0.4100  0.2694  0.2538
   82SAPS  H14R 7679   3.428   0.691   9.664 -1.9115 -0.5631  0.2547
   82SAPS  C215 7680   3.537   0.665   9.482 -0.4727  0.2903 -0.1500
   82SAPS  H15R 7681   3.636   0.647   9.527 -0.3433  1.5129  0.0989
   82SAPS  C216 7682   3.549   0.650   9.335 -0.5632 -0.3662 -0.5874
   82SAPS  H16R 7683   3.448   0.664   9.289 -1.6746  0.4141  1.8921
   82SAPS  H16S 7684   3.593   0.549   9.328  2.8220  0.9450  0.1341
   82SAPS  C217 7685   3.654   0.751   9.280 -0.3076 -0.1143 -0.4908
   82SAPS  H17R 7686   3.754   0.746   9.329 -0.0171  0.7792 -0.9816
   82SAPS  H17S 7687   3.622   0.856   9.295  0.4201  0.1179 -0.5161
   82SAPS  C218 7688   3.670   0.735   9.122  1.0467  0.4577 -0.5929
   82SAPS  H18R 7689   3.714   0.634   9.108  1.7172  0.8138 -1.1044
   82SAPS  H18S 7690   3.730   0.812   9.069  0.1907  1.0239 -0.7574
   82SAPS  C219 7691   3.536   0.746   9.039 -1.0801 -0.4447 -0.1931
   82SAPS  H19R 7692   3.492   0.838   9.082  2.3938  1.4399 -0.3120
   82SAPS  H19S 7693   3.476   0.657   9.067 -1.6152  0.3518  1.2619
   82SAPS  C220 7694   3.564   0.774   8.891 -0.2612 -0.2402 -0.0224
   82SAPS  H20R 7695   3.633   0.706   8.838 -0.0491  0.9662 -1.3510
   82SAPS  H20S 7696   3.595   0.880   8.880  0.7790 -0.2091  2.4937
   82SAPS  H20T 7697   3.470   0.767   8.831 -0.2418  0.0020 -0.0836
   82SAPS   C33 7698   3.630   0.578  10.366  0.4216 -0.5484 -0.1966
   82SAPS   H3X 7699   3.582   0.666  10.319  3.0151  0.9338 -0.2417
   82SAPS   H3Y 7700   3.555   0.505  10.403  1.6698 -1.3795  0.8054
   82SAPS   C34 7701   3.717   0.500  10.265 -0.0021  0.3434  0.2683
   82SAPS   H4X 7702   3.656   0.441  10.193 -0.2326  0.3913  0.4236
   82SAPS   H4Y 7703   3.788   0.431  10.316  0.1903  0.9089  0.7854
   82SAPS   C35 7704   3.792   0.595  10.172  0.1627 -0.4915 -0.1219
   82SAPS   H5X 7705   3.862   0.652  10.237 -1.2115 -1.1911  2.0579
   82SAPS   H5Y 7706   3.715   0.672  10.148 -0.5447 -0.8377  0.9773
   82SAPS   C36 7707   3.869   0.535  10.056  0.1150  0.0845  0.0546
   82SAPS   H6X 7708   3.820   0.440  10.024 -4.0646  2.2541 -0.6755
   82SAPS   H6Y 7709   3.964   0.495  10.097 -0.3926  0.5570  1.7413
   82SAPS   C37 7710   3.902   0.621   9.934 -0.5673 -0.0046  0.0606
   82SAPS   H7X 7711   3.952   0.714   9.968 -2.3543  0.7106  0.8605
   82SAPS   H7Y 7712   3.810   0.651   9.880 -0.1365  3.4019  0.9723
   82SAPS   C38 7713   3.995   0.555   9.829  0.2289 -0.1315 -1.0330
   82SAPS   H8X 7714   3.926   0.478   9.787 -1.7915 -1.0657  3.4131
   82SAPS   H8Y 7715   4.079   0.505   9.883 -0.3618 -0.2252 -0.1706
   82SAPS   C39 7716   4.037   0.643   9.715  0.2360 -0.4920 -0.7772
   82SAPS   H9X 7717   4.148   0.649   9.706  0.0594  1.1619 -2.5272
   82SAPS   H9Y 7718   3.994   0.743   9.740  0.2861 -0.9540  1.3246
   82SAPS  C310 7719   4.000   0.600   9.571  0.6183  0.1736 -0.6478
   82SAPS  H10X 7720   3.889   0.596   9.571  0.5246 -2.2269  3.2355
   82SAPS  H10Y 7721   4.038   0.498   9.550  0.3368 -0.2548  0.8199
   82SAPS  C311 7722   4.064   0.686   9.458 -0.4244 -0.1552  0.3011
   82SAPS  H11X 7723   4.173   0.697   9.476 -0.2356  0.8142 -1.2676
   82SAPS  H11Y 7724   4.019   0.788   9.458 -0.0406  0.0556  2.2387
   82SAPS  C312 7725   4.027   0.631   9.319  0.0627  0.1451  0.0225
   82SAPS  H12X 7726   3.917   0.616   9.313  0.1651 -2.5528  2.6046
   82SAPS  H12Y 7727   4.076   0.532   9.316 -2.7901 -1.4461  1.5402
   82SAPS  C313 7728   4.085   0.726   9.217  0.4237  0.0174 -0.4127
   82SAPS  H13X 7729   4.196   0.735   9.226  0.2707  0.6386  1.3483
   82SAPS  H13Y 7730   4.036   0.821   9.246 -1.2337  0.0272 -2.9973
   82SAPS  C314 7731   4.071   0.674   9.078  0.2679  0.6045  0.8323
   82SAPS  H14X 7732   3.968   0.649   9.046  1.3370 -3.3186 -0.1250
   82SAPS  H14Y 7733   4.133   0.582   9.070  1.6501  1.5946 -0.2701
   82SAPS  C315 7734   4.130   0.773   8.969 -0.1392  0.1476 -0.1431
   82SAPS  H15X 7735   4.240   0.758   8.972 -0.5383 -3.7350 -0.3392
   82SAPS  H15Y 7736   4.105   0.876   9.003 -0.8485 -0.4486  1.2438
   82SAPS  C316 7737   4.095   0.741   8.831 -0.0734 -0.4876 -0.2840
   82SAPS  H16X 7738   3.984   0.740   8.827 -0.1353  2.1176 -0.7166
   82SAPS  H16Y 7739   4.129   0.638   8.807 -0.2983 -1.0689  1.6867
   82SAPS  C317 7740   4.154   0.829   8.723 -0.0038  0.5643  0.9004
   82SAPS  H17X 7741   4.116   0.793   8.625  1.6768  1.1465 -0.0029
   82SAPS  H17Y 7742   4.263   0.809   8.720 -0.1258 -0.0893 -2.3613
   82SAPS  C318 7743   4.117   0.976   8.733  0.1430  0.0151  0.5497
   82SAPS  H18X 7744   4.171   1.031   8.653  1.5303 -2.6682 -0.4520
   82SAPS  H18Y 7745   4.141   1.027   8.828 -1.2068 -0.2671  1.0607
   82SAPS  H18Z 7746   4.006   0.982   8.732  0.1937  2.5108 -0.9696
   83SAPS     N 7747   5.758   2.491  11.404 -0.4316  0.3187  0.3316
   83SAPS   HN1 7748   5.704   2.428  11.341  0.1150  0.1856 -0.0103
   83SAPS   HN2 7749   5.761   2.440  11.494  1.0222 -1.7940 -0.8225
   83SAPS   HN3 7750   5.702   2.578  11.411 -0.2931  0.4438 -0.0953
   83SAPS   C12 7751   5.894   2.518  11.350 -0.9054  0.0205 -0.7125
   83SAPS  H12A 7752   5.944   2.585  11.419  0.5046  1.5118 -3.0326
   83SAPS   C13 7753   5.983   2.393  11.354 -0.1429  0.0560  0.1785
   83SAPS  O13A 7754   5.930   2.281  11.382  0.3846 -0.2631  1.2621
   83SAPS  O13B 7755   6.089   2.395  11.283  0.0437  0.1820  0.2783
   83SAPS   C11 7756   5.886   2.592  11.213 -0.4444  0.9954 -0.5479
   83SAPS  H11A 7757   5.837   2.515  11.149  0.6314  1.3382 -1.8282
   83SAPS  H11B 7758   5.989   2.604  11.173 -1.0542  2.2689 -1.8641
   83SAPS     P 7759   5.882   2.856  11.230 -0.1954 -0.1437 -0.0602
   83SAPS   O13 7760   5.800   2.943  11.318 -0.4772 -0.4612 -0.3736
   83SAPS   O14 7761   6.022   2.827  11.274  0.0624  0.8970 -0.1589
   83SAPS   O12 7762   5.813   2.717  11.225  0.2492  0.4844  0.5778
   83SAPS   O11 7763   5.882   2.912  11.084  0.1322 -0.4720  0.0328
   83SAPS    C1 7764   5.767   2.895  11.001 -0.7238 -0.5861 -0.0522
   83SAPS    HA 7765   5.673   2.887  11.060 -0.4947 -1.0430  0.2638
   83SAPS    HB 7766   5.763   2.984  10.936 -0.9803  0.5054  1.4009
   83SAPS    C2 7767   5.772   2.764  10.908  0.4806 -0.1702  0.3565
   83SAPS    HS 7768   5.761   2.678  10.978 -4.6101  0.2894  0.4569
   83SAPS   O21 7769   5.896   2.757  10.835 -0.0318 -0.0007 -0.3018
   83SAPS   C21 7770   5.918   2.637  10.788  0.5791 -0.0468  0.2718
   83SAPS   O22 7771   5.865   2.531  10.823  0.3087 -0.4872  0.4087
   83SAPS   C22 7772   6.028   2.648  10.683  0.8675 -0.1385 -0.0883
   83SAPS   H2R 7773   5.976   2.662  10.586  2.1164 -1.8232 -1.0435
   83SAPS   H2S 7774   6.094   2.735  10.709  1.9466 -1.1844  0.8172
   83SAPS    C3 7775   5.642   2.764  10.819  0.3506 -0.0850  0.6440
   83SAPS    HX 7776   5.558   2.757  10.891 -1.0966 -1.9821 -1.1227
   83SAPS    HY 7777   5.639   2.673  10.756 -0.1507 -0.6014  1.4020
   83SAPS   O31 7778   5.621   2.885  10.736 -0.0760 -0.3676 -0.3734
   83SAPS   C31 7779   5.701   2.893  10.631 -0.2914 -0.1159 -0.3623
   83SAPS   O32 7780   5.754   2.805  10.572 -0.1201 -0.2344 -0.0446
   83SAPS   C32 7781   5.708   3.043  10.606 -0.0261  0.4250  0.2721
   83SAPS   H2X 7782   5.785   3.084  10.674 -0.5442  3.1460 -0.6495
   83SAPS   H2Y 7783   5.604   3.082  10.619 -1.2835 -2.9271  1.4224
   83SAPS   C23 7784   6.122   2.526  10.679  0.4294  0.5838 -0.2083
   83SAPS   H3R 7785   6.075   2.435  10.636  1.5028  0.0312 -0.2688
   83SAPS   H3S 7786   6.160   2.510  10.782 -0.2350 -0.3487 -0.0964
   83SAPS   C24 7787   6.249   2.549  10.599 -0.0915  0.1825 -0.4065
   83SAPS   H4R 7788   6.320   2.467  10.625 -0.6628 -0.8987 -2.1451
   83SAPS   H4S 7789   6.304   2.640  10.630 -1.3075  0.7105  0.2664
   83SAPS   C25 7790   6.228   2.530  10.452 -0.6345 -0.7217  0.2249
   83SAPS   H5R 7791   6.210   2.426  10.423  0.5863 -0.7203 -0.6038
   83SAPS   C26 7792   6.217   2.629  10.360  0.0880  0.2422 -0.2015
   83SAPS   H6R 7793   6.214   2.601  10.254  0.9885  0.5200 -0.3058
   83SAPS   C27 7794   6.239   2.780  10.381  0.2608  0.2365 -0.2463
   83SAPS   H7R 7795   6.342   2.802  10.345  0.6997 -0.6702  0.4241
   83SAPS   H7S 7796   6.231   2.808  10.488 -0.5123  1.8521 -0.6961
   83SAPS   C28 7797   6.141   2.872  10.305  0.2093  0.0292 -0.1528
   83SAPS   H8R 7798   6.057   2.915  10.362 -1.3097 -0.9097 -1.6098
   83SAPS   C29 7799   6.126   2.895  10.177  0.4091 -0.8278  0.1600
   83SAPS   H9R 7800   6.030   2.940  10.149 -0.2664 -0.7277  2.4505
   83SAPS  C210 7801   6.204   2.832  10.072 -0.0699  0.2908  1.0242
   83SAPS  H10R 7802   6.142   2.818   9.981  0.9440  3.3419 -0.2492
   83SAPS  H10S 7803   6.228   2.727  10.101 -1.4483  0.5275  3.2304
   83SAPS  C211 7804   6.335   2.905  10.038 -0.0845  1.0086 -0.0710
   83SAPS  H11R 7805   6.386   2.961  10.118 -0.4763  0.8304  0.3106
   83SAPS  C212 7806   6.388   2.918   9.911  0.5986 -0.0242  0.0154
   83SAPS  H12R 7807   6.485   2.967   9.900  0.5660  0.4349  1.5651
   83SAPS  C213 7808   6.325   2.858   9.781 -0.3342 -0.2523  0.0889
   83SAPS  H13R 7809   6.241   2.790   9.808 -1.2454 -0.2132 -2.4261
   83SAPS  H13S 7810   6.409   2.795   9.744 -1.1313 -2.5296  1.8914
   83SAPS  C214 7811   6.281   2.966   9.689  0.2153 -0.5356 -0.6281
   83SAPS  H14R 7812   6.236   3.052   9.741 -2.5382 -2.1253 -0.1524
   83SAPS  C215 7813   6.281   2.968   9.555 -0.4230  0.1607 -0.6551
   83SAPS  H15R 7814   6.234   3.057   9.510  1.4164  0.1380 -2.8158
   83SAPS  C216 7815   6.339   2.862   9.461  1.0911 -0.2512  0.0577
   83SAPS  H16R 7816   6.252   2.806   9.422  0.4145  1.5349 -1.1261
   83SAPS  H16S 7817   6.400   2.786   9.513  0.6785 -0.2889  0.4878
   83SAPS  C217 7818   6.418   2.918   9.347 -0.0071  0.4355  0.7720
   83SAPS  H17R 7819   6.525   2.933   9.371 -0.4939  3.6562  1.3976
   83SAPS  H17S 7820   6.380   3.019   9.320 -3.4833 -0.2848  2.3783
   83SAPS  C218 7821   6.402   2.832   9.224 -0.9963 -1.2335 -0.2519
   83SAPS  H18R 7822   6.450   2.882   9.138  0.4915 -2.1434  0.0145
   83SAPS  H18S 7823   6.298   2.806   9.197 -1.4313  0.7001 -0.5682
   83SAPS  C219 7824   6.498   2.716   9.237 -0.8363 -0.2634  0.4885
   83SAPS  H19R 7825   6.460   2.657   9.323  0.3805  0.5811  1.6473
   83SAPS  H19S 7826   6.602   2.754   9.248 -1.7002  2.0789  1.2084
   83SAPS  C220 7827   6.496   2.628   9.114 -0.0571 -0.8135  1.1323
   83SAPS  H20R 7828   6.483   2.694   9.025 -0.0498  1.1822  2.5315
   83SAPS  H20S 7829   6.417   2.551   9.120 -1.6727  0.7047  0.4374
   83SAPS  H20T 7830   6.596   2.581   9.106 -1.0264 -2.6331 -1.8961
   83SAPS   C33 7831   5.741   3.087  10.461 -0.2595 -0.8351  0.5136
   83SAPS   H3X 7832   5.815   3.022  10.411  1.6346  0.8765  0.9454
   83SAPS   H3Y 7833   5.776   3.193  10.455 -1.5656 -0.4846 -2.7906
   83SAPS   C34 7834   5.624   3.086  10.365 -0.1650 -0.6063  0.0638
   83SAPS   H4X 7835   5.545   3.156  10.398  1.2338  1.2739 -0.4563
   83SAPS   H4Y 7836   5.590   2.980  10.372  0.3965 -1.1182 -3.3254
   83SAPS   C35 7837   5.663   3.129  10.217  0.4709 -0.6766  0.4920
   83SAPS   H5X 7838   5.745   3.065  10.177  0.7552 -1.0405  1.6284
   83SAPS   H5Y 7839   5.701   3.233  10.206 -1.4930 -0.0690 -1.3685
   83SAPS   C36 7840   5.542   3.096  10.117 -0.4033  0.2516 -0.2762
   83SAPS   H6X 7841   5.458   3.162  10.148  2.1822  2.9631  1.4399
   83SAPS   H6Y 7842   5.521   2.988  10.131  3.3578 -0.6875 -0.7947
   83SAPS   C37 7843   5.591   3.126   9.980 -0.5813  0.0845 -0.7516
   83SAPS   H7X 7844   5.699   3.107   9.962  0.6745  3.8522  1.5503
   83SAPS   H7Y 7845   5.579   3.235   9.961 -0.3709  0.2806  0.1506
   83SAPS   C38 7846   5.501   3.059   9.875 -0.0098 -0.0982 -0.2341
   83SAPS   H8X 7847   5.397   3.080   9.905 -0.0813 -1.8776  0.8509
   83SAPS   H8Y 7848   5.518   2.951   9.892  0.4698 -0.6428 -3.4009
   83SAPS   C39 7849   5.539   3.091   9.736 -0.3154  0.1312 -0.0526
   83SAPS   H9X 7850   5.463   3.045   9.668 -1.7630 -0.3282  1.7973
   83SAPS   H9Y 7851   5.632   3.033   9.721 -0.6657 -0.6928  0.8254
   83SAPS  C310 7852   5.573   3.234   9.691 -0.3604 -0.0655 -0.4872
   83SAPS  H10X 7853   5.679   3.258   9.715 -0.3324 -1.3650  0.8053
   83SAPS  H10Y 7854   5.508   3.313   9.735  1.0301 -0.2204  2.0086
   83SAPS  C311 7855   5.558   3.246   9.538 -0.1777  0.0670 -0.4721
   83SAPS  H11X 7856   5.570   3.354   9.515  1.6609 -0.5441 -2.8197
   83SAPS  H11Y 7857   5.454   3.207   9.529 -0.5332  0.7541  0.4979
   83SAPS  C312 7858   5.638   3.148   9.451 -0.9369  0.2635 -0.2730
   83SAPS  H12X 7859   5.622   3.047   9.495  2.0478 -0.1267  0.1676
   83SAPS  H12Y 7860   5.746   3.174   9.455 -1.0279  0.6456 -0.2785
   83SAPS  C313 7861   5.600   3.168   9.303  0.2915 -0.4485  0.3282
   83SAPS  H13X 7862   5.583   3.274   9.277  0.8951  0.1241  2.1392
   83SAPS  H13Y 7863   5.505   3.113   9.283  0.0541 -0.1767  0.7016
   83SAPS  C314 7864   5.704   3.117   9.212 -0.1371  0.1650 -0.2012
   83SAPS  H14X 7865   5.745   3.023   9.254 -1.7660 -0.0628  0.9452
   83SAPS  H14Y 7866   5.795   3.177   9.190  0.0486 -0.2480 -0.5796
   83SAPS  C315 7867   5.656   3.076   9.072  1.1208 -0.6934 -0.4918
   83SAPS  H15X 7868   5.589   2.987   9.075 -1.7722  1.3820  1.0817
   83SAPS  H15Y 7869   5.746   3.055   9.011  1.1995  0.2018 -0.6931
   83SAPS  C316 7870   5.574   3.188   8.994 -0.3728  0.4430  0.9991
   83SAPS  H16X 7871   5.482   3.203   9.054 -1.3157 -1.1011  0.0003
   83SAPS  H16Y 7872   5.549   3.149   8.893  0.3897  0.0624  0.9512
   83SAPS  C317 7873   5.649   3.317   8.966 -0.2201  0.2601 -0.6106
   83SAPS  H17X 7874   5.741   3.292   8.909  0.1245  0.8390 -0.3208
   83SAPS  H17Y 7875   5.694   3.357   9.060 -1.4419  0.8042 -0.2392
   83SAPS  C318 7876   5.563   3.431   8.909  0.2620  0.0083 -0.4716
   83SAPS  H18X 7877   5.458   3.416   8.941  0.1554  0.9588 -0.3382
   83SAPS  H18Y 7878   5.566   3.427   8.798 -1.7180 -0.1000 -0.5498
   83SAPS  H18Z 7879   5.603   3.530   8.939 -1.2044  0.8821 -1.3075
   84SAPS     N 7880   0.578   3.437  11.452  0.0328 -0.3800  0.0409
   84SAPS   HN1 7881   0.658   3.401  11.397 -0.5505  1.4818 -2.1967
   84SAPS   HN2 7882   0.596   3.411  11.551  1.8611  0.5236 -0.0016
   84SAPS   HN3 7883   0.488   3.397  11.420 -0.7846  1.3270  0.0948
   84SAPS   C12 7884   0.569   3.590  11.454  0.0503 -0.6796 -0.6447
   84SAPS  H12A 7885   0.485   3.617  11.516 -0.8747  1.9028 -2.8509
   84SAPS   C13 7886   0.696   3.655  11.513 -0.4369 -0.4236 -0.3959
   84SAPS  O13A 7887   0.787   3.579  11.562  0.7733 -0.1543  0.2199
   84SAPS  O13B 7888   0.709   3.776  11.521  0.4569  0.5814  0.4038
   84SAPS   C11 7889   0.554   3.635  11.309 -0.6482  0.6535 -0.5647
   84SAPS  H11A 7890   0.636   3.581  11.258 -2.3602 -3.1654  0.3259
   84SAPS  H11B 7891   0.569   3.741  11.278 -0.7360  0.5604 -0.9285
   84SAPS     P 7892   0.296   3.676  11.268 -0.1838 -0.0387 -0.0152
   84SAPS   O13 7893   0.259   3.676  11.411 -0.0122 -0.4552  0.2580
   84SAPS   O14 7894   0.312   3.808  11.201  0.2770  0.5880 -0.3178
   84SAPS   O12 7895   0.433   3.592  11.246  0.0112  0.3958  0.3275
   84SAPS   O11 7896   0.180   3.598  11.194  0.0654 -0.4572 -0.1072
   84SAPS    C1 7897   0.193   3.455  11.170 -0.5208 -0.6368  0.2613
   84SAPS    HA 7898   0.242   3.391  11.246  2.4051  0.1721 -0.8058
   84SAPS    HB 7899   0.088   3.422  11.160 -0.2804 -1.2501 -0.2936
   84SAPS    C2 7900   0.254   3.418  11.032 -0.8322  0.4408  0.1944
   84SAPS    HS 7901   0.364   3.430  11.044 -0.7255  0.0897 -0.4088
   84SAPS   O21 7902   0.191   3.492  10.925  0.0236  0.7434 -0.0928
   84SAPS   C21 7903   0.246   3.481  10.804  0.2075  0.6554  0.4959
   84SAPS   O22 7904   0.353   3.424  10.787 -0.2245  0.0399 -0.0201
   84SAPS   C22 7905   0.151   3.518  10.697  0.4787  0.4697  0.2787
   84SAPS   H2R 7906   0.066   3.446  10.692 -0.7194  1.9201 -2.3849
   84SAPS   H2S 7907   0.109   3.617  10.727  2.0330  1.1152  0.4001
   84SAPS    C3 7908   0.225   3.260  11.016 -0.2689 -1.3858 -0.5611
   84SAPS    HX 7909   0.114   3.257  11.009 -0.3367 -1.4479  0.4023
   84SAPS    HY 7910   0.259   3.210  11.109  0.1888  0.1170  0.0987
   84SAPS   O31 7911   0.283   3.200  10.900  0.1497  0.2182  0.3864
   84SAPS   C31 7912   0.354   3.088  10.913  0.1459  0.6109  0.5394
   84SAPS   O32 7913   0.376   3.029  11.017 -0.3253 -0.2586  0.2578
   84SAPS   C32 7914   0.397   3.031  10.777 -0.5578  0.1866 -0.2118
   84SAPS   H2X 7915   0.426   2.928  10.808 -1.2556  0.4739  1.4961
   84SAPS   H2Y 7916   0.491   3.083  10.749 -0.5163  0.2674  0.0717
   84SAPS   C23 7917   0.211   3.537  10.553  0.6996  0.7664  0.6280
   84SAPS   H3R 7918   0.303   3.598  10.564 -0.2968  2.5010 -0.2366
   84SAPS   H3S 7919   0.137   3.596  10.496  0.1192 -1.6712 -1.3435
   84SAPS   C24 7920   0.267   3.409  10.486 -0.0936 -0.1390 -0.7139
   84SAPS   H4R 7921   0.319   3.334  10.550  0.5353  0.3426 -0.6437
   84SAPS   H4S 7922   0.345   3.441  10.413  1.0457  0.7760  0.8404
   84SAPS   C25 7923   0.161   3.335  10.412 -0.4027 -0.2608 -0.2354
   84SAPS   H5R 7924   0.119   3.256  10.476 -1.0055  0.4883  0.3101
   84SAPS   C26 7925   0.127   3.346  10.280 -0.1914 -0.2675 -0.2859
   84SAPS   H6R 7926   0.043   3.292  10.236  0.4306 -0.9676 -0.6404
   84SAPS   C27 7927   0.177   3.436  10.171  0.5539 -0.0109  0.3947
   84SAPS   H7R 7928   0.282   3.457  10.202  0.8327 -1.7906  0.7997
   84SAPS   H7S 7929   0.128   3.536  10.173 -3.4334 -1.7700  0.0758
   84SAPS   C28 7930   0.178   3.373  10.036 -0.5376 -0.5111 -0.3530
   84SAPS   H8R 7931   0.186   3.263  10.039  1.4059 -0.3979  1.8202
   84SAPS   C29 7932   0.188   3.435   9.915 -0.0679  0.4773 -0.2240
   84SAPS   H9R 7933   0.216   3.374   9.829 -0.8509 -0.8057  0.4036
   84SAPS  C210 7934   0.184   3.586   9.899  0.0067 -0.1695  0.6077
   84SAPS  H10R 7935   0.291   3.612   9.911  0.7045 -3.0616  1.2879
   84SAPS  H10S 7936   0.124   3.651   9.967 -0.8648  0.1593 -0.4337
   84SAPS  C211 7937   0.138   3.627   9.758  0.3058 -0.0380 -0.8212
   84SAPS  H11R 7938   0.042   3.681   9.758 -0.1674 -0.8249 -2.2182
   84SAPS  C212 7939   0.206   3.612   9.646 -0.5201 -0.5107 -0.1749
   84SAPS  H12R 7940   0.168   3.660   9.554 -0.3843  1.3059  0.6695
   84SAPS  C213 7941   0.350   3.550   9.629  1.0263 -0.2968  0.0764
   84SAPS  H13R 7942   0.409   3.534   9.722  0.2395 -1.0027  0.4630
   84SAPS  H13S 7943   0.411   3.624   9.572 -1.5701  1.1308 -1.0283
   84SAPS  C214 7944   0.338   3.421   9.555 -0.5144  0.0832  0.5635
   84SAPS  H14R 7945   0.385   3.333   9.600 -2.0398 -1.4903 -0.7881
   84SAPS  C215 7946   0.305   3.405   9.428 -0.2960 -0.6018  0.5728
   84SAPS  H15R 7947   0.296   3.308   9.378  3.5528 -0.6264 -0.4230
   84SAPS  C216 7948   0.267   3.525   9.341 -0.8122 -0.3424 -1.0451
   84SAPS  H16R 7949   0.303   3.622   9.382 -0.0291 -0.4382 -1.4873
   84SAPS  H16S 7950   0.157   3.531   9.348 -0.7443  0.3585 -0.3662
   84SAPS  C217 7951   0.297   3.509   9.192  0.0610  0.4478  0.1378
   84SAPS  H17R 7952   0.238   3.424   9.151  1.3715  0.4844 -1.9689
   84SAPS  H17S 7953   0.408   3.503   9.183  0.6180  0.3569  4.8544
   84SAPS  C218 7954   0.251   3.632   9.110 -0.1904  0.3114  0.0071
   84SAPS  H18R 7955   0.321   3.717   9.130 -1.2417  1.0248  0.7451
   84SAPS  H18S 7956   0.147   3.653   9.142  0.3359  1.3816  1.1142
   84SAPS  C219 7957   0.255   3.599   8.956 -0.1267 -0.0800  0.3595
   84SAPS  H19R 7958   0.203   3.679   8.898 -0.8172 -0.2546  0.7364
   84SAPS  H19S 7959   0.188   3.513   8.936  2.1841 -1.6763 -1.0846
   84SAPS  C220 7960   0.397   3.579   8.908  0.5218 -0.0826 -0.4164
   84SAPS  H20R 7961   0.466   3.662   8.935  0.4790 -0.2366  0.1774
   84SAPS  H20S 7962   0.395   3.565   8.798 -1.7324  0.1017 -0.4465
   84SAPS  H20T 7963   0.440   3.487   8.953  0.9295 -0.8131 -2.2055
   84SAPS   C33 7964   0.286   3.029  10.664 -0.1484 -0.2014  0.4346
   84SAPS   H3X 7965   0.259   3.131  10.630 -0.1812 -0.3627 -0.0446
   84SAPS   H3Y 7966   0.195   2.983  10.709  0.3370 -0.3696  1.2674
   84SAPS   C34 7967   0.337   2.959  10.539  0.1959  0.5715  0.2537
   84SAPS   H4X 7968   0.253   2.906  10.488  0.6951  0.9382 -1.0049
   84SAPS   H4Y 7969   0.404   2.873  10.564 -2.0978 -1.2809  0.3863
   84SAPS   C35 7970   0.410   3.041  10.431 -0.6180  0.1160 -0.3261
   84SAPS   H5X 7971   0.506   3.091  10.455 -0.7609 -0.4100  1.5366
   84SAPS   H5Y 7972   0.338   3.122  10.409  1.5437  2.0624 -0.5610
   84SAPS   C36 7973   0.437   2.963  10.305  0.0764  0.6971  0.7351
   84SAPS   H6X 7974   0.366   2.879  10.287  0.5319  0.6581 -1.1172
   84SAPS   H6Y 7975   0.534   2.912  10.322 -0.1361 -0.7143 -1.7985
   84SAPS   C37 7976   0.450   3.046  10.174  0.0237  0.7146 -0.6015
   84SAPS   H7X 7977   0.520   3.129  10.195  0.9580 -0.3410  0.6697
   84SAPS   H7Y 7978   0.355   3.099  10.155  0.5788  1.0266 -2.7572
   84SAPS   C38 7979   0.493   2.967  10.052  0.0734 -0.2410 -0.0607
   84SAPS   H8X 7980   0.431   2.878  10.028 -0.2450  0.2275 -1.0343
   84SAPS   H8Y 7981   0.590   2.916  10.071  1.2429  1.1490 -1.8923
   84SAPS   C39 7982   0.506   3.056   9.926  0.7274  0.4138  0.2879
   84SAPS   H9X 7983   0.599   3.117   9.929  1.9420 -1.2553 -0.9987
   84SAPS   H9Y 7984   0.428   3.134   9.931  1.4086  1.1433 -0.2439
   84SAPS  C310 7985   0.506   2.970   9.791  1.1395 -0.2910 -0.3160
   84SAPS  H10X 7986   0.406   2.923   9.779  1.2236 -0.5863  0.1243
   84SAPS  H10Y 7987   0.586   2.893   9.797  2.1585  0.8534  2.8385
   84SAPS  C311 7988   0.529   3.053   9.668  0.0649  0.7077  0.7254
   84SAPS  H11X 7989   0.623   3.105   9.696  1.0395 -1.5036  1.8619
   84SAPS  H11Y 7990   0.454   3.134   9.654 -0.0489  0.5624  0.4747
   84SAPS  C312 7991   0.547   2.993   9.524 -0.3685 -0.2226 -0.4649
   84SAPS  H12X 7992   0.609   2.901   9.524  1.1581  0.7678 -0.7255
   84SAPS  H12Y 7993   0.601   3.069   9.464  0.9142 -1.0681 -0.4261
   84SAPS  C313 7994   0.422   2.956   9.448 -0.5937 -0.3058 -0.3547
   84SAPS  H13X 7995   0.359   3.048   9.453  0.1639  0.1824  0.8669
   84SAPS  H13Y 7996   0.370   2.875   9.504  1.9544 -1.3640  0.6692
   84SAPS  C314 7997   0.443   2.906   9.304 -0.1099  0.1676 -0.0016
   84SAPS  H14X 7998   0.351   2.866   9.255  0.3004 -0.1177 -0.5535
   84SAPS  H14Y 7999   0.522   2.829   9.308 -0.4940 -0.3053 -1.0755
   84SAPS  C315 8000   0.479   3.018   9.204  0.0030  0.4037 -0.2010
   84SAPS  H15X 8001   0.565   3.074   9.246  0.6543 -1.0221  0.4187
   84SAPS  H15Y 8002   0.394   3.088   9.190  1.6877  2.4187 -0.7585
   84SAPS  C316 8003   0.527   2.974   9.066 -0.9657  0.1873  0.3161
   84SAPS  H16X 8004   0.438   2.921   9.026 -0.8151 -1.4359  2.0206
   84SAPS  H16Y 8005   0.617   2.911   9.079  0.8256  2.0877 -2.0554
   84SAPS  C317 8006   0.588   3.080   8.975  0.3366  0.1715  0.1789
   84SAPS  H17X 8007   0.696   3.093   8.997 -0.0109  1.4661  1.2343
   84SAPS  H17Y 8008   0.530   3.170   9.003  0.2254  0.0501  0.3405
   84SAPS  C318 8009   0.564   3.069   8.828  0.4077 -0.4845 -0.0638
   84SAPS  H18X 8010   0.454   3.062   8.815  0.4495 -1.5548  0.0734
   84SAPS  H18Y 8011   0.606   2.970   8.802 -1.5249 -1.2822 -0.3677
   84SAPS  H18Z 8012   0.602   3.156   8.769  0.9713 -0.6456  0.0576
   85SAPS     N 8013   5.282   3.871  11.099 -0.1853 -0.9591 -0.4181
   85SAPS   HN1 8014   5.378   3.899  11.069 -0.0714 -0.9787 -0.0846
   85SAPS   HN2 8015   5.230   3.861  11.010 -0.3157 -0.7158 -0.3693
   85SAPS   HN3 8016   5.247   3.957  11.144  0.5639 -1.3305  0.9476
   85SAPS   C12 8017   5.277   3.763  11.193  1.1524 -0.4063 -0.2388
   85SAPS  H12A 8018   5.325   3.677  11.150 -0.6787 -2.1936  1.1137
   85SAPS   C13 8019   5.350   3.800  11.329  0.7010  0.4886 -0.3309
   85SAPS  O13A 8020   5.394   3.908  11.365  0.0388  0.1123 -0.0765
   85SAPS  O13B 8021   5.332   3.714  11.422  0.0922  0.6085  0.7400
   85SAPS   C11 8022   5.125   3.712  11.211  0.3424 -0.5867 -0.4432
   85SAPS  H11A 8023   5.080   3.795  11.269  1.3561 -0.5914  0.3814
   85SAPS  H11B 8024   5.122   3.619  11.272 -2.5429 -0.1499  0.2224
   85SAPS     P 8025   4.898   3.644  11.090 -0.2125  0.0387  0.0958
   85SAPS   O13 8026   4.867   3.571  11.216  0.2706 -0.1932  0.2727
   85SAPS   O14 8027   4.811   3.751  11.049 -0.1142 -0.1440 -0.1252
   85SAPS   O12 8028   5.055   3.693  11.093 -0.5580 -0.0542 -0.5056
   85SAPS   O11 8029   4.895   3.529  10.981 -0.1737 -0.2426 -0.5273
   85SAPS    C1 8030   4.994   3.527  10.875 -0.3130  0.3805 -0.1957
   85SAPS    HA 8031   5.097   3.516  10.916 -0.8626  2.3221  1.9552
   85SAPS    HB 8032   4.973   3.433  10.820  1.5299 -0.1257 -0.0922
   85SAPS    C2 8033   4.983   3.647  10.774 -0.0931 -0.0503  0.2516
   85SAPS    HS 8034   5.000   3.737  10.837 -0.3098  0.2499 -0.1173
   85SAPS   O21 8035   4.855   3.634  10.722  0.1187  0.3917 -0.4307
   85SAPS   C21 8036   4.820   3.736  10.655  0.8291  0.3966 -0.1694
   85SAPS   O22 8037   4.881   3.839  10.647  0.0084 -0.6984 -0.0478
   85SAPS   C22 8038   4.681   3.703  10.586  0.2391 -0.1762 -0.0589
   85SAPS   H2R 8039   4.669   3.594  10.573 -0.9191  0.0768 -1.3650
   85SAPS   H2S 8040   4.606   3.735  10.661  2.4938  0.4516  2.0696
   85SAPS    C3 8041   5.091   3.642  10.664 -0.9640 -0.0424 -0.5789
   85SAPS    HX 8042   5.188   3.608  10.709 -2.9657 -2.7605  2.1007
   85SAPS    HY 8043   5.108   3.747  10.634  0.4902 -0.4473 -1.2733
   85SAPS   O31 8044   5.062   3.549  10.549  0.0429  0.1968 -0.1874
   85SAPS   C31 8045   5.103   3.420  10.547  1.0299 -0.9182 -0.8929
   85SAPS   O32 8046   5.160   3.362  10.639 -0.4010 -0.4969 -0.2506
   85SAPS   C32 8047   5.040   3.354  10.420 -0.5900 -0.6307 -0.2963
   85SAPS   H2X 8048   4.929   3.359  10.422 -0.5973  0.8547 -2.1381
   85SAPS   H2Y 8049   5.077   3.249  10.422 -0.7776 -0.8918 -3.8735
   85SAPS   C23 8050   4.662   3.776  10.450 -0.4435 -0.0613 -0.0243
   85SAPS   H3R 8051   4.651   3.886  10.465 -2.6607  0.0322 -1.8940
   85SAPS   H3S 8052   4.560   3.761  10.410  0.0798  3.0048 -3.0105
   85SAPS   C24 8053   4.770   3.740  10.345 -0.8576  0.0890  0.0145
   85SAPS   H4R 8054   4.872   3.776  10.370 -0.2428 -0.0670 -2.0779
   85SAPS   H4S 8055   4.738   3.799  10.256 -0.9672 -0.2356 -0.1604
   85SAPS   C25 8056   4.778   3.588  10.309  0.1552 -0.4507 -0.2848
   85SAPS   H5R 8057   4.822   3.533  10.394  2.3216  2.7352  0.8277
   85SAPS   C26 8058   4.736   3.513  10.206  0.7078  0.4612 -1.0064
   85SAPS   H6R 8059   4.755   3.405  10.196 -1.6961 -0.4529  2.5751
   85SAPS   C27 8060   4.677   3.571  10.079 -0.2286 -0.3085 -0.8579
   85SAPS   H7R 8061   4.631   3.670  10.100 -0.4363 -0.5517 -0.1193
   85SAPS   H7S 8062   4.599   3.512  10.029 -0.2763  1.1561 -2.6106
   85SAPS   C28 8063   4.792   3.591   9.981 -0.2128 -0.0468 -0.1895
   85SAPS   H8R 8064   4.873   3.654  10.021 -1.1460  0.5003  0.8891
   85SAPS   C29 8065   4.795   3.552   9.849  0.6025  0.4471 -0.3195
   85SAPS   H9R 8066   4.888   3.559   9.790  1.0959  2.0198  0.5884
   85SAPS  C210 8067   4.679   3.489   9.778 -0.1464  0.1603  0.3971
   85SAPS  H10R 8068   4.685   3.534   9.677 -2.6681  0.7324  0.4552
   85SAPS  H10S 8069   4.580   3.523   9.814 -1.3379 -1.3531 -1.2535
   85SAPS  C211 8070   4.673   3.342   9.776  1.0580 -0.2509  0.8481
   85SAPS  H11R 8071   4.649   3.293   9.872 -0.5667  1.9528  1.6366
   85SAPS  C212 8072   4.695   3.249   9.681 -0.1038 -0.3386  0.7783
   85SAPS  H12R 8073   4.703   3.143   9.705 -0.3971 -0.8958 -1.3530
   85SAPS  C213 8074   4.737   3.272   9.542  0.6788 -0.6088  0.9121
   85SAPS  H13R 8075   4.834   3.222   9.525  0.2182 -1.7536  1.5466
   85SAPS  H13S 8076   4.754   3.380   9.525 -3.5566  0.0706  0.0037
   85SAPS  C214 8077   4.624   3.207   9.458 -0.0510 -0.1989 -0.8562
   85SAPS  H14R 8078   4.588   3.110   9.494  0.2494 -1.3328 -3.3851
   85SAPS  C215 8079   4.562   3.261   9.351 -0.2085 -0.4613  0.2695
   85SAPS  H15R 8080   4.478   3.204   9.310 -0.9619  0.3088  0.7007
   85SAPS  C216 8081   4.595   3.394   9.289 -0.1406 -0.3049 -0.2047
   85SAPS  H16R 8082   4.563   3.397   9.183 -0.7501  0.7093  0.0026
   85SAPS  H16S 8083   4.705   3.413   9.291 -0.1965  0.0040  0.3636
   85SAPS  C217 8084   4.535   3.510   9.368 -0.0598 -0.4613 -0.3255
   85SAPS  H17R 8085   4.531   3.473   9.473  2.4245 -1.2268 -0.4264
   85SAPS  H17S 8086   4.431   3.521   9.331  0.1030  2.2954 -0.1605
   85SAPS  C218 8087   4.615   3.639   9.369  0.0122 -0.2593 -0.2027
   85SAPS  H18R 8088   4.714   3.630   9.418 -1.0030 -2.8503  1.6078
   85SAPS  H18S 8089   4.563   3.722   9.422  1.2596  1.2658 -1.2891
   85SAPS  C219 8090   4.628   3.682   9.219  0.1263 -0.6637 -0.2292
   85SAPS  H19R 8091   4.527   3.706   9.180  0.5342 -0.5519 -1.2530
   85SAPS  H19S 8092   4.672   3.599   9.160  1.6395  0.3682 -0.6282
   85SAPS  C220 8093   4.717   3.804   9.190  0.4426  0.5588 -0.6561
   85SAPS  H20R 8094   4.704   3.884   9.266 -1.4585 -1.7121  1.6320
   85SAPS  H20S 8095   4.688   3.834   9.087 -2.1874 -1.0269 -0.4794
   85SAPS  H20T 8096   4.824   3.774   9.193  0.5168  0.8246 -0.6739
   85SAPS   C33 8097   5.099   3.419  10.292 -0.2988 -0.3672 -0.0793
   85SAPS   H3X 8098   5.206   3.439  10.312 -0.2520 -1.3168  0.7112
   85SAPS   H3Y 8099   5.050   3.516  10.269 -0.0158 -0.1198  0.3503
   85SAPS   C34 8100   5.089   3.328  10.167  0.4061  0.3439  0.3668
   85SAPS   H4X 8101   4.982   3.298  10.161  0.6054 -0.3393  0.1255
   85SAPS   H4Y 8102   5.147   3.241  10.203 -1.3775  0.4087  3.9037
   85SAPS   C35 8103   5.131   3.395  10.041 -0.0670  0.5094 -1.4032
   85SAPS   H5X 8104   5.198   3.472  10.084 -1.9978  1.3026  0.3710
   85SAPS   H5Y 8105   5.043   3.447   9.999  0.1528  2.2742  0.2312
   85SAPS   C36 8106   5.190   3.308   9.929  0.6058  0.6611 -0.0318
   85SAPS   H6X 8107   5.273   3.245   9.966  1.1445  0.8580 -0.8763
   85SAPS   H6Y 8108   5.235   3.372   9.850  2.3440 -1.8239 -1.2223
   85SAPS   C37 8109   5.070   3.214   9.868 -0.6834  0.7882 -0.2108
   85SAPS   H7X 8110   4.987   3.286   9.852 -0.2133  2.0205  2.3366
   85SAPS   H7Y 8111   5.039   3.143   9.947  2.6082  2.1438  2.5304
   85SAPS   C38 8112   5.113   3.127   9.749  0.6776  0.2700 -0.1624
   85SAPS   H8X 8113   5.035   3.051   9.730  0.1793  0.9013 -0.6709
   85SAPS   H8Y 8114   5.213   3.087   9.774  1.1484  2.0031  0.9208
   85SAPS   C39 8115   5.128   3.213   9.627  0.3627  0.4421  0.7655
   85SAPS   H9X 8116   5.210   3.288   9.634 -0.2404  1.2404 -0.4323
   85SAPS   H9Y 8117   5.033   3.269   9.614  0.9295  0.8210 -3.1426
   85SAPS  C310 8118   5.142   3.133   9.491 -0.6884  0.0567 -0.5609
   85SAPS  H10X 8119   5.057   3.066   9.466 -0.6608  0.1780 -0.9929
   85SAPS  H10Y 8120   5.229   3.070   9.518 -0.0327 -0.3326 -3.2594
   85SAPS  C311 8121   5.166   3.219   9.366 -0.0665  0.3329 -0.4066
   85SAPS  H11X 8122   5.254   3.288   9.372  1.6728 -1.8516  0.9252
   85SAPS  H11Y 8123   5.071   3.276   9.367 -0.0808  0.3123 -0.7449
   85SAPS  C312 8124   5.179   3.133   9.237  0.0238 -0.5399  0.2271
   85SAPS  H12X 8125   5.112   3.045   9.246  0.5847 -1.1477 -1.2599
   85SAPS  H12Y 8126   5.282   3.092   9.237  0.9047  1.5324  0.8260
   85SAPS  C313 8127   5.133   3.215   9.106  0.6222 -0.5251  0.1774
   85SAPS  H13X 8128   5.130   3.139   9.024  0.3525 -1.0139  0.6342
   85SAPS  H13Y 8129   5.217   3.284   9.081 -0.3487  0.8035  0.5242
   85SAPS  C314 8130   4.989   3.268   9.110  1.0050  0.1756  0.0525
   85SAPS  H14X 8131   4.974   3.341   9.193 -1.2273 -1.0477  0.8102
   85SAPS  H14Y 8132   4.919   3.183   9.127 -0.7363  1.0476 -2.2480
   85SAPS  C315 8133   4.943   3.334   8.976 -0.2210 -0.3464 -0.0892
   85SAPS  H15X 8134   4.980   3.270   8.893 -1.9258  1.7858 -2.6494
   85SAPS  H15Y 8135   4.998   3.430   8.971 -0.2103 -0.2924  0.9468
   85SAPS  C316 8136   4.795   3.356   8.963  0.0056 -0.3573 -0.1540
   85SAPS  H16X 8137   4.773   3.413   9.055  1.3945 -1.5186  0.9450
   85SAPS  H16Y 8138   4.740   3.260   8.970 -1.0588  0.3080  1.0221
   85SAPS  C317 8139   4.755   3.436   8.837  0.8490 -0.2867  0.5230
   85SAPS  H17X 8140   4.836   3.510   8.817 -0.3670  1.5060  1.8450
   85SAPS  H17Y 8141   4.666   3.501   8.853  1.7642  1.3181 -0.5694
   85SAPS  C318 8142   4.727   3.357   8.705 -0.6274  0.1976  0.3811
   85SAPS  H18X 8143   4.635   3.295   8.712 -0.1719 -0.5907 -0.4244
   85SAPS  H18Y 8144   4.813   3.288   8.700  0.9139  1.8028  2.6012
   85SAPS  H18Z 8145   4.729   3.425   8.616 -3.3991  0.4187  0.4101
   86SAPS     N 8146   1.579   4.174  10.871  0.2357 -0.4213 -0.0997
   86SAPS   HN1 8147   1.492   4.229  10.882  1.7694  1.8908  1.2967
   86SAPS   HN2 8148   1.644   4.254  10.855 -0.0869  0.5201  2.7454
   86SAPS   HN3 8149   1.575   4.115  10.785  0.8550 -0.8577  0.1665
   86SAPS   C12 8150   1.602   4.100  10.992 -0.2213  0.0065 -0.1014
   86SAPS  H12A 8151   1.706   4.070  10.991  0.5570  2.4351 -1.6265
   86SAPS   C13 8152   1.578   4.185  11.120  0.2522  0.3173 -0.3515
   86SAPS  O13A 8153   1.527   4.297  11.115  0.2103 -0.4740 -0.7996
   86SAPS  O13B 8154   1.592   4.122  11.226  1.1182  0.0951 -0.2103
   86SAPS   C11 8155   1.509   3.981  10.986 -0.3592 -0.0510 -0.9145
   86SAPS  H11A 8156   1.403   4.006  10.963 -0.4770 -1.9011 -2.7529
   86SAPS  H11B 8157   1.514   3.942  11.090 -0.8502  0.0816 -0.8368
   86SAPS     P 8158   1.501   3.741  10.881  0.0828  0.0915  0.1822
   86SAPS   O13 8159   1.565   3.672  10.768 -0.9813 -0.2837 -0.0343
   86SAPS   O14 8160   1.517   3.676  11.011  0.2910 -0.0396 -0.2277
   86SAPS   O12 8161   1.562   3.885  10.896  0.4781 -0.0960 -0.6271
   86SAPS   O11 8162   1.348   3.770  10.858  0.2162  0.7955  0.0841
   86SAPS    C1 8163   1.297   3.866  10.758 -0.2716 -0.0754 -0.1536
   86SAPS    HA 8164   1.215   3.924  10.804 -0.3150  0.5776 -1.0322
   86SAPS    HB 8165   1.380   3.932  10.726 -0.6306  0.1424 -0.6523
   86SAPS    C2 8166   1.234   3.781  10.645  0.0097 -1.0533  0.2959
   86SAPS    HS 8167   1.146   3.729  10.689 -0.1971 -3.1101 -2.2963
   86SAPS   O21 8168   1.330   3.686  10.586  0.2377 -0.0125  0.0983
   86SAPS   C21 8169   1.434   3.734  10.517  0.8899 -0.6055  0.5242
   86SAPS   O22 8170   1.463   3.854  10.501  0.5479 -0.4306 -0.2031
   86SAPS   C22 8171   1.524   3.618  10.462 -0.4397 -0.4641  0.1443
   86SAPS   H2R 8172   1.570   3.571  10.552 -0.7689 -1.4685 -0.1948
   86SAPS   H2S 8173   1.454   3.541  10.421 -0.0585 -0.3804 -0.6778
   86SAPS    C3 8174   1.165   3.875  10.545  0.0566  0.1371  0.3205
   86SAPS    HX 8175   1.237   3.957  10.523  3.9454 -3.2896 -0.8447
   86SAPS    HY 8176   1.073   3.924  10.583 -0.5612 -0.5493 -0.2676
   86SAPS   O31 8177   1.136   3.813  10.419 -0.1957 -0.1750 -0.0881
   86SAPS   C31 8178   1.029   3.741  10.420  0.5598  0.3894 -0.4363
   86SAPS   O32 8179   0.962   3.705  10.521  0.0489 -0.2569 -0.3466
   86SAPS   C32 8180   0.996   3.684  10.282 -0.0019 -0.1968 -0.0196
   86SAPS   H2X 8181   0.919   3.748  10.234  1.5013  0.7284 -1.2962
   86SAPS   H2Y 8182   0.959   3.581  10.304 -1.6568  0.9662  3.2274
   86SAPS   C23 8183   1.614   3.663  10.346  0.4196  0.2644 -0.5937
   86SAPS   H3R 8184   1.664   3.757  10.378  0.6537  0.8621 -2.5755
   86SAPS   H3S 8185   1.557   3.690  10.255  1.2878 -1.3379 -1.6595
   86SAPS   C24 8186   1.719   3.555  10.337 -0.0721 -0.4962  0.5906
   86SAPS   H4R 8187   1.683   3.452  10.318 -0.4707 -0.6999  2.2794
   86SAPS   H4S 8188   1.766   3.557  10.438 -0.8592  0.4507  0.9623
   86SAPS   C25 8189   1.823   3.612  10.246 -0.1746 -0.3182 -0.2468
   86SAPS   H5R 8190   1.907   3.652  10.305  0.6262 -0.5522 -1.2072
   86SAPS   C26 8191   1.846   3.602  10.114 -0.1677 -0.0498 -0.0463
   86SAPS   H6R 8192   1.939   3.645  10.075 -0.1978  0.6316  0.5988
   86SAPS   C27 8193   1.761   3.542  10.006 -0.0725  0.2088 -0.4096
   86SAPS   H7R 8194   1.724   3.441  10.033 -0.9861  0.8177  0.7197
   86SAPS   H7S 8195   1.824   3.513   9.920 -0.4330 -1.5048 -0.1381
   86SAPS   C28 8196   1.644   3.628   9.971  0.1054  0.9156  0.4293
   86SAPS   H8R 8197   1.561   3.616  10.042  0.9842  0.8073  1.4655
   86SAPS   C29 8198   1.627   3.689   9.857  0.1648 -0.7106  0.1922
   86SAPS   H9R 8199   1.539   3.755   9.847  0.1896 -0.8062 -0.7332
   86SAPS  C210 8200   1.725   3.690   9.740  0.1381  0.3483 -0.3863
   86SAPS  H10R 8201   1.679   3.624   9.663  0.1352  0.3730 -0.4056
   86SAPS  H10S 8202   1.828   3.662   9.768  0.6688  1.4849 -1.1250
   86SAPS  C211 8203   1.745   3.829   9.679  0.6425  0.3444 -0.2261
   86SAPS  H11R 8204   1.781   3.907   9.748 -0.8802  0.7809  0.1142
   86SAPS  C212 8205   1.729   3.864   9.543  0.1747 -0.0246 -0.3040
   86SAPS  H12R 8206   1.729   3.971   9.516  0.4454 -0.2466 -1.2231
   86SAPS  C213 8207   1.700   3.773   9.429  0.0289 -1.2202 -0.0577
   86SAPS  H13R 8208   1.726   3.668   9.454 -1.5152 -1.5595  0.2091
   86SAPS  H13S 8209   1.776   3.807   9.355  2.2147  1.6623  3.1868
   86SAPS  C214 8210   1.561   3.781   9.364 -0.0535 -0.1971 -0.5282
   86SAPS  H14R 8211   1.473   3.763   9.427  1.6154 -1.0269  1.7044
   86SAPS  C215 8212   1.534   3.796   9.231  0.5094 -0.1091  0.6164
   86SAPS  H15R 8213   1.430   3.811   9.199  1.2673  2.8861 -0.7225
   86SAPS  C216 8214   1.627   3.796   9.114 -0.1143  0.6619  0.1224
   86SAPS  H16R 8215   1.611   3.706   9.051 -4.2371  0.7788  0.7710
   86SAPS  H16S 8216   1.732   3.800   9.150 -0.5040 -0.8311  1.5829
   86SAPS  C217 8217   1.583   3.908   9.026  0.1914 -0.0462  0.3541
   86SAPS  H17R 8218   1.663   3.923   8.950 -0.4881 -0.7725 -0.5163
   86SAPS  H17S 8219   1.587   4.002   9.085 -4.2101  2.0514 -2.1823
   86SAPS  C218 8220   1.444   3.902   8.961 -0.0543 -0.2379  0.2229
   86SAPS  H18R 8221   1.357   3.858   9.014 -1.0057  0.5558 -0.6548
   86SAPS  H18S 8222   1.456   3.837   8.872 -1.1587 -2.0843  1.3715
   86SAPS  C219 8223   1.402   4.042   8.911  0.6069 -0.6091 -0.3211
   86SAPS  H19R 8224   1.487   4.105   8.876 -0.9756  2.1373  0.4556
   86SAPS  H19S 8225   1.367   4.099   9.000  1.2951 -1.3918  0.4757
   86SAPS  C220 8226   1.293   4.035   8.806  0.1376  0.1759 -0.0602
   86SAPS  H20R 8227   1.260   4.135   8.771  1.0716  0.0167 -1.4735
   86SAPS  H20S 8228   1.203   3.986   8.850  1.3010 -0.5899  1.5918
   86SAPS  H20T 8229   1.324   3.971   8.721  1.4351  0.0843  0.4541
   86SAPS   C33 8230   1.114   3.653  10.187  0.0700  0.4595 -0.4163
   86SAPS   H3X 8231   1.172   3.572  10.236  0.0483  0.5228 -0.2827
   86SAPS   H3Y 8232   1.173   3.746  10.171 -2.6070  2.3325 -0.0700
   86SAPS   C34 8233   1.063   3.610  10.043 -0.0779  0.7878  0.0725
   86SAPS   H4X 8234   0.998   3.691  10.004 -1.7271 -0.6564 -0.3049
   86SAPS   H4Y 8235   1.005   3.517  10.056  0.0691  0.9036  1.7770
   86SAPS   C35 8236   1.177   3.575   9.941  0.0980 -0.6931  0.2030
   86SAPS   H5X 8237   1.207   3.469   9.957 -0.0432 -0.8217 -0.3788
   86SAPS   H5Y 8238   1.260   3.643   9.970  1.8879 -2.9841  0.7928
   86SAPS   C36 8239   1.126   3.571   9.800  0.7615  0.1964 -0.2299
   86SAPS   H6X 8240   1.087   3.672   9.776  0.1933  0.0198 -0.0750
   86SAPS   H6Y 8241   1.028   3.520   9.782 -0.0505  1.6385 -0.0243
   86SAPS   C37 8242   1.233   3.527   9.695  0.4247  0.1738 -0.4281
   86SAPS   H7X 8243   1.259   3.423   9.724 -0.7813  0.6502  2.7921
   86SAPS   H7Y 8244   1.326   3.584   9.716  0.1395  0.1059  1.1714
   86SAPS   C38 8245   1.187   3.538   9.547 -0.5646  0.0036 -0.2960
   86SAPS   H8X 8246   1.158   3.644   9.536 -2.2184 -0.3131  0.6864
   86SAPS   H8Y 8247   1.095   3.476   9.552 -0.9534  0.6258  0.5713
   86SAPS   C39 8248   1.287   3.486   9.443 -0.3537  1.1716 -0.4112
   86SAPS   H9X 8249   1.278   3.376   9.438 -2.8244  1.2063  1.4552
   86SAPS   H9Y 8250   1.390   3.517   9.472 -0.7244  1.7981  0.2788
   86SAPS  C310 8251   1.267   3.545   9.306 -0.0742 -0.7035  0.0492
   86SAPS  H10X 8252   1.351   3.528   9.235 -0.3888  0.5923 -0.6533
   86SAPS  H10Y 8253   1.254   3.653   9.330  2.1791  0.1829 -2.3180
   86SAPS  C311 8254   1.142   3.503   9.230 -0.4232  0.2375  0.0947
   86SAPS  H11X 8255   1.053   3.531   9.289  0.6706 -0.9560  2.4410
   86SAPS  H11Y 8256   1.145   3.392   9.226  0.4089  0.2052  1.0721
   86SAPS  C312 8257   1.132   3.562   9.091 -0.1942 -0.1039  0.3843
   86SAPS  H12X 8258   1.096   3.484   9.020 -0.7288  0.4699  0.0170
   86SAPS  H12Y 8259   1.236   3.586   9.062  0.4932 -5.0911 -2.5396
   86SAPS  C313 8260   1.042   3.692   9.089  0.0887 -0.4873 -0.2100
   86SAPS  H13X 8261   1.071   3.761   9.171 -0.9499  0.0692 -0.2948
   86SAPS  H13Y 8262   0.940   3.652   9.102 -0.9056  1.8925 -0.2511
   86SAPS  C314 8263   1.055   3.779   8.958 -0.0592  0.1862  0.0332
   86SAPS  H14X 8264   1.034   3.722   8.865 -1.1119  1.7497 -0.7252
   86SAPS  H14Y 8265   1.160   3.815   8.956  0.2867 -0.8078 -0.9264
   86SAPS  C315 8266   0.957   3.902   8.957 -0.0297 -0.3045 -0.4787
   86SAPS  H15X 8267   0.856   3.857   8.968 -0.5099  0.9587  0.5057
   86SAPS  H15Y 8268   0.962   3.953   8.859  2.4545  0.6821  0.0853
   86SAPS  C316 8269   0.992   3.999   9.067 -0.1506 -0.0776 -0.8173
   86SAPS  H16X 8270   1.098   4.032   9.070  0.1235 -0.9371 -0.6517
   86SAPS  H16Y 8271   0.990   3.946   9.164 -0.8716  1.6171  0.1278
   86SAPS  C317 8272   0.895   4.110   9.096  0.1446 -0.1221 -0.4008
   86SAPS  H17X 8273   0.791   4.077   9.118  0.5715 -0.7597  0.7841
   86SAPS  H17Y 8274   0.891   4.177   9.008  5.2900  0.8448 -0.2463
   86SAPS  C318 8275   0.943   4.194   9.216  0.0621 -1.0530 -0.1370
   86SAPS  H18X 8276   0.941   4.131   9.307  0.4027 -1.3409 -0.3246
   86SAPS  H18Y 8277   0.881   4.286   9.223  0.1359 -0.4660 -4.3396
   86SAPS  H18Z 8278   1.049   4.227   9.204 -0.0284 -1.0371 -0.9378
   87SAPS     N 8279   6.648   5.175  10.973  0.4933  0.0313  0.3418
   87SAPS   HN1 8280   6.569   5.107  10.983  1.5856 -1.5422 -1.1169
   87SAPS   HN2 8281   6.698   5.155  10.883 -0.3754  0.5419 -0.2681
   87SAPS   HN3 8282   6.724   5.178  11.044  0.8637  2.2236 -0.0851
   87SAPS   C12 8283   6.593   5.317  10.976 -0.0764  0.3465 -0.1240
   87SAPS  H12A 8284   6.556   5.337  10.877  2.9820  0.1872 -1.4027
   87SAPS   C13 8285   6.484   5.366  11.073  0.3519 -0.3657 -0.5367
   87SAPS  O13A 8286   6.430   5.288  11.149 -0.2904  0.3123 -0.0168
   87SAPS  O13B 8287   6.433   5.481  11.042 -0.2267 -0.1237  0.4886
   87SAPS   C11 8288   6.711   5.416  10.984  0.7058  0.6000  0.5002
   87SAPS  H11A 8289   6.730   5.433  11.092  0.1391 -0.7117  0.8333
   87SAPS  H11B 8290   6.675   5.518  10.958  2.0233  1.2121  0.9631
   87SAPS     P 8291   6.943   5.484  10.883 -0.0204  0.1599 -0.1795
   87SAPS   O13 8292   6.966   5.537  11.019  0.2483 -0.3599  0.0815
   87SAPS   O14 8293   7.049   5.403  10.816 -0.3421 -0.0995  0.2024
   87SAPS   O12 8294   6.822   5.382  10.901 -0.6503 -0.0261  0.2083
   87SAPS   O11 8295   6.890   5.597  10.801  0.0909  0.1423  0.2411
   87SAPS    C1 8296   6.798   5.583  10.692  0.2962  1.2134  0.7833
   87SAPS    HA 8297   6.734   5.492  10.701  0.4738  0.6461 -2.5341
   87SAPS    HB 8298   6.728   5.664  10.664 -0.2915  0.4995  0.1466
   87SAPS    C2 8299   6.876   5.559  10.560  0.6589 -0.3415  0.2402
   87SAPS    HS 8300   6.963   5.493  10.579  0.0463 -1.2806 -0.1742
   87SAPS   O21 8301   6.920   5.690  10.506 -0.9895  0.6633  0.4046
   87SAPS   C21 8302   7.030   5.686  10.427  0.2901 -0.3629 -0.0473
   87SAPS   O22 8303   7.099   5.587  10.407  0.1821 -0.6747  0.4988
   87SAPS   C22 8304   7.029   5.820  10.347  0.0040  0.1984  0.0578
   87SAPS   H2R 8305   6.959   5.892  10.394  1.2495  0.2556  1.9658
   87SAPS   H2S 8306   7.134   5.859  10.348  0.5041 -0.9735  2.4876
   87SAPS    C3 8307   6.790   5.480  10.455  0.4412  0.0843 -0.0475
   87SAPS    HX 8308   6.704   5.547  10.435  0.4272  0.0177 -0.2100
   87SAPS    HY 8309   6.759   5.382  10.497  2.5478 -0.7919 -0.4200
   87SAPS   O31 8310   6.858   5.467  10.332 -0.5108  0.1544  1.3158
   87SAPS   C31 8311   6.933   5.351  10.320  0.0381 -0.1697 -0.5909
   87SAPS   O32 8312   6.956   5.282  10.415  0.6681  0.6677  0.0910
   87SAPS   C32 8313   6.986   5.322  10.179 -0.0642  0.5371  0.4771
   87SAPS   H2X 8314   6.987   5.211  10.176 -1.8949  0.4614  1.2006
   87SAPS   H2Y 8315   7.089   5.362  10.178 -0.1825  0.8365  0.0510
   87SAPS   C23 8316   6.976   5.797  10.203  0.0910  0.2185 -0.3884
   87SAPS   H3R 8317   7.020   5.702  10.166 -1.3631  0.2828 -2.4736
   87SAPS   H3S 8318   7.007   5.884  10.142 -0.2368 -0.2230 -1.2066
   87SAPS   C24 8319   6.821   5.790  10.198 -0.2219  0.2297 -0.1364
   87SAPS   H4R 8320   6.801   5.711  10.273  1.6373  0.4020  0.6132
   87SAPS   H4S 8321   6.780   5.747  10.104  0.5394  2.0094 -1.3194
   87SAPS   C25 8322   6.733   5.903  10.243  0.3085 -0.6595  0.3002
   87SAPS   H5R 8323   6.702   5.899  10.349 -0.9132  0.0576 -0.0063
   87SAPS   C26 8324   6.686   6.003  10.166 -0.4146  0.2563  0.7502
   87SAPS   H6R 8325   6.648   6.097  10.210 -3.0965  0.6232 -2.0063
   87SAPS   C27 8326   6.720   6.010  10.015 -1.0423  0.0563  0.4131
   87SAPS   H7R 8327   6.730   5.906   9.977 -2.2426 -0.9569  2.6747
   87SAPS   H7S 8328   6.823   6.050  10.008 -1.9996  2.3774 -3.3401
   87SAPS   C28 8329   6.625   6.094   9.930 -0.7019 -0.2540  0.6923
   87SAPS   H8R 8330   6.541   6.144   9.981 -1.9900 -1.8571  0.2485
   87SAPS   C29 8331   6.653   6.116   9.799  0.3048  0.2856 -0.2800
   87SAPS   H9R 8332   6.586   6.186   9.747  1.9502  0.8476 -1.7164
   87SAPS  C210 8333   6.773   6.061   9.728  0.0160  0.5378  0.1585
   87SAPS  H10R 8334   6.861   6.052   9.795  0.4490 -0.2340 -0.4938
   87SAPS  H10S 8335   6.794   6.136   9.649 -3.3314  3.4580  1.7726
   87SAPS  C211 8336   6.759   5.922   9.667 -0.4750 -0.4626 -0.3319
   87SAPS  H11R 8337   6.683   5.858   9.715  1.3330 -0.8466  2.1969
   87SAPS  C212 8338   6.846   5.862   9.582 -0.4192 -0.3472  0.1326
   87SAPS  H12R 8339   6.834   5.756   9.557  0.4957  0.1728 -2.9671
   87SAPS  C213 8340   6.969   5.929   9.523 -0.3832 -0.3998  0.3443
   87SAPS  H13R 8341   7.054   5.912   9.592 -1.5256 -0.6765  1.7317
   87SAPS  H13S 8342   6.951   6.038   9.519 -1.9543 -0.5729  1.7820
   87SAPS  C214 8343   7.017   5.878   9.389 -0.2983  0.3179  0.4436
   87SAPS  H14R 8344   7.114   5.829   9.404 -0.0321  0.4084 -0.8841
   87SAPS  C215 8345   6.968   5.882   9.267 -0.6854  0.0605  0.7575
   87SAPS  H15R 8346   7.022   5.829   9.187  0.5781  1.4542  0.6288
   87SAPS  C216 8347   6.839   5.953   9.234  0.1950 -0.5660  0.2125
   87SAPS  H16R 8348   6.815   6.036   9.305  2.1630 -0.3764  0.7060
   87SAPS  H16S 8349   6.749   5.888   9.242 -0.3423 -0.1143 -1.6705
   87SAPS  C217 8350   6.850   6.004   9.090 -0.1306 -0.2301  0.5904
   87SAPS  H17R 8351   6.885   5.924   9.021  3.3575  1.4477  0.1798
   87SAPS  H17S 8352   6.931   6.078   9.071 -1.1700  0.9525  0.6652
   87SAPS  C218 8353   6.728   6.070   9.026  0.0478 -0.5967  0.4108
   87SAPS  H18R 8354   6.704   6.166   9.076  0.6976  0.1879 -0.7234
   87SAPS  H18S 8355   6.638   6.007   9.041  0.2862 -1.7926 -2.5054
   87SAPS  C219 8356   6.735   6.102   8.878 -0.3442 -0.5469 -0.1839
   87SAPS  H19R 8357   6.827   6.053   8.840 -0.5556 -0.7632 -0.4240
   87SAPS  H19S 8358   6.743   6.209   8.851  1.9746 -1.0631 -1.8646
   87SAPS  C220 8359   6.623   6.038   8.793  0.5841 -0.4268  0.5691
   87SAPS  H20R 8360   6.646   5.930   8.781  1.7243 -0.1699  0.3416
   87SAPS  H20S 8361   6.618   6.082   8.691  2.2093 -3.4366 -0.9459
   87SAPS  H20T 8362   6.519   6.046   8.831  0.4288  1.5948 -0.1336
   87SAPS   C33 8363   6.903   5.383  10.064  0.4779  0.3198  0.3599
   87SAPS   H3X 8364   6.901   5.494  10.050 -0.9271  0.2982  0.1910
   87SAPS   H3Y 8365   6.795   5.360  10.074  0.7307 -0.6754  0.8681
   87SAPS   C34 8366   6.941   5.326   9.931 -0.0911  0.3264  1.1510
   87SAPS   H4X 8367   6.904   5.222   9.912  0.6001  0.5607 -1.9169
   87SAPS   H4Y 8368   7.052   5.324   9.925 -0.1324 -2.5933 -1.6977
   87SAPS   C35 8369   6.880   5.420   9.822  0.1367  0.1030 -0.1154
   87SAPS   H5X 8370   6.933   5.517   9.826  2.1342 -0.9592  0.8886
   87SAPS   H5Y 8371   6.772   5.427   9.844 -0.4962 -0.2638 -2.8007
   87SAPS   C36 8372   6.891   5.363   9.677 -0.1643  0.0880  0.1846
   87SAPS   H6X 8373   6.833   5.268   9.676 -1.2190  0.7176  0.4280
   87SAPS   H6Y 8374   6.994   5.334   9.648 -0.9174 -1.6024 -0.9590
   87SAPS   C37 8375   6.831   5.463   9.574  0.1193  0.0268 -0.5410
   87SAPS   H7X 8376   6.857   5.570   9.590  0.2299  0.0579 -0.9141
   87SAPS   H7Y 8377   6.721   5.454   9.593  0.5573  1.0237  3.3816
   87SAPS   C38 8378   6.855   5.426   9.428 -0.3796 -0.1658 -0.1556
   87SAPS   H8X 8379   6.826   5.319   9.426 -4.4777  0.7898 -0.3520
   87SAPS   H8Y 8380   6.957   5.444   9.388 -0.0422 -0.2717  0.6365
   87SAPS   C39 8381   6.759   5.509   9.336 -0.4778  0.4127  0.1055
   87SAPS   H9X 8382   6.750   5.619   9.346 -0.5758  0.9126 -3.8182
   87SAPS   H9Y 8383   6.658   5.468   9.357 -0.1790 -0.0055  0.7550
   87SAPS  C310 8384   6.798   5.503   9.187 -0.3900  0.2892  0.4154
   87SAPS  H10X 8385   6.813   5.396   9.159 -3.4479 -0.1115 -0.0370
   87SAPS  H10Y 8386   6.894   5.559   9.186 -0.2597  0.3999  4.0551
   87SAPS  C311 8387   6.696   5.564   9.093 -0.4353  0.5559 -0.2871
   87SAPS  H11X 8388   6.713   5.673   9.110  1.7604  0.1592  0.4061
   87SAPS  H11Y 8389   6.590   5.534   9.107 -0.0682 -1.3788 -1.3172
   87SAPS  C312 8390   6.750   5.536   8.944  0.5500  0.4279 -1.1516
   87SAPS  H12X 8391   6.770   5.426   8.948 -0.0337  0.3399 -0.5509
   87SAPS  H12Y 8392   6.844   5.595   8.938  0.6630  0.4757  0.6856
   87SAPS  C313 8393   6.657   5.587   8.829 -0.1776  0.1705 -0.2040
   87SAPS  H13X 8394   6.630   5.694   8.848  3.9286  0.9523  2.6254
   87SAPS  H13Y 8395   6.566   5.523   8.833  0.6665 -1.1233 -1.1570
   87SAPS  C314 8396   6.717   5.562   8.691  0.5235  0.3782 -0.4576
   87SAPS  H14X 8397   6.648   5.512   8.620  1.9361 -1.4466 -0.6190
   87SAPS  H14Y 8398   6.802   5.491   8.701  1.3024  1.4882  1.1884
   87SAPS  C315 8399   6.757   5.689   8.624 -0.1066  0.9796 -0.1835
   87SAPS  H15X 8400   6.838   5.734   8.685  0.4159 -1.1657  0.7895
   87SAPS  H15Y 8401   6.674   5.763   8.623  0.0317  1.1341 -0.4684
   87SAPS  C316 8402   6.801   5.669   8.480 -0.6700  0.3267 -0.7089
   87SAPS  H16X 8403   6.721   5.624   8.416  0.0024  0.8958 -1.9823
   87SAPS  H16Y 8404   6.893   5.609   8.465  0.3569  1.4741  0.7338
   87SAPS  C317 8405   6.844   5.806   8.418 -0.7154  0.0847  0.0316
   87SAPS  H17X 8406   6.923   5.849   8.482 -0.4479 -2.6458  1.7105
   87SAPS  H17Y 8407   6.754   5.870   8.417  0.3067  1.7005  2.7249
   87SAPS  C318 8408   6.899   5.787   8.277  0.0210 -0.1037 -0.8144
   87SAPS  H18X 8409   7.008   5.768   8.280  0.0640  0.2631  2.0253
   87SAPS  H18Y 8410   6.900   5.883   8.220 -1.4592  0.9762  0.8733
   87SAPS  H18Z 8411   6.838   5.707   8.230 -0.0963 -1.5505  1.6518
   88SAPS     N 8412   2.481   2.668  10.951  0.4178 -0.9382  0.8498
   88SAPS   HN1 8413   2.478   2.685  11.054  1.5625 -2.3163  1.1458
   88SAPS   HN2 8414   2.565   2.717  10.914 -0.2899 -0.1416  0.2586
   88SAPS   HN3 8415   2.392   2.708  10.914  1.3643  3.3191  2.6337
   88SAPS   C12 8416   2.469   2.521  10.949  0.2334 -0.4230 -0.0394
   88SAPS  H12A 8417   2.541   2.484  11.021 -0.0047  1.9945  1.5799
   88SAPS   C13 8418   2.330   2.471  11.001  0.1552 -0.1162  0.4740
   88SAPS  O13A 8419   2.234   2.549  11.026  0.0992 -0.0540 -0.0166
   88SAPS  O13B 8420   2.319   2.341  11.012 -0.3256 -0.8573 -0.4165
   88SAPS   C11 8421   2.504   2.452  10.815 -0.2878  0.2200  0.7433
   88SAPS  H11A 8422   2.430   2.486  10.740  0.3351  1.0086  0.4819
   88SAPS  H11B 8423   2.495   2.342  10.832  3.1227  0.2153  3.5100
   88SAPS     P 8424   2.769   2.400  10.811  0.3895 -0.2049  0.0329
   88SAPS   O13 8425   2.873   2.490  10.872  0.2233  0.9084  0.6171
   88SAPS   O14 8426   2.734   2.281  10.890 -0.0129  0.5214  0.1710
   88SAPS   O12 8427   2.642   2.492  10.775 -0.4813 -0.4088 -0.1859
   88SAPS   O11 8428   2.816   2.364  10.660 -0.0766  0.4521 -0.5577
   88SAPS    C1 8429   2.759   2.253  10.588 -0.6767 -0.4929 -0.2162
   88SAPS    HA 8430   2.681   2.193  10.641 -0.3351  0.3425  1.3121
   88SAPS    HB 8431   2.707   2.287  10.497 -1.0274  1.7200  0.7495
   88SAPS    C2 8432   2.867   2.151  10.545 -0.3487  0.3262  0.5996
   88SAPS    HS 8433   2.931   2.140  10.635  0.4516 -0.4497 -0.0459
   88SAPS   O21 8434   2.946   2.202  10.436  0.1391 -0.1748 -0.4493
   88SAPS   C21 8435   3.074   2.171  10.424  0.4720  0.1994 -0.2748
   88SAPS   O22 8436   3.138   2.106  10.505 -0.2424  0.7590  0.5069
   88SAPS   C22 8437   3.126   2.244  10.304 -0.4345  0.2025  0.2151
   88SAPS   H2R 8438   3.078   2.187  10.222 -0.4024 -2.1821  1.7467
   88SAPS   H2S 8439   3.077   2.344  10.304 -2.0618 -0.5718 -0.1386
   88SAPS    C3 8440   2.803   2.010  10.515  0.2731 -0.4939  0.1777
   88SAPS    HX 8441   2.755   1.967  10.605  2.2779  1.0546  2.0889
   88SAPS    HY 8442   2.892   1.947  10.494 -0.9041 -1.5417 -2.0268
   88SAPS   O31 8443   2.709   2.027  10.404 -0.0264 -0.9465 -0.5572
   88SAPS   C31 8444   2.768   2.018  10.286 -0.4720  0.1110  0.0081
   88SAPS   O32 8445   2.886   1.987  10.263  0.0796  0.0430 -0.1440
   88SAPS   C32 8446   2.669   2.065  10.178 -0.2884  0.2330  0.8687
   88SAPS   H2X 8447   2.636   2.164  10.216  1.5368  1.6235 -0.9389
   88SAPS   H2Y 8448   2.583   1.995  10.175 -0.0549 -0.1087 -2.3368
   88SAPS   C23 8449   3.283   2.257  10.300  0.9949  0.0957  0.6316
   88SAPS   H3R 8450   3.320   2.158  10.334 -2.0270 -0.6376  2.1763
   88SAPS   H3S 8451   3.318   2.332  10.374  1.1527 -1.0680  1.7728
   88SAPS   C24 8452   3.325   2.295  10.156 -0.4116 -0.1659 -0.0344
   88SAPS   H4R 8453   3.274   2.225  10.087 -0.0892 -0.4516  0.0098
   88SAPS   H4S 8454   3.432   2.264  10.146 -0.4304  0.3057 -2.2213
   88SAPS   C25 8455   3.333   2.441  10.110 -0.3220  0.1408 -0.1201
   88SAPS   H5R 8456   3.340   2.509  10.196  0.6800  1.2776 -1.0540
   88SAPS   C26 8457   3.326   2.493   9.984  0.3776 -0.8981 -0.8552
   88SAPS   H6R 8458   3.334   2.602   9.974 -0.2791 -0.7374  0.2644
   88SAPS   C27 8459   3.304   2.409   9.858 -0.1681 -0.4162  0.2091
   88SAPS   H7R 8460   3.201   2.367   9.864 -0.8321  1.3448  2.2391
   88SAPS   H7S 8461   3.379   2.327   9.852  0.3981  0.1127 -0.1627
   88SAPS   C28 8462   3.295   2.494   9.732 -0.1666  0.1130  0.0975
   88SAPS   H8R 8463   3.192   2.520   9.703  0.0155  1.9978  0.9627
   88SAPS   C29 8464   3.391   2.541   9.660 -0.2061 -0.2257  0.6069
   88SAPS   H9R 8465   3.372   2.602   9.570  0.6818  1.2424  1.3693
   88SAPS  C210 8466   3.540   2.521   9.686 -0.3092  0.4677  0.3884
   88SAPS  H10R 8467   3.574   2.496   9.789  2.2976  1.9788 -0.0184
   88SAPS  H10S 8468   3.580   2.624   9.684 -3.5295  1.8492  0.6314
   88SAPS  C211 8469   3.603   2.438   9.578  0.0791 -0.0784  0.5340
   88SAPS  H11R 8470   3.647   2.342   9.610  2.5640  0.8402  0.0287
   88SAPS  C212 8471   3.637   2.478   9.455 -0.4353  0.3455  0.1622
   88SAPS  H12R 8472   3.690   2.398   9.400  1.8676  0.8233  1.5347
   88SAPS  C213 8473   3.615   2.611   9.388 -0.2849 -0.0358 -0.4332
   88SAPS  H13R 8474   3.716   2.655   9.388 -0.9372  1.5107 -0.2265
   88SAPS  H13S 8475   3.557   2.678   9.454 -2.1895  3.3344 -4.9633
   88SAPS  C214 8476   3.550   2.610   9.248  0.8476  0.1402 -0.4644
   88SAPS  H14R 8477   3.461   2.546   9.236 -2.3508  4.2602 -0.8908
   88SAPS  C215 8478   3.598   2.681   9.136  0.2410  0.2878 -0.1151
   88SAPS  H15R 8479   3.538   2.679   9.044  1.6499  2.1165 -1.1384
   88SAPS  C216 8480   3.724   2.763   9.136 -0.3405 -0.6313 -0.0140
   88SAPS  H16R 8481   3.782   2.719   9.052 -0.2703  0.8620 -0.7730
   88SAPS  H16S 8482   3.794   2.748   9.221  2.4888 -0.3657 -2.1446
   88SAPS  C217 8483   3.710   2.915   9.112  0.2290  0.3448  0.0708
   88SAPS  H17R 8484   3.816   2.947   9.116  0.2394  0.1945  1.3541
   88SAPS  H17S 8485   3.655   2.956   9.200 -1.1648  0.0519 -0.6261
   88SAPS  C218 8486   3.644   2.963   8.987  0.6858 -0.4346  0.3689
   88SAPS  H18R 8487   3.674   3.069   8.983  1.0107 -0.4899  1.1958
   88SAPS  H18S 8488   3.535   2.946   9.000  0.7318  0.3582  2.0631
   88SAPS  C219 8489   3.692   2.886   8.861  0.0874  0.5100  0.4566
   88SAPS  H19R 8490   3.639   2.928   8.773  2.2244 -0.1818 -1.2251
   88SAPS  H19S 8491   3.661   2.780   8.869  1.1573  0.1967  0.4959
   88SAPS  C220 8492   3.845   2.895   8.832 -0.0066  0.0165  0.2477
   88SAPS  H20R 8493   3.886   2.824   8.757 -1.7334  0.0356 -0.7493
   88SAPS  H20S 8494   3.905   2.901   8.926  0.6641  2.3459 -0.2684
   88SAPS  H20T 8495   3.870   2.990   8.782  0.3407 -0.6856 -0.9548
   88SAPS   C33 8496   2.724   2.081  10.032 -0.2834  0.2040  0.5918
   88SAPS   H3X 8497   2.643   2.072   9.957 -0.2469 -2.5819  0.7792
   88SAPS   H3Y 8498   2.788   1.995  10.004  1.1483  1.5928 -0.5722
   88SAPS   C34 8499   2.796   2.215  10.002  0.1632 -0.5649  0.3152
   88SAPS   H4X 8500   2.867   2.233  10.086  1.3273  0.2350 -0.7944
   88SAPS   H4Y 8501   2.713   2.288   9.994  0.2568 -0.2383  1.8933
   88SAPS   C35 8502   2.888   2.214   9.872  0.7407 -0.5855  0.3735
   88SAPS   H5X 8503   2.941   2.118   9.855 -1.3060 -1.2306 -3.7772
   88SAPS   H5Y 8504   2.963   2.291   9.899 -0.6565  0.9195  0.2147
   88SAPS   C36 8505   2.811   2.260   9.748 -0.2505 -0.0356  0.8421
   88SAPS   H6X 8506   2.749   2.351   9.766  0.6336  0.8440 -0.3858
   88SAPS   H6Y 8507   2.737   2.180   9.724  0.4398 -0.6509  0.7137
   88SAPS   C37 8508   2.905   2.279   9.632 -0.0283 -0.4663 -0.0542
   88SAPS   H7X 8509   2.954   2.180   9.632 -0.4322 -0.6913  1.3269
   88SAPS   H7Y 8510   2.994   2.340   9.658 -0.1488 -0.7390  1.0478
   88SAPS   C38 8511   2.843   2.315   9.499 -0.0763  0.4821 -0.8864
   88SAPS   H8X 8512   2.780   2.406   9.499 -2.1166 -0.8573  0.4770
   88SAPS   H8Y 8513   2.771   2.242   9.458 -1.1448  0.7480  0.4430
   88SAPS   C39 8514   2.947   2.342   9.384 -0.6548  0.9598  0.3373
   88SAPS   H9X 8515   2.884   2.342   9.293 -1.9210  0.1660  1.1753
   88SAPS   H9Y 8516   3.005   2.247   9.379 -0.2086  1.2909 -3.3442
   88SAPS  C310 8517   3.037   2.472   9.400 -0.0203 -0.6048  0.0104
   88SAPS  H10X 8518   3.132   2.443   9.449  0.2357  1.4419  0.8202
   88SAPS  H10Y 8519   2.978   2.538   9.467  1.8436  1.7611 -0.5277
   88SAPS  C311 8520   3.068   2.540   9.263  0.6304  0.5391 -0.2220
   88SAPS  H11X 8521   2.972   2.557   9.211  0.6328 -0.1891 -0.4660
   88SAPS  H11Y 8522   3.122   2.461   9.206 -0.3530 -1.2318  1.1942
   88SAPS  C312 8523   3.161   2.658   9.275 -0.5100  0.2048  0.2976
   88SAPS  H12X 8524   3.232   2.627   9.355  0.5123  0.8716 -0.3292
   88SAPS  H12Y 8525   3.108   2.741   9.327 -0.9661 -0.5054  0.9940
   88SAPS  C313 8526   3.240   2.700   9.149  0.0820 -0.1910  0.3535
   88SAPS  H13X 8527   3.306   2.613   9.129  1.1644 -0.2802  3.6997
   88SAPS  H13Y 8528   3.310   2.778   9.186 -0.4479  1.0550 -1.1609
   88SAPS  C314 8529   3.160   2.743   9.033 -0.2641 -0.5862 -0.0689
   88SAPS  H14X 8530   3.115   2.841   9.062  1.6475 -0.0249  1.1301
   88SAPS  H14Y 8531   3.070   2.681   9.012 -1.8478  1.5703 -0.0703
   88SAPS  C315 8532   3.252   2.753   8.911 -0.1804  0.2682  0.0538
   88SAPS  H15X 8533   3.328   2.674   8.895  1.0444  1.2645  0.7162
   88SAPS  H15Y 8534   3.314   2.845   8.923 -1.9344  1.7867 -1.7365
   88SAPS  C316 8535   3.165   2.778   8.791  0.0505 -0.4489 -0.9575
   88SAPS  H16X 8536   3.231   2.842   8.729  1.0032  0.9839  1.3746
   88SAPS  H16Y 8537   3.081   2.847   8.812  0.0890 -0.8817  0.8281
   88SAPS  C317 8538   3.105   2.655   8.725  0.4602  0.3042  0.7642
   88SAPS  H17X 8539   3.029   2.606   8.791  2.4053 -3.0685  0.7314
   88SAPS  H17Y 8540   3.189   2.584   8.710  1.5307  1.7482 -0.3723
   88SAPS  C318 8541   3.039   2.684   8.588 -0.1955  0.0326 -0.0292
   88SAPS  H18X 8542   3.097   2.758   8.530 -0.1324 -0.2537 -0.3320
   88SAPS  H18Y 8543   2.935   2.717   8.608 -0.6250 -0.8514 -0.7141
   88SAPS  H18Z 8544   3.045   2.587   8.534  0.7345 -0.0963  0.2812
   89SAPS     N 8545   2.164   2.996  10.806 -0.3128 -0.3913 -0.3258
   89SAPS   HN1 8546   2.166   3.038  10.711  2.1093  2.4945  0.8377
   89SAPS   HN2 8547   2.221   2.910  10.794  1.1645  0.4811  0.1207
   89SAPS   HN3 8548   2.071   2.988  10.851 -1.2446  0.4937 -2.0032
   89SAPS   C12 8549   2.234   3.097  10.881 -0.3924 -0.2396 -0.4694
   89SAPS  H12A 8550   2.179   3.188  10.864 -0.8616 -0.8020 -2.1831
   89SAPS   C13 8551   2.257   3.076  11.038  0.6397  0.4825 -0.0538
   89SAPS  O13A 8552   2.214   2.967  11.088 -0.2151 -0.5249  0.7603
   89SAPS  O13B 8553   2.304   3.165  11.114  0.7039 -0.4519 -0.4123
   89SAPS   C11 8554   2.372   3.105  10.816 -0.9496 -0.1400  0.7072
   89SAPS  H11A 8555   2.437   3.168  10.881 -1.1948  1.4182 -0.5066
   89SAPS  H11B 8556   2.363   3.155  10.718 -0.2447  0.0011  0.7057
   89SAPS     P 8557   2.580   2.949  10.738  0.2532  0.1315  0.0457
   89SAPS   O13 8558   2.673   3.069  10.756  0.1299  0.6354  0.1434
   89SAPS   O14 8559   2.634   2.825  10.798 -0.3661  0.1207 -0.5280
   89SAPS   O12 8560   2.429   2.978  10.791 -0.0906  0.4681 -0.1428
   89SAPS   O11 8561   2.566   2.924  10.584  0.0866 -0.0895 -0.5459
   89SAPS    C1 8562   2.497   2.799  10.542 -0.1727 -0.5040 -0.4512
   89SAPS    HA 8563   2.411   2.769  10.606  0.5837 -1.9372 -0.0538
   89SAPS    HB 8564   2.446   2.826  10.447  0.4728  2.3573 -0.0694
   89SAPS    C2 8565   2.600   2.688  10.507 -0.2893  0.3505  0.1995
   89SAPS    HS 8566   2.668   2.677  10.594  0.3282 -0.5638 -0.3717
   89SAPS   O21 8567   2.668   2.730  10.388  0.1293 -0.2739 -0.2843
   89SAPS   C21 8568   2.783   2.793  10.409  0.1924 -0.1017  0.1415
   89SAPS   O22 8569   2.841   2.810  10.513 -0.0109  0.6554  0.0578
   89SAPS   C22 8570   2.838   2.830  10.270 -0.7876  0.2569  0.0231
   89SAPS   H2R 8571   2.922   2.757  10.263 -0.6876  0.1952  1.6581
   89SAPS   H2S 8572   2.757   2.818  10.194 -0.0192  0.8051 -0.9072
   89SAPS    C3 8573   2.540   2.548  10.474  0.3048  0.2028  0.7717
   89SAPS    HX 8574   2.485   2.517  10.566  1.5134  1.2053  1.8570
   89SAPS    HY 8575   2.630   2.484  10.461  0.4052  0.6358 -0.8476
   89SAPS   O31 8576   2.458   2.548  10.353  0.1243 -0.0602  0.0109
   89SAPS   C31 8577   2.500   2.478  10.248  0.0919  0.1830  0.5814
   89SAPS   O32 8578   2.609   2.422  10.236  0.4216 -0.7807 -0.3669
   89SAPS   C32 8579   2.384   2.484  10.139 -0.1148  0.1514  0.0695
   89SAPS   H2X 8580   2.361   2.590  10.118 -2.0218 -0.4151 -0.9035
   89SAPS   H2Y 8581   2.298   2.443  10.196 -1.9138  1.5759 -1.4981
   89SAPS   C23 8582   2.902   2.969  10.264  0.1157 -0.2368  0.5895
   89SAPS   H3R 8583   2.983   2.968  10.340  0.7344  3.8425  0.1984
   89SAPS   H3S 8584   2.828   3.044  10.298  0.6680 -0.9451  3.6245
   89SAPS   C24 8585   2.959   3.009  10.125  0.8745 -0.1518 -0.0296
   89SAPS   H4R 8586   2.879   2.983  10.053  1.8086  3.1054 -2.4324
   89SAPS   H4S 8587   3.053   2.952  10.110 -0.1704 -2.8754  2.6889
   89SAPS   C25 8588   2.982   3.159  10.119 -0.4228 -0.3437 -0.2524
   89SAPS   H5R 8589   2.993   3.201  10.220 -1.5445  1.0914 -0.7043
   89SAPS   C26 8590   2.954   3.239  10.015  0.3866  0.0976  0.3780
   89SAPS   H6R 8591   2.972   3.346  10.029  0.4129  0.2721 -0.8926
   89SAPS   C27 8592   2.910   3.200   9.879  0.3105 -0.2369  0.7219
   89SAPS   H7R 8593   2.835   3.276   9.847 -1.1538 -0.1864  3.9443
   89SAPS   H7S 8594   2.850   3.107   9.876 -0.5164  0.0147  4.5676
   89SAPS   C28 8595   3.025   3.197   9.779  0.0669  0.1573 -0.0622
   89SAPS   H8R 8596   3.120   3.152   9.808 -0.4943 -1.7851 -1.0482
   89SAPS   C29 8597   3.024   3.236   9.655 -0.0082  0.3154  0.2110
   89SAPS   H9R 8598   3.117   3.244   9.596 -1.4605 -1.0644 -2.4424
   89SAPS  C210 8599   2.911   3.277   9.566  0.0787 -0.4618 -0.1337
   89SAPS  H10R 8600   2.902   3.388   9.573  3.6634 -0.0834  0.4769
   89SAPS  H10S 8601   2.817   3.236   9.609 -0.0771 -0.4895 -0.4993
   89SAPS  C211 8602   2.919   3.252   9.420 -0.3008  0.3929 -0.3290
   89SAPS  H11R 8603   2.881   3.151   9.397  0.2872 -0.0716  0.6960
   89SAPS  C212 8604   2.959   3.331   9.322 -0.4339 -1.2895  0.1368
   89SAPS  H12R 8605   2.936   3.305   9.218 -0.9662 -0.9446  0.1631
   89SAPS  C213 8606   3.012   3.470   9.351 -0.3744  0.4479 -0.2146
   89SAPS  H13R 8607   3.112   3.466   9.302 -0.4194  1.2264 -0.3823
   89SAPS  H13S 8608   3.033   3.496   9.457  0.9756 -2.1255  0.2297
   89SAPS  C214 8609   2.932   3.577   9.287  0.3657 -0.5696 -0.4866
   89SAPS  H14R 8610   2.846   3.616   9.343 -2.1278 -2.0244 -3.0332
   89SAPS  C215 8611   2.947   3.614   9.161 -0.5674  0.4282 -0.1033
   89SAPS  H15R 8612   2.876   3.690   9.125 -2.9693 -2.1267 -1.1322
   89SAPS  C216 8613   3.047   3.561   9.053  0.2342 -0.4149 -0.1784
   89SAPS  H16R 8614   3.085   3.459   9.074  3.4325  0.5122 -0.9157
   89SAPS  H16S 8615   3.133   3.630   9.050  0.7677 -1.0987 -1.5738
   89SAPS  C217 8616   2.981   3.559   8.912 -0.1257 -0.6584 -0.0676
   89SAPS  H17R 8617   2.889   3.498   8.904  0.1510 -0.9531 -1.2569
   89SAPS  H17S 8618   3.054   3.517   8.839  0.7204 -0.9966  0.9355
   89SAPS  C218 8619   2.934   3.694   8.863 -0.2073  0.3504  0.3603
   89SAPS  H18R 8620   3.011   3.763   8.823  0.3344 -0.3375  0.2115
   89SAPS  H18S 8621   2.880   3.759   8.935 -1.7050  1.4427 -1.6282
   89SAPS  C219 8622   2.843   3.683   8.739  0.3594  0.3018  0.9950
   89SAPS  H19R 8623   2.757   3.616   8.761 -1.5801  2.5888  0.8271
   89SAPS  H19S 8624   2.903   3.640   8.657  0.3857  1.5910  0.3070
   89SAPS  C220 8625   2.791   3.827   8.704 -0.4128  0.3173 -0.5017
   89SAPS  H20R 8626   2.869   3.883   8.649 -0.0183  1.5953  1.2831
   89SAPS  H20S 8627   2.763   3.888   8.792 -3.3397  0.4071 -1.3592
   89SAPS  H20T 8628   2.699   3.815   8.642 -0.2147  1.2739 -0.9926
   89SAPS   C33 8629   2.404   2.401  10.015  0.1074 -0.1757 -0.1710
   89SAPS   H3X 8630   2.305   2.354   9.993 -0.8126  2.0309 -1.0488
   89SAPS   H3Y 8631   2.466   2.309  10.029  0.8555  0.4405  0.6409
   89SAPS   C34 8632   2.457   2.482   9.903  0.2547 -0.0194 -0.1201
   89SAPS   H4X 8633   2.563   2.498   9.932  0.1315 -0.8126  0.7865
   89SAPS   H4Y 8634   2.412   2.584   9.897  1.2332  0.5901  1.9463
   89SAPS   C35 8635   2.444   2.400   9.774 -0.3232  0.0578 -0.8201
   89SAPS   H5X 8636   2.345   2.350   9.761  0.7361 -1.7475 -2.3673
   89SAPS   H5Y 8637   2.518   2.319   9.789  0.6806  0.9831 -0.6663
   89SAPS   C36 8638   2.480   2.478   9.658  0.2628  0.4647 -0.2145
   89SAPS   H6X 8639   2.586   2.508   9.662  0.0613  1.4165 -1.4046
   89SAPS   H6Y 8640   2.419   2.571   9.652  0.0760  0.3063 -0.8619
   89SAPS   C37 8641   2.458   2.390   9.536  0.3295 -0.7386 -0.0649
   89SAPS   H7X 8642   2.357   2.343   9.538 -0.5466  0.9915 -0.8242
   89SAPS   H7Y 8643   2.531   2.307   9.523  0.9467  0.0274 -1.9137
   89SAPS   C38 8644   2.469   2.469   9.407  0.5994  0.4051  0.3959
   89SAPS   H8X 8645   2.561   2.531   9.396  2.0677 -1.8759 -0.7555
   89SAPS   H8Y 8646   2.393   2.550   9.399  0.2412 -0.0395 -1.0391
   89SAPS   C39 8647   2.441   2.375   9.284  0.5320  0.0475 -0.3281
   89SAPS   H9X 8648   2.358   2.306   9.312  0.1525  1.2267  1.6213
   89SAPS   H9Y 8649   2.535   2.327   9.250  0.9342  1.4081 -1.2003
   89SAPS  C310 8650   2.399   2.446   9.155  0.3103 -0.0579  0.1650
   89SAPS  H10X 8651   2.490   2.481   9.102  0.9522  0.6879  1.6802
   89SAPS  H10Y 8652   2.339   2.536   9.182  0.9609  0.0881  1.2002
   89SAPS  C311 8653   2.341   2.338   9.054 -0.3289  0.1492 -0.5416
   89SAPS  H11X 8654   2.260   2.282   9.105  0.3099 -0.3629 -0.0702
   89SAPS  H11Y 8655   2.422   2.267   9.027 -1.4388 -1.2593 -0.2980
   89SAPS  C312 8656   2.290   2.405   8.930 -0.4698  0.4833 -0.0520
   89SAPS  H12X 8657   2.227   2.494   8.950 -2.7140 -0.0441 -3.7825
   89SAPS  H12Y 8658   2.224   2.326   8.888  0.3449 -0.7355  0.8858
   89SAPS  C313 8659   2.395   2.445   8.822 -0.2264  0.7142  0.0921
   89SAPS  H13X 8660   2.449   2.350   8.803 -0.1787  0.8856 -0.6600
   89SAPS  H13Y 8661   2.453   2.535   8.851  0.2196  0.2134  0.7890
   89SAPS  C314 8662   2.317   2.487   8.695 -0.3022  1.0404  0.1926
   89SAPS  H14X 8663   2.245   2.406   8.675 -0.5792  1.8087 -2.2576
   89SAPS  H14Y 8664   2.388   2.499   8.610 -2.4220  0.9066 -1.6793
   89SAPS  C315 8665   2.251   2.626   8.708  0.3384 -0.1040  0.4608
   89SAPS  H15X 8666   2.330   2.700   8.733  2.7192 -0.9604 -3.6398
   89SAPS  H15Y 8667   2.184   2.627   8.797 -0.5892  4.7915 -0.0237
   89SAPS  C316 8668   2.171   2.673   8.591 -0.0172  0.2419  0.1095
   89SAPS  H16X 8669   2.106   2.589   8.560  1.2556 -1.5578  2.0538
   89SAPS  H16Y 8670   2.230   2.714   8.507 -0.3039  0.1726 -0.1260
   89SAPS  C317 8671   2.094   2.798   8.640 -0.1943 -0.3455  0.0289
   89SAPS  H17X 8672   2.172   2.875   8.657  1.2639 -2.1546  2.1202
   89SAPS  H17Y 8673   2.048   2.773   8.738  1.5698 -1.4029  0.6460
   89SAPS  C318 8674   1.991   2.847   8.538 -0.2494 -0.2600  0.1229
   89SAPS  H18X 8675   2.055   2.890   8.458  0.9048  0.5708  1.4291
   89SAPS  H18Y 8676   1.934   2.931   8.582  1.4086  2.2765 -2.2370
   89SAPS  H18Z 8677   1.921   2.768   8.504 -1.3640 -0.1233  1.9575
   90SAPS     N 8678   4.081   0.065  11.134  0.4713  0.6207  0.0918
   90SAPS   HN1 8679   3.990   0.078  11.181  0.6003 -0.3265  0.6167
   90SAPS   HN2 8680   4.143   0.125  11.193 -0.4640  1.5189  0.1922
   90SAPS   HN3 8681   4.073   0.115  11.043 -1.3819  0.9212  0.3927
   90SAPS   C12 8682   4.114  -0.081  11.104 -0.0023 -0.4832 -0.8492
   90SAPS  H12A 8683   4.200  -0.085  11.038 -0.6082 -1.7293 -1.6120
   90SAPS   C13 8684   4.136  -0.163  11.237  0.3137 -0.5349  0.1505
   90SAPS  O13A 8685   4.109  -0.102  11.342 -0.1404  0.5973  0.2860
   90SAPS  O13B 8686   4.227  -0.247  11.233 -0.6126 -0.0606 -0.0053
   90SAPS   C11 8687   3.990  -0.142  11.025 -0.9913 -1.0069  0.2321
   90SAPS  H11A 8688   3.978  -0.074  10.937 -0.8221 -1.0997  0.1359
   90SAPS  H11B 8689   3.910  -0.139  11.102  0.2323  1.3671  1.5194
   90SAPS     P 8690   4.082  -0.320  10.852  0.1359  0.4087 -0.2364
   90SAPS   O13 8691   4.213  -0.246  10.829 -0.0224 -0.3912  0.3116
   90SAPS   O14 8692   4.089  -0.467  10.845 -0.2421 -0.2472 -0.2753
   90SAPS   O12 8693   4.016  -0.278  10.990 -0.2847 -0.1180  0.4263
   90SAPS   O11 8694   3.985  -0.263  10.741  0.1340  0.0182 -0.4310
   90SAPS    C1 8695   3.841  -0.263  10.754  0.8622 -0.0566  0.0532
   90SAPS    HA 8696   3.814  -0.362  10.796  3.5354 -0.7641  0.2728
   90SAPS    HB 8697   3.807  -0.191  10.832  2.3351 -1.0154  1.6484
   90SAPS    C2 8698   3.768  -0.230  10.622  0.2302 -0.2406  0.2397
   90SAPS    HS 8699   3.680  -0.297  10.615 -0.3975  0.5035  0.7952
   90SAPS   O21 8700   3.853  -0.259  10.510  0.3013  0.3169  0.2137
   90SAPS   C21 8701   3.895  -0.375  10.483 -0.0840 -0.2040 -0.1990
   90SAPS   O22 8702   3.861  -0.483  10.532 -0.0344 -0.1224 -0.6120
   90SAPS   C22 8703   4.020  -0.362  10.379 -0.0044  0.0722 -0.3290
   90SAPS   H2R 8704   4.026  -0.254  10.353  2.4635  0.0201 -0.1678
   90SAPS   H2S 8705   4.110  -0.383  10.440 -0.4431 -2.4314 -0.4304
   90SAPS    C3 8706   3.719  -0.084  10.616  0.4295  0.0399 -0.2231
   90SAPS    HX 8707   3.812  -0.025  10.600  0.5786  0.4033  1.7084
   90SAPS    HY 8708   3.675  -0.070  10.717  2.6272 -0.1370  0.8300
   90SAPS   O31 8709   3.634  -0.062  10.500 -0.9255 -0.3309  0.3192
   90SAPS   C31 8710   3.508  -0.108  10.505 -0.0046 -0.1144  0.0935
   90SAPS   O32 8711   3.457  -0.161  10.603  0.0959 -0.1673 -0.8180
   90SAPS   C32 8712   3.455  -0.104  10.360 -0.3221 -0.2760 -0.5576
   90SAPS   H2X 8713   3.438   0.001  10.327 -0.3427 -0.0526  0.1475
   90SAPS   H2Y 8714   3.357  -0.155  10.345 -0.7416  0.0291  1.0257
   90SAPS   C23 8715   4.005  -0.468  10.274  0.2669 -0.3341 -0.4833
   90SAPS   H3R 8716   3.910  -0.437  10.226 -0.3496 -0.7423  0.4315
   90SAPS   H3S 8717   3.997  -0.563  10.332  0.4782  0.0781  0.2323
   90SAPS   C24 8718   4.119  -0.476  10.172 -0.0417  0.1159 -0.1104
   90SAPS   H4R 8719   4.100  -0.566  10.109  0.5104  1.0023 -1.5719
   90SAPS   H4S 8720   4.208  -0.496  10.236 -0.5073  1.4110  0.9805
   90SAPS   C25 8721   4.130  -0.349  10.087  0.0418  0.3204 -0.0766
   90SAPS   H5R 8722   4.169  -0.262  10.141  3.1031 -2.0699  1.8504
   90SAPS   C26 8723   4.079  -0.323   9.967 -0.1266  0.1188 -0.3106
   90SAPS   H6R 8724   4.110  -0.223   9.931 -0.6638  0.4978  0.2562
   90SAPS   C27 8725   3.994  -0.411   9.874  0.8157 -0.1967 -0.9818
   90SAPS   H7R 8726   3.889  -0.378   9.892  1.3823  1.4488 -0.4327
   90SAPS   H7S 8727   4.014  -0.513   9.912 -0.4145  0.2597  1.0500
   90SAPS   C28 8728   4.016  -0.393   9.730  0.5101 -0.5156 -0.3361
   90SAPS   H8R 8729   4.116  -0.425   9.698 -0.2852 -1.4676 -1.9878
   90SAPS   C29 8730   3.938  -0.344   9.632  0.3296 -0.2054  0.1187
   90SAPS   H9R 8731   3.975  -0.329   9.530  0.7178  2.9252  0.6141
   90SAPS  C210 8732   3.794  -0.276   9.639 -0.5895  0.9847  0.7402
   90SAPS  H10R 8733   3.801  -0.166   9.648 -4.1119  1.1627  3.8863
   90SAPS  H10S 8734   3.756  -0.314   9.736  0.0963 -1.6988  0.0384
   90SAPS  C211 8735   3.717  -0.316   9.517 -0.9575 -0.8240  0.0898
   90SAPS  H11R 8736   3.681  -0.420   9.521 -1.8672 -0.5886 -1.4425
   90SAPS  C212 8737   3.671  -0.237   9.411 -0.5229  0.2200 -0.0125
   90SAPS  H12R 8738   3.628  -0.286   9.322 -2.2596  2.3355 -0.4261
   90SAPS  C213 8739   3.694  -0.090   9.395 -0.0061 -0.2325 -0.3365
   90SAPS  H13R 8740   3.669  -0.046   9.494 -0.5072 -2.4443  0.5868
   90SAPS  H13S 8741   3.617  -0.053   9.324  0.4133  2.3801  0.4621
   90SAPS  C214 8742   3.822  -0.033   9.348  0.0852 -0.0103 -0.6053
   90SAPS  H14R 8743   3.909  -0.090   9.383 -1.0390 -0.3754  1.8466
   90SAPS  C215 8744   3.837   0.080   9.271 -0.1530  0.6499  0.1917
   90SAPS  H15R 8745   3.935   0.112   9.233  1.3013 -2.2282  1.2309
   90SAPS  C216 8746   3.721   0.164   9.226 -0.6312  0.3065  0.0821
   90SAPS  H16R 8747   3.760   0.268   9.223 -0.5242  0.2551 -0.4629
   90SAPS  H16S 8748   3.630   0.160   9.288 -0.8602  1.3478 -0.1676
   90SAPS  C217 8749   3.680   0.154   9.078  0.1792  0.0882 -0.5864
   90SAPS  H17R 8750   3.583   0.201   9.053  0.6860  0.7604 -1.3159
   90SAPS  H17S 8751   3.658   0.045   9.068 -1.2162  0.2335  0.7230
   90SAPS  C218 8752   3.794   0.192   8.979 -0.1390 -0.3733  0.5719
   90SAPS  H18R 8753   3.773   0.135   8.886 -1.6864  0.4512  0.3844
   90SAPS  H18S 8754   3.898   0.170   9.012 -0.2615 -0.3826  0.9521
   90SAPS  C219 8755   3.779   0.345   8.942 -0.2396 -0.3856 -0.2746
   90SAPS  H19R 8756   3.816   0.396   9.034 -2.8066 -0.5773  0.9591
   90SAPS  H19S 8757   3.668   0.349   8.932 -0.1784 -1.4206 -1.5069
   90SAPS  C220 8758   3.847   0.387   8.810 -0.0927 -0.4250 -0.4624
   90SAPS  H20R 8759   3.955   0.363   8.815 -0.2587 -0.8970  1.2361
   90SAPS  H20S 8760   3.836   0.497   8.800  1.5602 -0.1903 -0.0824
   90SAPS  H20T 8761   3.792   0.348   8.721 -0.8661  3.3774 -1.8231
   90SAPS   C33 8762   3.543  -0.177  10.249  0.1023 -0.4133 -0.1082
   90SAPS   H3X 8763   3.527  -0.286  10.237 -1.9187 -0.3650  1.5465
   90SAPS   H3Y 8764   3.648  -0.166  10.284  0.4516 -1.0743 -0.9369
   90SAPS   C34 8765   3.525  -0.112  10.108  0.3045  0.3917 -0.2296
   90SAPS   H4X 8766   3.547  -0.003  10.111  1.3327  0.2207 -1.1479
   90SAPS   H4Y 8767   3.425  -0.104  10.061  0.5629 -0.1912 -0.8959
   90SAPS   C35 8768   3.620  -0.164   9.999  0.1901  0.5010 -0.1079
   90SAPS   H5X 8769   3.579  -0.255   9.949  0.5878  0.5330 -0.4947
   90SAPS   H5Y 8770   3.720  -0.171  10.046  0.5061  2.3209 -0.4454
   90SAPS   C36 8771   3.655  -0.053   9.895  0.0786  0.2733  0.5846
   90SAPS   H6X 8772   3.753  -0.077   9.849 -0.1034  0.5397  0.0519
   90SAPS   H6Y 8773   3.666   0.046   9.944 -2.1713  1.9121 -1.9060
   90SAPS   C37 8774   3.541  -0.033   9.795 -0.1048 -0.3344  0.5518
   90SAPS   H7X 8775   3.447  -0.043   9.853  0.5847 -1.5229  1.4905
   90SAPS   H7Y 8776   3.542  -0.124   9.732  1.4140  1.5885 -2.4621
   90SAPS   C38 8777   3.539   0.090   9.700 -0.2360 -0.8508 -0.4970
   90SAPS   H8X 8778   3.638   0.102   9.652  0.1358  0.5981  0.5707
   90SAPS   H8Y 8779   3.520   0.185   9.755 -0.3563  0.4708 -2.6839
   90SAPS   C39 8780   3.425   0.087   9.606  0.4257 -0.7367  0.5415
   90SAPS   H9X 8781   3.326   0.067   9.651 -0.8149  1.0342 -1.2489
   90SAPS   H9Y 8782   3.448   0.010   9.529  3.8187 -0.8155  1.4501
   90SAPS  C310 8783   3.419   0.221   9.521  0.1041 -0.0157  0.0190
   90SAPS  H10X 8784   3.508   0.223   9.454 -1.6067  0.3210 -2.3905
   90SAPS  H10Y 8785   3.441   0.310   9.583  1.1882  1.7750 -2.7597
   90SAPS  C311 8786   3.297   0.234   9.435  0.4082  0.0060 -0.0057
   90SAPS  H11X 8787   3.208   0.259   9.496 -0.4920  1.4302 -1.8216
   90SAPS  H11Y 8788   3.271   0.135   9.392  0.4479 -1.0711  2.2581
   90SAPS  C312 8789   3.314   0.339   9.314  0.5630 -0.1471  0.1351
   90SAPS  H12X 8790   3.393   0.310   9.241  1.7477  0.0470  1.2925
   90SAPS  H12Y 8791   3.348   0.434   9.361 -0.6716 -0.5985  2.0380
   90SAPS  C313 8792   3.182   0.362   9.228  0.4422 -0.3814  0.0546
   90SAPS  H13X 8793   3.096   0.383   9.296  0.9628  2.4442 -0.0763
   90SAPS  H13Y 8794   3.168   0.274   9.161 -0.8274 -0.2858  0.1675
   90SAPS  C314 8795   3.207   0.489   9.137 -0.3658  0.1210 -0.1271
   90SAPS  H14X 8796   3.276   0.453   9.057 -0.4496 -3.0827  1.0718
   90SAPS  H14Y 8797   3.254   0.569   9.197 -2.9358  1.9455 -0.4112
   90SAPS  C315 8798   3.081   0.562   9.087  0.3670 -0.4206 -0.0025
   90SAPS  H15X 8799   3.013   0.600   9.166 -0.8692 -1.6547 -0.4390
   90SAPS  H15Y 8800   3.018   0.488   9.033 -0.9102  1.1491 -0.7414
   90SAPS  C316 8801   3.110   0.660   8.965 -0.6368  0.3375  0.0866
   90SAPS  H16X 8802   3.182   0.607   8.899  1.9250  1.5131  1.8015
   90SAPS  H16Y 8803   3.157   0.749   9.011 -1.1012 -0.2949  1.8633
   90SAPS  C317 8804   2.985   0.695   8.882  0.6077 -0.3093  0.4089
   90SAPS  H17X 8805   2.914   0.733   8.959 -2.0260 -1.2906 -1.3947
   90SAPS  H17Y 8806   2.936   0.610   8.831 -1.1239  0.9160 -0.0465
   90SAPS  C318 8807   3.011   0.808   8.776 -1.1614  0.2903  0.1471
   90SAPS  H18X 8808   3.055   0.751   8.691  0.4097  1.8222 -0.1111
   90SAPS  H18Y 8809   3.078   0.887   8.816 -0.8513 -0.5113  1.2677
   90SAPS  H18Z 8810   2.922   0.861   8.734 -1.1136  0.9618  0.8633
   91SAPS     N 8811   6.494   6.381   6.298  0.0834 -0.6499  0.0290
   91SAPS   HN1 8812   6.566   6.334   6.356  1.6730 -0.2518 -1.5522
   91SAPS   HN2 8813   6.522   6.480   6.285 -0.3915 -0.0726  2.7551
   91SAPS   HN3 8814   6.402   6.389   6.347 -0.2111  1.1797 -0.7585
   91SAPS   C12 8815   6.468   6.301   6.182  0.0758  0.3618 -0.4215
   91SAPS  H12A 8816   6.432   6.204   6.214 -0.5555  0.4458 -0.8577
   91SAPS   C13 8817   6.359   6.362   6.088 -0.0198 -0.6086 -0.4511
   91SAPS  O13A 8818   6.297   6.467   6.125 -0.2294 -0.5303  0.0605
   91SAPS  O13B 8819   6.325   6.308   5.981  0.9324 -0.4710  0.2645
   91SAPS   C11 8820   6.605   6.274   6.105  0.4061  0.0046 -0.1002
   91SAPS  H11A 8821   6.628   6.372   6.056 -0.2017  0.6991  0.9591
   91SAPS  H11B 8822   6.595   6.198   6.024  3.9651  0.6123 -1.2712
   91SAPS     P 8823   6.863   6.253   6.179 -0.6073  0.0733  0.4338
   91SAPS   O13 8824   6.898   6.216   6.037  0.7032 -0.2328 -0.3512
   91SAPS   O14 8825   6.890   6.392   6.219  0.5309  0.2930 -0.1545
   91SAPS   O12 8826   6.704   6.234   6.198 -0.3166 -0.4293 -0.3704
   91SAPS   O11 8827   6.924   6.152   6.284 -0.1995 -0.0728  0.2163
   91SAPS    C1 8828   7.018   6.192   6.383  0.0410 -0.0893 -0.5185
   91SAPS    HA 8829   7.103   6.122   6.396  0.9707  1.0652 -0.1717
   91SAPS    HB 8830   7.069   6.289   6.362  2.2966 -0.9654  0.6474
   91SAPS    C2 8831   6.943   6.196   6.520 -0.6458  0.2924 -0.4867
   91SAPS    HS 8832   6.853   6.259   6.500 -2.5521 -2.1262  0.0022
   91SAPS   O21 8833   7.028   6.260   6.616  0.3201  0.1033 -0.0472
   91SAPS   C21 8834   6.969   6.348   6.700  0.2015  0.2591 -0.5232
   91SAPS   O22 8835   6.855   6.392   6.693  0.0837  0.2294  0.3193
   91SAPS   C22 8836   7.073   6.396   6.808  0.2130  0.1829 -0.4570
   91SAPS   H2R 8837   7.140   6.310   6.829  1.1968  1.3654  1.6027
   91SAPS   H2S 8838   7.124   6.476   6.750 -1.6701  0.3612 -1.9805
   91SAPS    C3 8839   6.907   6.060   6.560  0.4795 -0.0292  0.1077
   91SAPS    HX 8840   7.006   6.012   6.573  0.8599 -0.1616 -2.6765
   91SAPS    HY 8841   6.857   6.000   6.481 -1.4127 -1.6656  2.4304
   91SAPS   O31 8842   6.833   6.069   6.682  0.6599  0.3982  0.1631
   91SAPS   C31 8843   6.695   6.043   6.674  0.1603  0.4179 -0.7551
   91SAPS   O32 8844   6.629   6.038   6.572 -0.4105  0.2513  0.4341
   91SAPS   C32 8845   6.634   6.023   6.811 -0.0917 -1.0298  0.2816
   91SAPS   H2X 8846   6.658   5.924   6.854  0.0281 -0.3211  1.9079
   91SAPS   H2Y 8847   6.523   6.024   6.800  0.1030  0.3670 -2.4438
   91SAPS   C23 8848   7.006   6.452   6.935  0.1029  0.4801 -0.5145
   91SAPS   H3R 8849   6.914   6.398   6.964 -0.6135  1.3155 -1.1569
   91SAPS   H3S 8850   6.974   6.556   6.912  1.0647  0.5562 -1.5911
   91SAPS   C24 8851   7.104   6.451   7.053  0.6271  0.3612 -0.2857
   91SAPS   H4R 8852   7.076   6.527   7.129  2.5483  1.5542 -0.7068
   91SAPS   H4S 8853   7.195   6.492   7.005  1.2858 -1.7430 -0.9520
   91SAPS   C25 8854   7.138   6.318   7.105 -0.2731 -0.4886 -1.2383
   91SAPS   H5R 8855   7.228   6.284   7.052  0.4065  0.7904 -0.9404
   91SAPS   C26 8856   7.074   6.247   7.200  0.4782 -0.2057  0.3045
   91SAPS   H6R 8857   7.137   6.169   7.245  2.1404 -0.0512 -1.6358
   91SAPS   C27 8858   6.952   6.288   7.284  0.6850  0.5748 -0.1921
   91SAPS   H7R 8859   6.876   6.208   7.268  0.6877  0.5710 -0.1858
   91SAPS   H7S 8860   6.901   6.377   7.242 -0.2441 -0.6627 -1.8132
   91SAPS   C28 8861   6.994   6.309   7.429  0.2227  0.4391 -0.3889
   91SAPS   H8R 8862   7.102   6.326   7.439  0.6251 -1.6055 -0.7418
   91SAPS   C29 8863   6.928   6.297   7.543  0.3553  0.4717  0.1933
   91SAPS   H9R 8864   6.982   6.314   7.637  1.6778 -1.6729 -0.1142
   91SAPS  C210 8865   6.783   6.274   7.555  0.6533  0.4532  0.2138
   91SAPS  H10R 8866   6.757   6.170   7.582  0.6379  0.4746  0.2825
   91SAPS  H10S 8867   6.738   6.274   7.454 -0.7591 -0.2329  0.8257
   91SAPS  C211 8868   6.715   6.369   7.648  0.0380  0.5071 -0.5658
   91SAPS  H11R 8869   6.633   6.426   7.603 -0.7471  0.2535  0.4837
   91SAPS  C212 8870   6.716   6.390   7.783  0.9914  0.7843  0.2305
   91SAPS  H12R 8871   6.651   6.465   7.829 -1.5993 -1.9282  1.2699
   91SAPS  C213 8872   6.790   6.304   7.875 -0.9749  0.2040 -0.1092
   91SAPS  H13R 8873   6.900   6.317   7.867 -1.0899  1.0981 -0.2981
   91SAPS  H13S 8874   6.773   6.199   7.843  1.6864 -0.8851  1.6520
   91SAPS  C214 8875   6.745   6.314   8.018 -0.1927 -0.5679 -0.2582
   91SAPS  H14R 8876   6.636   6.309   8.029 -0.3348  2.3977  0.6182
   91SAPS  C215 8877   6.815   6.332   8.132  0.8007  0.0204  0.4587
   91SAPS  H15R 8878   6.757   6.353   8.223 -0.7261 -1.3253 -0.1659
   91SAPS  C216 8879   6.965   6.341   8.143  0.2553 -0.2173  0.3976
   91SAPS  H16R 8880   7.016   6.356   8.046 -0.8521  0.0471 -0.1622
   91SAPS  H16S 8881   7.008   6.246   8.180 -1.8812 -0.6784  1.8864
   91SAPS  C217 8882   7.015   6.459   8.232 -0.1279 -0.1616  1.0075
   91SAPS  H17R 8883   6.987   6.433   8.336 -1.7822  0.9477  0.8874
   91SAPS  H17S 8884   6.966   6.556   8.208  0.1756  0.3056  2.1868
   91SAPS  C218 8885   7.165   6.470   8.222 -0.1535  0.6992 -0.1373
   91SAPS  H18R 8886   7.185   6.473   8.113  1.5456  0.0384  0.1329
   91SAPS  H18S 8887   7.208   6.378   8.266 -1.6861 -0.5274 -1.0856
   91SAPS  C219 8888   7.225   6.597   8.279 -0.0254  0.2424 -0.3100
   91SAPS  H19R 8889   7.199   6.593   8.387 -0.6785 -1.3589 -0.5071
   91SAPS  H19S 8890   7.157   6.675   8.239 -0.9628 -1.4709 -2.2384
   91SAPS  C220 8891   7.370   6.641   8.264 -0.7292 -0.9152 -0.4662
   91SAPS  H20R 8892   7.409   6.631   8.161 -0.2530  0.7014 -0.4641
   91SAPS  H20S 8893   7.439   6.592   8.336 -1.7036 -0.1469  1.0542
   91SAPS  H20T 8894   7.386   6.746   8.296  1.1897 -0.6929 -2.0208
   91SAPS   C33 8895   6.688   6.136   6.905 -0.4517  0.0716 -0.3082
   91SAPS   H3X 8896   6.720   6.229   6.852  1.8606 -1.1459 -1.1697
   91SAPS   H3Y 8897   6.790   6.102   6.931 -0.1610 -1.8323 -3.3967
   91SAPS   C34 8898   6.598   6.165   7.021  1.0136  0.4627  0.3742
   91SAPS   H4X 8899   6.505   6.224   7.005  1.5433  1.3820  0.6313
   91SAPS   H4Y 8900   6.652   6.214   7.105 -1.7633  0.3174  2.3759
   91SAPS   C35 8901   6.571   6.036   7.108 -0.6989  0.4554  0.7896
   91SAPS   H5X 8902   6.654   5.961   7.110 -1.4787 -0.4904 -0.3846
   91SAPS   H5Y 8903   6.494   5.972   7.060 -0.5298 -0.3724  1.5804
   91SAPS   C36 8904   6.505   6.065   7.244  0.3620 -0.7919 -0.7089
   91SAPS   H6X 8905   6.409   6.119   7.235  0.5099  0.0884  1.9329
   91SAPS   H6Y 8906   6.577   6.125   7.304 -0.6994 -1.2922  1.1397
   91SAPS   C37 8907   6.475   5.933   7.320  0.0891 -0.2210 -0.1952
   91SAPS   H7X 8908   6.569   5.884   7.351 -0.6894 -1.0667  0.8888
   91SAPS   H7Y 8909   6.424   5.854   7.260  2.9690 -2.3457 -0.0021
   91SAPS   C38 8910   6.385   5.958   7.437 -0.3588 -1.0089 -0.3183
   91SAPS   H8X 8911   6.359   5.862   7.487 -1.2480 -0.6721 -0.1200
   91SAPS   H8Y 8912   6.290   6.003   7.399  0.4213  0.4326 -0.6265
   91SAPS   C39 8913   6.443   6.039   7.551 -0.1009  0.5152  0.4701
   91SAPS   H9X 8914   6.482   6.137   7.516  2.2808 -1.3573 -2.5964
   91SAPS   H9Y 8915   6.531   5.996   7.602  1.2776  4.1215  1.4222
   91SAPS  C310 8916   6.335   6.056   7.651  0.9501 -0.1337 -1.1626
   91SAPS  H10X 8917   6.280   5.972   7.697  0.5971  1.7335  2.1029
   91SAPS  H10Y 8918   6.253   6.111   7.600 -1.0308 -1.2159  0.7126
   91SAPS  C311 8919   6.380   6.144   7.778 -0.1820  0.4850 -0.3300
   91SAPS  H11X 8920   6.397   6.245   7.733  0.8811 -0.8731 -3.2195
   91SAPS  H11Y 8921   6.480   6.108   7.808 -0.9957  0.5332  2.7395
   91SAPS  C312 8922   6.288   6.142   7.892 -0.0909  0.2812 -0.1043
   91SAPS  H12X 8923   6.331   6.205   7.973 -1.0871  0.9023 -0.0307
   91SAPS  H12Y 8924   6.280   6.035   7.921  0.2515 -0.6588 -3.1352
   91SAPS  C313 8925   6.148   6.199   7.860 -0.4965 -0.2546  0.4094
   91SAPS  H13X 8926   6.119   6.179   7.754  1.6481 -1.2333 -0.0444
   91SAPS  H13Y 8927   6.167   6.308   7.863  1.8481 -0.5065 -1.7022
   91SAPS  C314 8928   6.037   6.164   7.969 -0.1105 -0.2435  0.1311
   91SAPS  H14X 8929   6.028   6.053   7.967  0.5005 -0.3303  1.3695
   91SAPS  H14Y 8930   5.943   6.207   7.927 -0.8381  0.7342  2.5628
   91SAPS  C315 8931   6.057   6.215   8.108 -0.0262 -0.3178 -0.7339
   91SAPS  H15X 8932   6.066   6.326   8.113  0.2698 -0.3585 -0.2303
   91SAPS  H15Y 8933   6.154   6.175   8.147  0.0942  0.5406 -0.1139
   91SAPS  C316 8934   5.950   6.171   8.213  0.8259 -0.3586  0.7513
   91SAPS  H16X 8935   5.928   6.062   8.212 -4.7471  0.4613  0.5514
   91SAPS  H16Y 8936   5.855   6.214   8.172  1.2663  1.5624  1.6291
   91SAPS  C317 8937   5.983   6.216   8.355  1.0186 -0.1171  0.4034
   91SAPS  H17X 8938   6.047   6.305   8.338 -0.0962  0.5210 -0.5929
   91SAPS  H17Y 8939   6.045   6.138   8.405  0.6058  0.6344  2.1875
   91SAPS  C318 8940   5.863   6.259   8.444  0.8500 -0.2248 -0.6515
   91SAPS  H18X 8941   5.892   6.329   8.525  0.0466  0.5922 -1.0537
   91SAPS  H18Y 8942   5.818   6.175   8.502 -1.1697 -0.2586 -2.1419
   91SAPS  H18Z 8943   5.785   6.306   8.381 -0.3281  1.1016  1.6437
   92SAPS     N 8944   0.676   4.497   6.461 -0.5051  0.4194  0.8530
   92SAPS   HN1 8945   0.778   4.496   6.478 -0.4734 -0.4736  0.6493
   92SAPS   HN2 8946   0.651   4.580   6.518 -0.1324  1.1023  0.0355
   92SAPS   HN3 8947   0.611   4.427   6.504 -3.6151  2.1156 -0.7299
   92SAPS   C12 8948   0.621   4.514   6.312 -0.2556  0.9147  0.4734
   92SAPS  H12A 8949   0.650   4.613   6.281  0.6633  0.4282 -0.2553
   92SAPS   C13 8950   0.684   4.407   6.214  0.0056  0.3053  0.5403
   92SAPS  O13A 8951   0.761   4.316   6.255  0.3478  0.3469 -0.0624
   92SAPS  O13B 8952   0.639   4.407   6.093 -0.1838  0.0606  0.1123
   92SAPS   C11 8953   0.468   4.485   6.317  0.3267  0.0612  0.1222
   92SAPS  H11A 8954   0.465   4.375   6.322 -2.5477  0.1256  1.6932
   92SAPS  H11B 8955   0.414   4.520   6.226  0.0766  2.6897  1.1957
   92SAPS     P 8956   0.239   4.530   6.440  0.4488 -0.3401  0.2289
   92SAPS   O13 8957   0.184   4.641   6.357  0.6071  0.0381 -0.3404
   92SAPS   O14 8958   0.197   4.391   6.394 -0.4108 -0.0007 -0.2541
   92SAPS   O12 8959   0.397   4.545   6.435 -0.6276 -0.3643  0.2177
   92SAPS   O11 8960   0.202   4.552   6.600 -0.0085 -0.2324  0.2287
   92SAPS    C1 8961   0.276   4.646   6.681 -0.0087  0.1782  0.5070
   92SAPS    HA 8962   0.378   4.604   6.693 -0.1146 -0.3956 -0.4695
   92SAPS    HB 8963   0.286   4.746   6.633  4.7154  0.0172  0.6845
   92SAPS    C2 8964   0.213   4.668   6.816 -0.7715  0.6320  0.3561
   92SAPS    HS 8965   0.108   4.702   6.821 -0.2996  2.4654 -1.0316
   92SAPS   O21 8966   0.298   4.760   6.894 -0.9278  0.6433 -0.6357
   92SAPS   C21 8967   0.275   4.883   6.865 -0.4507 -0.5334  0.3768
   92SAPS   O22 8968   0.181   4.918   6.792  0.2932  0.4360 -0.7026
   92SAPS   C22 8969   0.357   4.979   6.944 -0.4141 -0.0846  0.1591
   92SAPS   H2R 8970   0.431   4.925   7.006 -0.3143 -2.0377 -1.5355
   92SAPS   H2S 8971   0.416   5.038   6.870 -0.9615  0.9986  0.5646
   92SAPS    C3 8972   0.217   4.538   6.899  0.2710 -0.5152 -0.7969
   92SAPS    HX 8973   0.327   4.544   6.916  0.5146  0.6463 -2.5427
   92SAPS    HY 8974   0.181   4.458   6.832 -3.3913 -0.2174  0.5808
   92SAPS   O31 8975   0.149   4.547   7.028  0.2720  0.7280  0.0711
   92SAPS   C31 8976   0.132   4.430   7.085 -0.6336 -0.1786 -0.4806
   92SAPS   O32 8977   0.182   4.329   7.042  0.0011 -0.0936 -0.5058
   92SAPS   C32 8978   0.051   4.446   7.205  0.9087  0.0130 -1.2839
   92SAPS   H2X 8979  -0.021   4.531   7.194 -2.3868 -2.5439 -1.0079
   92SAPS   H2Y 8980   0.112   4.456   7.297 -1.3332  1.3556  0.1646
   92SAPS   C23 8981   0.269   5.074   7.035 -0.0922 -0.3606  0.1333
   92SAPS   H3R 8982   0.210   5.006   7.100 -0.7783 -1.5777 -1.6668
   92SAPS   H3S 8983   0.198   5.122   6.964 -0.1977 -1.7149 -0.7279
   92SAPS   C24 8984   0.343   5.179   7.123 -0.1546  0.4596  0.0962
   92SAPS   H4R 8985   0.266   5.250   7.159 -1.3301 -0.4458 -0.5598
   92SAPS   H4S 8986   0.417   5.233   7.060 -1.3577  0.5335 -1.3018
   92SAPS   C25 8987   0.412   5.108   7.242 -0.5368  0.0043  1.6963
   92SAPS   H5R 8988   0.499   5.058   7.197 -0.4546  1.5880 -0.0402
   92SAPS   C26 8989   0.408   5.111   7.367 -0.1931 -0.1449 -0.9000
   92SAPS   H6R 8990   0.470   5.037   7.419 -0.7395  1.5872  2.5490
   92SAPS   C27 8991   0.311   5.190   7.451 -0.5701 -0.6477 -1.2978
   92SAPS   H7R 8992   0.222   5.225   7.395 -1.5753 -0.7466  0.1849
   92SAPS   H7S 8993   0.364   5.284   7.479  0.2139 -1.4161 -0.0901
   92SAPS   C28 8994   0.276   5.131   7.584  0.6160  0.3401  0.0265
   92SAPS   H8R 8995   0.368   5.111   7.641  0.7281  3.6174  1.1730
   92SAPS   C29 8996   0.157   5.116   7.637 -0.8768  0.2296  0.7495
   92SAPS   H9R 8997   0.157   5.059   7.732  1.1385  0.1847  0.7585
   92SAPS  C210 8998   0.029   5.165   7.585  0.2066 -0.0182 -0.3330
   92SAPS  H10R 8999   0.016   5.128   7.481  1.4587  0.6852 -0.7543
   92SAPS  H10S 9000   0.039   5.275   7.574 -1.2559  0.4423  2.1000
   92SAPS  C211 9001  -0.088   5.133   7.666  0.8562 -0.3090 -0.7399
   92SAPS  H11R 9002  -0.148   5.051   7.625 -0.9494  1.0345 -0.9039
   92SAPS  C212 9003  -0.128   5.204   7.775  0.0383  0.0207  0.3489
   92SAPS  H12R 9004  -0.226   5.171   7.813 -0.7982  1.6847 -0.2535
   92SAPS  C213 9005  -0.067   5.323   7.843  0.0672  0.1713  0.4452
   92SAPS  H13R 9006  -0.152   5.389   7.867 -1.3660 -1.6530  0.6310
   92SAPS  H13S 9007  -0.017   5.384   7.764 -0.2724  1.7398  1.4060
   92SAPS  C214 9008   0.021   5.287   7.963  0.7559 -0.9514  0.0051
   92SAPS  H14R 9009   0.109   5.222   7.953  2.0510  0.5602  1.2381
   92SAPS  C215 9010  -0.019   5.315   8.089  0.4209 -0.2927 -0.0958
   92SAPS  H15R 9011   0.049   5.301   8.175 -1.1490 -1.5090  1.0068
   92SAPS  C216 9012  -0.139   5.383   8.139  0.4535 -0.9877 -0.0037
   92SAPS  H16R 9013  -0.225   5.373   8.069 -0.5952 -1.4102  1.3194
   92SAPS  H16S 9014  -0.123   5.493   8.141 -2.3490 -0.3220 -3.3056
   92SAPS  C217 9015  -0.194   5.337   8.275  0.6721 -0.4784 -0.5012
   92SAPS  H17R 9016  -0.115   5.331   8.354 -0.1550  1.1595  0.5071
   92SAPS  H17S 9017  -0.247   5.240   8.275  2.0386 -1.3689  2.7599
   92SAPS  C218 9018  -0.294   5.449   8.318  0.2933 -0.4868 -0.0560
   92SAPS  H18R 9019  -0.364   5.445   8.232 -0.6287 -1.9242  0.7200
   92SAPS  H18S 9020  -0.245   5.549   8.323 -0.2534 -0.1864 -0.6346
   92SAPS  C219 9021  -0.382   5.416   8.440  0.2901  0.1663  0.4530
   92SAPS  H19R 9022  -0.307   5.394   8.519 -1.2935 -0.8150  1.7325
   92SAPS  H19S 9023  -0.436   5.324   8.408  1.8062 -0.1093 -1.5576
   92SAPS  C220 9024  -0.484   5.512   8.480 -0.3909 -0.1914  0.0557
   92SAPS  H20R 9025  -0.555   5.517   8.394  1.9401 -0.1188 -1.9941
   92SAPS  H20S 9026  -0.441   5.613   8.499 -0.6216  0.2338 -1.4930
   92SAPS  H20T 9027  -0.541   5.483   8.570 -1.6579 -0.7327 -0.8779
   92SAPS   C33 9028  -0.044   4.326   7.235 -0.1511 -0.3299  0.6977
   92SAPS   H3X 9029   0.011   4.234   7.206 -1.7472 -0.9868 -0.4106
   92SAPS   H3Y 9030  -0.129   4.326   7.163  1.6945 -2.1476 -1.6712
   92SAPS   C34 9031  -0.093   4.323   7.379  0.1908  0.0413  0.2297
   92SAPS   H4X 9032  -0.182   4.257   7.371  0.4592 -0.2381 -0.5183
   92SAPS   H4Y 9033  -0.135   4.423   7.404  0.8038  0.6011 -0.9060
   92SAPS   C35 9034   0.008   4.268   7.476 -0.0701  0.2984  0.6740
   92SAPS   H5X 9035   0.105   4.321   7.490  1.2042 -1.7269 -0.2045
   92SAPS   H5Y 9036   0.037   4.164   7.453  0.0769  0.5812 -0.5066
   92SAPS   C36 9037  -0.054   4.251   7.620  0.1557  0.3585  0.2957
   92SAPS   H6X 9038  -0.150   4.196   7.616 -1.4188  3.0546 -1.4873
   92SAPS   H6Y 9039  -0.093   4.351   7.650  0.5690  1.1949 -1.8024
   92SAPS   C37 9040   0.049   4.206   7.725  0.0669 -0.0279 -0.6000
   92SAPS   H7X 9041   0.147   4.259   7.719  1.0009 -1.3570  1.5615
   92SAPS   H7Y 9042   0.078   4.102   7.701  0.8404 -0.7382  2.8365
   92SAPS   C38 9043  -0.003   4.210   7.874 -0.2906 -0.3328 -0.5288
   92SAPS   H8X 9044  -0.091   4.144   7.890 -0.0113 -0.6961 -0.4656
   92SAPS   H8Y 9045  -0.024   4.316   7.899  1.6480 -0.2055  0.7615
   92SAPS   C39 9046   0.102   4.157   7.976  0.1692 -0.0932 -0.1810
   92SAPS   H9X 9047   0.145   4.059   7.947 -0.2713  0.2760 -2.2225
   92SAPS   H9Y 9048   0.045   4.141   8.070  0.1750 -0.6451 -0.2668
   92SAPS  C310 9049   0.211   4.261   8.011  0.3920 -0.1454 -0.5191
   92SAPS  H10X 9050   0.157   4.356   8.031  0.2246 -0.6486  1.7242
   92SAPS  H10Y 9051   0.271   4.272   7.918 -0.5157 -1.3783 -1.2949
   92SAPS  C311 9052   0.295   4.219   8.130 -0.0653  0.1597 -0.3983
   92SAPS  H11X 9053   0.400   4.231   8.094 -0.5113  1.4890 -1.3020
   92SAPS  H11Y 9054   0.281   4.111   8.153  2.8742 -0.4193 -0.8399
   92SAPS  C312 9055   0.282   4.299   8.260  0.2489 -0.0292 -0.2924
   92SAPS  H12X 9056   0.331   4.396   8.238  2.4939 -1.0081  0.1436
   92SAPS  H12Y 9057   0.349   4.263   8.341  0.9879  1.5001 -0.1861
   92SAPS  C313 9058   0.147   4.302   8.333  0.3551  0.9183  0.0525
   92SAPS  H13X 9059   0.115   4.197   8.348 -1.6223  1.1646 -1.9026
   92SAPS  H13Y 9060   0.080   4.355   8.262 -0.7477 -0.8928 -0.3179
   92SAPS  C314 9061   0.155   4.384   8.460 -0.5772  0.0665 -0.1650
   92SAPS  H14X 9062   0.187   4.486   8.430  0.6142 -0.7786 -1.9300
   92SAPS  H14Y 9063   0.227   4.356   8.540 -0.5495  0.4770 -0.0425
   92SAPS  C315 9064   0.028   4.377   8.543 -0.1967 -0.0005  0.8259
   92SAPS  H15X 9065  -0.039   4.296   8.506  0.6219 -0.2542 -0.1710
   92SAPS  H15Y 9066  -0.030   4.469   8.524  0.8684  0.9757  2.1353
   92SAPS  C316 9067   0.048   4.346   8.691 -0.8055 -0.2056 -0.1352
   92SAPS  H16X 9068   0.133   4.412   8.718  1.2126 -2.2396 -1.2392
   92SAPS  H16Y 9069   0.095   4.247   8.707  0.2723  0.4606  0.9625
   92SAPS  C317 9070  -0.071   4.388   8.773  0.3067 -0.5907  0.1370
   92SAPS  H17X 9071  -0.111   4.486   8.741 -2.7460 -1.3916  1.1738
   92SAPS  H17Y 9072  -0.026   4.395   8.874 -0.3977  0.8100  0.3708
   92SAPS  C318 9073  -0.193   4.302   8.765 -0.4001 -0.3136  0.4201
   92SAPS  H18X 9074  -0.214   4.270   8.661  2.3725 -0.1804 -0.2624
   92SAPS  H18Y 9075  -0.273   4.359   8.816  1.2031  1.1984  1.3662
   92SAPS  H18Z 9076  -0.176   4.205   8.818 -0.2425 -0.7500 -0.4110
   93SAPS     N 9077   1.385   3.330   6.314 -0.3441 -0.7524 -0.0317
   93SAPS   HN1 9078   1.354   3.306   6.411 -2.2482 -0.3346 -0.4888
   93SAPS   HN2 9079   1.310   3.384   6.266 -0.2718  1.4476  2.1128
   93SAPS   HN3 9080   1.400   3.238   6.269  0.2600 -1.3914  1.4089
   93SAPS   C12 9081   1.501   3.420   6.317  0.1395  0.5012 -0.4421
   93SAPS  H12A 9082   1.578   3.392   6.386  0.0990  1.3953 -0.0204
   93SAPS   C13 9083   1.563   3.461   6.180  0.1150 -0.7163 -0.3356
   93SAPS  O13A 9084   1.503   3.427   6.078  0.6133 -0.1758  0.3163
   93SAPS  O13B 9085   1.665   3.536   6.183 -0.3266  0.1566  0.2209
   93SAPS   C11 9086   1.459   3.548   6.394 -0.0249  0.5146  0.6480
   93SAPS  H11A 9087   1.521   3.632   6.355  0.5792 -0.3372 -0.2579
   93SAPS  H11B 9088   1.480   3.542   6.503  2.7899  3.7572  0.4769
   93SAPS     P 9089   1.249   3.682   6.473  0.0528  0.2057 -0.1754
   93SAPS   O13 9090   1.144   3.764   6.401  0.0773 -0.2134  0.5645
   93SAPS   O14 9091   1.204   3.603   6.584  0.5025  0.3636  0.0731
   93SAPS   O12 9092   1.325   3.585   6.369  0.1300 -0.3129 -0.8321
   93SAPS   O11 9093   1.367   3.770   6.527  0.0668 -0.3290 -0.3601
   93SAPS    C1 9094   1.404   3.814   6.661  0.8392  0.4606  0.2337
   93SAPS    HA 9095   1.433   3.920   6.669  0.6828  0.3444  3.2375
   93SAPS    HB 9096   1.327   3.804   6.740  1.4587 -1.1214  0.6747
   93SAPS    C2 9097   1.526   3.732   6.714 -0.0919 -0.0691 -0.9338
   93SAPS    HS 9098   1.602   3.739   6.634  2.9726 -1.3171  1.6536
   93SAPS   O21 9099   1.491   3.592   6.744 -0.1086 -0.4370 -0.2833
   93SAPS   C21 9100   1.590   3.502   6.751 -0.5415  0.5286 -0.6787
   93SAPS   O22 9101   1.702   3.507   6.704  0.3746  0.3320  0.3681
   93SAPS   C22 9102   1.538   3.389   6.842 -0.1228 -0.2438  0.4528
   93SAPS   H2R 9103   1.501   3.415   6.943 -1.2854 -3.0983  0.8412
   93SAPS   H2S 9104   1.447   3.346   6.794  0.2388  0.3062 -0.7785
   93SAPS    C3 9105   1.573   3.792   6.844  0.4531  0.3945 -0.0867
   93SAPS    HX 9106   1.628   3.886   6.821  0.4195  0.1722 -1.1478
   93SAPS    HY 9107   1.654   3.722   6.873 -1.2692 -2.0416 -0.8497
   93SAPS   O31 9108   1.466   3.808   6.942 -0.3539 -0.4720  0.0162
   93SAPS   C31 9109   1.470   3.720   7.035  0.2691 -0.4661 -0.6208
   93SAPS   O32 9110   1.533   3.619   7.043 -0.1420 -0.1373 -0.0074
   93SAPS   C32 9111   1.363   3.759   7.144 -0.7217  0.0068 -0.4684
   93SAPS   H2X 9112   1.258   3.754   7.108 -0.7669  2.6342 -0.8538
   93SAPS   H2Y 9113   1.383   3.864   7.174  1.0526 -0.5220  0.4135
   93SAPS   C23 9114   1.638   3.272   6.848 -0.7895  0.1234 -0.3831
   93SAPS   H3R 9115   1.730   3.313   6.894 -0.0174 -1.3877 -0.4971
   93SAPS   H3S 9116   1.663   3.231   6.747  2.2324 -0.7036  0.5895
   93SAPS   C24 9117   1.586   3.155   6.936  0.1283  0.2853 -0.1921
   93SAPS   H4R 9118   1.564   3.187   7.040  1.1258 -1.5460  0.6249
   93SAPS   H4S 9119   1.678   3.092   6.942  0.8797  1.2694 -1.0817
   93SAPS   C25 9120   1.477   3.067   6.882  0.0591  0.4117 -0.0660
   93SAPS   H5R 9121   1.433   3.111   6.792 -0.6404  1.0675  0.5842
   93SAPS   C26 9122   1.431   2.955   6.939 -0.5787  1.0875 -0.1503
   93SAPS   H6R 9123   1.340   2.911   6.895  0.5723 -1.8988  0.2108
   93SAPS   C27 9124   1.475   2.896   7.072 -0.3452  0.3569  0.1731
   93SAPS   H7R 9125   1.584   2.908   7.092  0.0442 -0.8224 -1.1259
   93SAPS   H7S 9126   1.473   2.786   7.056  1.1143 -0.2507  3.3565
   93SAPS   C28 9127   1.394   2.930   7.194 -0.2088 -0.1764 -0.6283
   93SAPS   H8R 9128   1.318   3.007   7.173  1.0047  1.1166 -0.4205
   93SAPS   C29 9129   1.418   2.888   7.321 -0.7450 -0.0438 -0.1081
   93SAPS   H9R 9130   1.346   2.903   7.403 -1.2982 -0.2723 -0.5381
   93SAPS  C210 9131   1.536   2.794   7.349  0.7661  0.6800 -0.5103
   93SAPS  H10R 9132   1.614   2.866   7.381  0.5931  1.9805 -2.7419
   93SAPS  H10S 9133   1.583   2.742   7.263  2.0380  1.5002 -0.3357
   93SAPS  C211 9134   1.515   2.690   7.462  0.6986 -0.6209 -0.3254
   93SAPS  H11R 9135   1.488   2.589   7.428  1.8536 -0.4485 -1.8947
   93SAPS  C212 9136   1.554   2.701   7.593  0.3878 -0.3538  0.4572
   93SAPS  H12R 9137   1.528   2.621   7.664  1.0294  1.3346  2.7115
   93SAPS  C213 9138   1.605   2.823   7.665 -0.3684  0.4215  0.2494
   93SAPS  H13R 9139   1.552   2.832   7.762 -1.8474 -0.0125 -0.4878
   93SAPS  H13S 9140   1.579   2.912   7.604  0.5670 -2.5894 -5.2026
   93SAPS  C214 9141   1.750   2.829   7.703 -0.0119 -0.2746  0.3077
   93SAPS  H14R 9142   1.806   2.883   7.625 -1.9195  0.5329 -0.5559
   93SAPS  C215 9143   1.824   2.798   7.811  0.0128  0.3967  0.0177
   93SAPS  H15R 9144   1.934   2.804   7.807 -0.0020  0.0394 -1.2937
   93SAPS  C216 9145   1.765   2.727   7.938  0.3733 -0.5800  1.0878
   93SAPS  H16R 9146   1.764   2.617   7.924  0.1179 -0.3255 -1.3016
   93SAPS  H16S 9147   1.657   2.749   7.953  0.4296 -0.5256  1.4265
   93SAPS  C217 9148   1.848   2.762   8.051 -0.2470 -0.0737  0.4087
   93SAPS  H17R 9149   1.954   2.738   8.026 -0.1203 -1.5793  2.1275
   93SAPS  H17S 9150   1.836   2.700   8.143  1.2736  0.4823  1.0268
   93SAPS  C218 9151   1.827   2.909   8.101 -0.7480 -0.5512  0.0737
   93SAPS  H18R 9152   1.718   2.925   8.106 -0.7883 -1.1349  1.9095
   93SAPS  H18S 9153   1.872   2.974   8.023 -1.5039 -1.3144 -1.0235
   93SAPS  C219 9154   1.884   2.931   8.242  0.6371 -0.3747 -0.1583
   93SAPS  H19R 9155   1.994   2.915   8.239  0.7477  0.3881 -0.3212
   93SAPS  H19S 9156   1.839   2.880   8.330 -0.1146 -0.9853 -0.8857
   93SAPS  C220 9157   1.863   3.074   8.288  0.1022  0.3781 -0.5427
   93SAPS  H20R 9158   1.756   3.101   8.289 -0.0125 -0.0120  1.4822
   93SAPS  H20S 9159   1.907   3.143   8.212  2.9118 -0.4711  0.1949
   93SAPS  H20T 9160   1.909   3.104   8.384 -1.5507  0.1660  0.3435
   93SAPS   C33 9161   1.388   3.661   7.270  0.2779 -0.3665  0.3738
   93SAPS   H3X 9162   1.497   3.656   7.291  0.3841  0.6551  0.1573
   93SAPS   H3Y 9163   1.346   3.563   7.240  0.0295  0.0253 -0.6266
   93SAPS   C34 9164   1.312   3.715   7.390 -0.8420 -0.0218 -0.3797
   93SAPS   H4X 9165   1.210   3.748   7.362 -0.9035  0.6801  0.6179
   93SAPS   H4Y 9166   1.355   3.814   7.415 -2.1960 -0.2041  3.3760
   93SAPS   C35 9167   1.304   3.614   7.511  0.2803 -0.2291 -0.1048
   93SAPS   H5X 9168   1.268   3.513   7.482 -0.2601  0.1159 -0.6443
   93SAPS   H5Y 9169   1.231   3.662   7.580  0.8819 -1.2678  1.3021
   93SAPS   C36 9170   1.435   3.618   7.596 -0.2184  0.4207  0.2019
   93SAPS   H6X 9171   1.467   3.724   7.609 -0.4910  0.2783  2.5157
   93SAPS   H6Y 9172   1.516   3.566   7.542  0.4017  1.7071 -0.1518
   93SAPS   C37 9173   1.417   3.561   7.735  0.3072  0.2422  0.2511
   93SAPS   H7X 9174   1.518   3.541   7.777  2.4170  0.7609 -4.0034
   93SAPS   H7Y 9175   1.378   3.458   7.738  3.7089 -1.1743  1.3604
   93SAPS   C38 9176   1.335   3.646   7.836  0.7699  0.3097  0.0507
   93SAPS   H8X 9177   1.228   3.637   7.809  0.7560  1.3581 -0.3176
   93SAPS   H8Y 9178   1.391   3.742   7.829  1.3372  0.0129  0.4763
   93SAPS   C39 9179   1.346   3.605   7.982  0.4836 -0.3833 -0.4764
   93SAPS   H9X 9180   1.450   3.571   8.000 -0.0649 -2.3958 -0.8499
   93SAPS   H9Y 9181   1.289   3.513   8.006  0.0139 -0.2219 -0.9456
   93SAPS  C310 9182   1.328   3.730   8.076 -0.4748  0.0253  0.0440
   93SAPS  H10X 9183   1.222   3.761   8.064 -1.7815 -2.0034  4.4013
   93SAPS  H10Y 9184   1.390   3.813   8.034 -2.7610  1.7976 -0.0565
   93SAPS  C311 9185   1.359   3.723   8.224 -0.4254 -0.5763 -0.0930
   93SAPS  H11X 9186   1.464   3.689   8.237  0.3774  1.7242 -0.0008
   93SAPS  H11Y 9187   1.296   3.646   8.273 -0.4729 -0.4966 -0.0284
   93SAPS  C312 9188   1.341   3.857   8.294 -0.5622 -0.1150  0.5120
   93SAPS  H12X 9189   1.236   3.892   8.282 -0.1308  0.7779 -0.8671
   93SAPS  H12Y 9190   1.413   3.933   8.257  0.8474 -1.5250  0.2548
   93SAPS  C313 9191   1.355   3.861   8.447  0.3069  0.3135 -0.3619
   93SAPS  H13X 9192   1.303   3.770   8.482 -3.0609  2.1772 -0.0922
   93SAPS  H13Y 9193   1.309   3.957   8.479  0.2621  0.2465 -0.2234
   93SAPS  C314 9194   1.499   3.859   8.499 -0.1580 -0.1504  0.4996
   93SAPS  H14X 9195   1.570   3.788   8.450 -0.1184  0.2117  0.0279
   93SAPS  H14Y 9196   1.487   3.834   8.607  1.5825  0.6155  0.8998
   93SAPS  C315 9197   1.556   3.999   8.498  0.0358 -0.7111 -0.0043
   93SAPS  H15X 9198   1.475   4.074   8.509  1.1297  0.6235 -0.7194
   93SAPS  H15Y 9199   1.605   4.012   8.399  1.7299  1.0848  0.9896
   93SAPS  C316 9200   1.649   4.030   8.620 -0.1053 -0.0499  0.2879
   93SAPS  H16X 9201   1.728   3.952   8.631 -1.1101 -1.1047  0.1218
   93SAPS  H16Y 9202   1.605   4.026   8.722  1.6833  0.5103  1.1346
   93SAPS  C317 9203   1.728   4.164   8.612 -0.6784 -0.6364  0.3494
   93SAPS  H17X 9204   1.665   4.255   8.598  1.5309  0.9960  0.4447
   93SAPS  H17Y 9205   1.789   4.148   8.520  1.9912  1.6628  1.5564
   93SAPS  C318 9206   1.817   4.171   8.727  0.4100 -0.1780  0.5158
   93SAPS  H18X 9207   1.853   4.067   8.743 -5.0355 -2.5771 -0.7859
   93SAPS  H18Y 9208   1.760   4.197   8.818  0.4303  3.3448 -0.3512
   93SAPS  H18Z 9209   1.906   4.237   8.715  0.8667 -1.0762 -1.4290
   94SAPS     N 9210   5.233   6.412   5.995 -0.5026  0.4818 -0.6104
   94SAPS   HN1 9211   5.223   6.427   6.097  1.2644 -2.1134  0.0527
   94SAPS   HN2 9212   5.225   6.310   5.973 -0.9828  0.6129 -1.0675
   94SAPS   HN3 9213   5.321   6.458   5.964  0.0066  1.3878  1.9548
   94SAPS   C12 9214   5.131   6.500   5.936  0.4921  0.2820  0.2639
   94SAPS  H12A 9215   5.173   6.525   5.839  1.0264 -1.4982  0.0098
   94SAPS   C13 9216   4.998   6.439   5.927  0.1548 -0.5566 -0.5334
   94SAPS  O13A 9217   4.973   6.314   5.947 -0.5158 -0.1403  0.1709
   94SAPS  O13B 9218   4.906   6.513   5.883 -0.5315 -0.0507 -0.4611
   94SAPS   C11 9219   5.127   6.635   6.004 -0.5355  0.7506  0.5257
   94SAPS  H11A 9220   5.085   6.623   6.106  0.2360 -1.8137  0.6027
   94SAPS  H11B 9221   5.046   6.691   5.953 -0.9566 -0.4653 -0.2036
   94SAPS     P 9222   5.274   6.845   6.052  0.0259  0.1329  0.1626
   94SAPS   O13 9223   5.410   6.895   6.019  0.2704  0.1592 -0.2449
   94SAPS   O14 9224   5.164   6.931   5.993  0.0613 -0.8092  0.2978
   94SAPS   O12 9225   5.256   6.695   6.002  0.0563 -0.1847  0.3153
   94SAPS   O11 9226   5.253   6.837   6.205  0.3641 -0.2397  0.5485
   94SAPS    C1 9227   5.326   6.744   6.283  0.3637  0.5595  0.5063
   94SAPS    HA 9228   5.266   6.651   6.278 -1.8589  1.9603 -0.7271
   94SAPS    HB 9229   5.430   6.722   6.250  0.4228  1.9258 -0.3200
   94SAPS    C2 9230   5.335   6.779   6.436  0.0722 -0.1531 -0.0640
   94SAPS    HS 9231   5.383   6.693   6.488  1.0649  0.4088 -0.0352
   94SAPS   O21 9232   5.202   6.784   6.494 -0.2970  0.0688 -0.0198
   94SAPS   C21 9233   5.135   6.672   6.496  0.2214  0.3338 -0.3532
   94SAPS   O22 9234   5.183   6.561   6.464  0.1028 -0.3291 -0.4538
   94SAPS   C22 9235   4.995   6.706   6.540 -0.0571 -0.5541  0.1695
   94SAPS   H2R 9236   4.971   6.814   6.524 -0.5483 -0.9550 -2.1134
   94SAPS   H2S 9237   4.923   6.655   6.472 -1.6829  1.2499  0.4337
   94SAPS    C3 9238   5.416   6.903   6.474 -0.3796 -0.3890  0.1640
   94SAPS    HX 9239   5.394   6.977   6.393  0.4809 -2.3941 -2.0178
   94SAPS    HY 9240   5.523   6.875   6.463 -0.6216 -1.2191 -0.1108
   94SAPS   O31 9241   5.406   6.951   6.606 -0.6323 -0.6717 -0.2924
   94SAPS   C31 9242   5.302   7.026   6.621  0.6348  0.6986  0.4451
   94SAPS   O32 9243   5.234   7.081   6.533  0.8280  0.3148  0.1777
   94SAPS   C32 9244   5.285   7.035   6.772 -0.4879 -0.0663  0.0071
   94SAPS   H2X 9245   5.370   7.096   6.808 -1.8729  0.9261  1.7131
   94SAPS   H2Y 9246   5.300   6.933   6.815  0.4112 -0.2862 -0.7922
   94SAPS   C23 9247   4.963   6.664   6.690  0.0656  0.1306 -0.0472
   94SAPS   H3R 9248   4.991   6.557   6.699  0.3743  0.0332 -1.8028
   94SAPS   H3S 9249   4.853   6.670   6.703 -0.4910  0.9032 -3.7643
   94SAPS   C24 9250   5.032   6.739   6.804 -1.0934 -0.4862 -0.9126
   94SAPS   H4R 9251   4.985   6.838   6.820 -1.7099 -0.6840 -1.4566
   94SAPS   H4S 9252   5.135   6.744   6.763 -0.4502  2.4646  0.8113
   94SAPS   C25 9253   5.029   6.657   6.937  0.0772  1.0142 -0.1168
   94SAPS   H5R 9254   4.930   6.640   6.982 -0.6670 -3.3923 -2.8799
   94SAPS   C26 9255   5.135   6.594   7.005 -0.2770 -0.1913 -0.0819
   94SAPS   H6R 9256   5.116   6.539   7.099 -2.1705  0.6916  0.0895
   94SAPS   C27 9257   5.278   6.593   6.957 -0.1800 -0.1815 -0.6621
   94SAPS   H7R 9258   5.347   6.556   7.035 -1.2654  0.9006  0.8625
   94SAPS   H7S 9259   5.298   6.702   6.949 -3.6921  0.8876  2.3088
   94SAPS   C28 9260   5.303   6.515   6.830 -0.1252 -0.8460 -0.0642
   94SAPS   H8R 9261   5.229   6.436   6.808 -0.1668 -0.6889 -0.4897
   94SAPS   C29 9262   5.413   6.539   6.758 -0.5050  0.0707  0.2971
   94SAPS   H9R 9263   5.426   6.482   6.665 -2.2009 -1.6271  1.0340
   94SAPS  C210 9264   5.524   6.631   6.786 -0.3109  0.6555  0.5668
   94SAPS  H10R 9265   5.578   6.594   6.876 -0.1592 -0.2707  0.1177
   94SAPS  H10S 9266   5.484   6.729   6.817  1.2907  1.0001  1.6734
   94SAPS  C211 9267   5.620   6.662   6.678  0.0527  0.3568 -0.1308
   94SAPS  H11R 9268   5.576   6.646   6.579  2.1672 -2.3521 -0.7441
   94SAPS  C212 9269   5.751   6.693   6.690 -0.0299  0.4176 -0.3718
   94SAPS  H12R 9270   5.803   6.708   6.594  0.7993 -0.2442 -0.0401
   94SAPS  C213 9271   5.835   6.706   6.822  0.1616  0.1369  0.4824
   94SAPS  H13R 9272   5.763   6.736   6.902 -1.1505 -0.9051 -0.2766
   94SAPS  H13S 9273   5.905   6.792   6.812 -0.2843  0.4865  0.3288
   94SAPS  C214 9274   5.925   6.584   6.847 -0.2730  0.2548  0.5769
   94SAPS  H14R 9275   6.001   6.563   6.770 -0.1471  1.4906  0.3445
   94SAPS  C215 9276   5.925   6.500   6.954 -0.5210 -0.2625  0.5058
   94SAPS  H15R 9277   5.980   6.405   6.948  0.1022 -0.0037  1.7370
   94SAPS  C216 9278   5.833   6.511   7.072 -0.6610  0.4035  0.1074
   94SAPS  H16R 9279   5.806   6.417   7.125  0.2512 -0.7453 -1.4127
   94SAPS  H16S 9280   5.738   6.562   7.046 -0.2877  2.1176  1.8417
   94SAPS  C217 9281   5.891   6.595   7.187  0.0403 -0.4749  0.0909
   94SAPS  H17R 9282   5.921   6.690   7.138 -0.2434 -0.3698  0.1244
   94SAPS  H17S 9283   5.985   6.558   7.234  1.5815  3.5629  0.5701
   94SAPS  C218 9284   5.795   6.635   7.299 -0.4880 -0.5197 -0.1342
   94SAPS  H18R 9285   5.727   6.551   7.328  0.2050 -1.0542 -0.0285
   94SAPS  H18S 9286   5.734   6.720   7.263  1.7650  2.2249  2.0670
   94SAPS  C219 9287   5.855   6.677   7.442 -0.1850  0.3322  0.1413
   94SAPS  H19R 9288   5.933   6.755   7.428 -0.3725  0.1865 -2.0230
   94SAPS  H19S 9289   5.920   6.591   7.470  0.0664  0.5387  0.1930
   94SAPS  C220 9290   5.746   6.710   7.537 -1.1066  0.2125  0.1850
   94SAPS  H20R 9291   5.784   6.735   7.639 -1.2683 -0.7328  0.4895
   94SAPS  H20S 9292   5.662   6.637   7.548 -0.1290 -0.9657  0.1252
   94SAPS  H20T 9293   5.692   6.796   7.494  0.2259  0.2959 -1.3908
   94SAPS   C33 9294   5.156   7.103   6.811 -0.5612  0.2154 -0.1218
   94SAPS   H3X 9295   5.073   7.049   6.761 -0.2405 -0.2390 -0.1722
   94SAPS   H3Y 9296   5.161   7.208   6.775  0.5519  1.1579  2.5484
   94SAPS   C34 9297   5.148   7.110   6.965  0.4048  0.3021 -0.8415
   94SAPS   H4X 9298   5.238   7.160   7.007  0.3281  2.2798 -2.8427
   94SAPS   H4Y 9299   5.158   7.001   6.987  0.7736  0.7407  1.4395
   94SAPS   C35 9300   5.027   7.172   7.034 -0.2325 -0.0081  0.7104
   94SAPS   H5X 9301   4.935   7.135   6.985 -0.0521  2.3641 -1.6378
   94SAPS   H5Y 9302   5.015   7.282   7.018  1.2494  0.3174  1.6251
   94SAPS   C36 9303   5.017   7.139   7.183  0.3446 -0.0469 -0.0111
   94SAPS   H6X 9304   5.114   7.154   7.236  0.6382 -0.0907 -0.5304
   94SAPS   H6Y 9305   4.998   7.030   7.196  0.8330  0.1620  3.5667
   94SAPS   C37 9306   4.898   7.210   7.255  0.2875 -0.1314 -0.3063
   94SAPS   H7X 9307   4.811   7.205   7.186 -0.7301 -1.5641  1.0193
   94SAPS   H7Y 9308   4.926   7.317   7.265 -1.0312  0.3475 -1.3100
   94SAPS   C38 9309   4.857   7.149   7.386  0.4744 -0.0738 -1.5082
   94SAPS   H8X 9310   4.850   7.038   7.379  0.1578 -0.2198  0.6509
   94SAPS   H8Y 9311   4.760   7.189   7.422  0.5994 -1.4117  0.4779
   94SAPS   C39 9312   4.949   7.172   7.512 -0.1937 -0.0747  0.9250
   94SAPS   H9X 9313   4.985   7.276   7.528  2.7907 -0.8383 -0.1120
   94SAPS   H9Y 9314   5.040   7.113   7.489 -1.0945 -1.1691  0.0907
   94SAPS  C310 9315   4.917   7.100   7.644 -0.4006 -0.1292  0.0641
   94SAPS  H10X 9316   4.866   7.004   7.619  1.2201 -1.1705  0.6296
   94SAPS  H10Y 9317   4.849   7.162   7.707 -0.1776 -0.5083  0.6945
   94SAPS  C311 9318   5.032   7.067   7.742 -0.0890 -0.0800 -0.0378
   94SAPS  H11X 9319   5.114   7.142   7.743  2.3250 -2.5570 -0.2458
   94SAPS  H11Y 9320   5.072   6.974   7.698 -1.2287 -0.3263 -0.6010
   94SAPS  C312 9321   4.990   7.038   7.886 -0.2494 -0.3112 -0.6236
   94SAPS  H12X 9322   4.908   6.963   7.895 -0.5338  0.1627  1.1718
   94SAPS  H12Y 9323   4.961   7.136   7.930  1.4787  0.3692 -0.9450
   94SAPS  C313 9324   5.102   6.966   7.961  0.5275 -0.0278 -0.8450
   94SAPS  H13X 9325   5.203   7.006   7.942  1.2980 -1.5349 -0.0890
   94SAPS  H13Y 9326   5.100   6.857   7.940  0.0627 -0.1765 -0.0636
   94SAPS  C314 9327   5.080   6.986   8.111 -0.5318 -0.2362  0.6212
   94SAPS  H14X 9328   5.157   6.929   8.167  3.4524  0.0177 -3.9477
   94SAPS  H14Y 9329   4.978   6.956   8.143  0.6745 -2.2307  2.9712
   94SAPS  C315 9330   5.107   7.129   8.156 -0.0993 -0.4174  0.4642
   94SAPS  H15X 9331   5.052   7.206   8.099 -1.7484 -2.5469 -0.9624
   94SAPS  H15Y 9332   5.214   7.153   8.136 -0.8196  1.5675 -1.2409
   94SAPS  C316 9333   5.087   7.155   8.306  0.4551 -0.0520 -0.2251
   94SAPS  H16X 9334   5.150   7.082   8.362  0.8103  0.6937  0.3626
   94SAPS  H16Y 9335   4.982   7.136   8.337  0.1902 -1.5974 -1.8785
   94SAPS  C317 9336   5.121   7.297   8.342  0.4519 -0.2745  0.8495
   94SAPS  H17X 9337   5.060   7.368   8.282  1.6153  2.4914  2.7514
   94SAPS  H17Y 9338   5.223   7.316   8.302 -0.2533 -0.5733 -1.2220
   94SAPS  C318 9339   5.107   7.325   8.486  0.6080  0.6257 -0.2383
   94SAPS  H18X 9340   5.138   7.430   8.502 -2.0425  1.2270  1.5300
   94SAPS  H18Y 9341   5.166   7.253   8.547 -1.4164 -0.3963  0.6164
   94SAPS  H18Z 9342   4.999   7.321   8.509  0.3150 -0.7957 -1.6631
   95SAPS     N 9343   5.010   3.402   6.157 -0.1684  0.2857  0.3878
   95SAPS   HN1 9344   5.053   3.380   6.065 -0.2396  0.1599  0.3833
   95SAPS   HN2 9345   4.955   3.490   6.147 -0.6851 -0.1566 -0.8823
   95SAPS   HN3 9346   5.081   3.410   6.232 -1.3290 -0.8226  1.6780
   95SAPS   C12 9347   4.913   3.285   6.190 -1.0946 -0.9428 -0.1645
   95SAPS  H12A 9348   4.834   3.327   6.250 -1.2851 -0.9626 -0.3956
   95SAPS   C13 9349   4.842   3.220   6.072 -0.2657 -0.2402  0.1086
   95SAPS  O13A 9350   4.851   3.273   5.960  0.1754  0.5762  0.3680
   95SAPS  O13B 9351   4.765   3.120   6.091 -0.0688  0.1711 -0.2667
   95SAPS   C11 9352   4.990   3.189   6.284 -0.2997 -0.0980  0.2119
   95SAPS  H11A 9353   4.924   3.105   6.315  0.6973 -1.1682 -0.4751
   95SAPS  H11B 9354   5.007   3.244   6.379  0.8709  0.3150 -0.2208
   95SAPS     P 9355   5.219   3.073   6.317  0.3711 -0.3289 -0.3919
   95SAPS   O13 9356   5.153   2.962   6.384  0.5998  0.0363 -0.2360
   95SAPS   O14 9357   5.342   3.044   6.247  0.2757 -0.1279  0.1307
   95SAPS   O12 9358   5.116   3.145   6.218  0.0544  0.1698 -0.0837
   95SAPS   O11 9359   5.239   3.196   6.419  0.3756  0.7076  0.1714
   95SAPS    C1 9360   5.298   3.167   6.548 -0.2430  0.2703 -0.0572
   95SAPS    HA 9361   5.338   3.064   6.556  1.4680  1.0254  2.3067
   95SAPS    HB 9362   5.391   3.224   6.570  0.8793 -0.7346 -1.9348
   95SAPS    C2 9363   5.188   3.171   6.660 -0.3203 -0.1034  0.0815
   95SAPS    HS 9364   5.110   3.104   6.620  1.0850 -3.2554  2.2385
   95SAPS   O21 9365   5.142   3.305   6.675 -0.2140  0.4868  0.3254
   95SAPS   C21 9366   5.015   3.314   6.703 -0.0030  0.0152  0.1219
   95SAPS   O22 9367   4.924   3.245   6.664  0.2837 -0.7865  0.0410
   95SAPS   C22 9368   5.007   3.414   6.813  0.3333  0.0290 -0.4501
   95SAPS   H2R 9369   5.093   3.415   6.883  0.4787  0.8320 -0.6391
   95SAPS   H2S 9370   5.005   3.517   6.772  0.3912  0.0265 -0.4597
   95SAPS    C3 9371   5.233   3.110   6.789 -0.0433  0.0683  0.2757
   95SAPS    HX 9372   5.298   3.187   6.836 -0.7327  0.4872  0.5744
   95SAPS    HY 9373   5.309   3.031   6.771 -0.4195 -0.1826 -0.2427
   95SAPS   O31 9374   5.122   3.069   6.875  0.9843 -0.7369 -0.2623
   95SAPS   C31 9375   5.138   3.085   7.006 -0.1952 -0.6268  0.1458
   95SAPS   O32 9376   5.245   3.118   7.054  0.3713 -0.0801  0.0173
   95SAPS   C32 9377   5.021   3.039   7.087  0.3269 -1.0394 -0.1257
   95SAPS   H2X 9378   5.007   2.929   7.083 -2.5063 -0.7367 -1.3800
   95SAPS   H2Y 9379   4.926   3.079   7.043 -0.6262 -1.8816  1.0964
   95SAPS   C23 9380   4.875   3.400   6.908  0.2189 -0.2054 -0.1693
   95SAPS   H3R 9381   4.897   3.331   6.992 -0.2378  1.0883  1.0604
   95SAPS   H3S 9382   4.786   3.362   6.853  0.7186 -1.3438 -0.2139
   95SAPS   C24 9383   4.836   3.536   6.979  0.2680  0.5417  0.0769
   95SAPS   H4R 9384   4.851   3.616   6.903 -0.2568  0.7054  0.1408
   95SAPS   H4S 9385   4.916   3.559   7.052  0.4274 -1.7244  0.6652
   95SAPS   C25 9386   4.698   3.536   7.041 -0.4862 -0.7178 -0.0848
   95SAPS   H5R 9387   4.623   3.546   6.962  0.6079  2.2629 -0.8968
   95SAPS   C26 9388   4.667   3.522   7.171  0.0876 -0.6346 -0.8906
   95SAPS   H6R 9389   4.562   3.541   7.196 -0.0223  0.9046 -2.3422
   95SAPS   C27 9390   4.759   3.503   7.287  0.5115  0.0191  0.1222
   95SAPS   H7R 9391   4.781   3.604   7.328 -0.9961  1.7808 -3.0169
   95SAPS   H7S 9392   4.854   3.449   7.270  1.1069  0.3311  2.1828
   95SAPS   C28 9393   4.686   3.427   7.397 -0.3442 -0.0998 -0.2736
   95SAPS   H8R 9394   4.643   3.329   7.375 -1.7109  0.3375  0.3452
   95SAPS   C29 9395   4.674   3.478   7.526 -0.4527 -0.0842  0.5888
   95SAPS   H9R 9396   4.616   3.424   7.602 -1.6842 -0.1993 -0.4064
   95SAPS  C210 9397   4.734   3.608   7.577  0.3467 -0.0924  0.3837
   95SAPS  H10R 9398   4.722   3.692   7.505  2.2788 -0.9657 -1.0571
   95SAPS  H10S 9399   4.844   3.602   7.591  0.2589 -0.9220  0.8225
   95SAPS  C211 9400   4.674   3.652   7.707  0.0909  0.2600  0.1061
   95SAPS  H11R 9401   4.572   3.691   7.695 -0.1719 -0.9621 -2.0598
   95SAPS  C212 9402   4.729   3.647   7.824 -0.1095 -1.0700 -0.6964
   95SAPS  H12R 9403   4.677   3.689   7.912 -0.9716  0.3770 -1.8523
   95SAPS  C213 9404   4.861   3.598   7.865  0.4540  0.5683  0.1797
   95SAPS  H13R 9405   4.935   3.679   7.880  0.6564  0.1899  1.3957
   95SAPS  H13S 9406   4.905   3.533   7.788  0.2880 -0.9625  1.3223
   95SAPS  C214 9407   4.848   3.515   7.993  0.2908  0.2884  0.0254
   95SAPS  H14R 9408   4.837   3.412   7.957  2.6162  0.2749 -0.8346
   95SAPS  C215 9409   4.860   3.546   8.120  0.3462  0.1974 -0.3453
   95SAPS  H15R 9410   4.840   3.466   8.194  2.9548 -0.9775 -0.7843
   95SAPS  C216 9411   4.892   3.685   8.167  0.3097  0.9493 -0.6295
   95SAPS  H16R 9412   4.866   3.761   8.091 -0.3240  1.5915  0.2143
   95SAPS  H16S 9413   5.003   3.691   8.179  0.4790 -0.1325 -1.4453
   95SAPS  C217 9414   4.828   3.714   8.299 -0.6612 -0.9764  0.8714
   95SAPS  H17R 9415   4.852   3.822   8.309  1.0190 -0.8396 -2.9754
   95SAPS  H17S 9416   4.864   3.648   8.382  0.6010 -1.3533  0.0503
   95SAPS  C218 9417   4.675   3.703   8.297 -0.8197 -0.5396 -0.7005
   95SAPS  H18R 9418   4.634   3.600   8.294 -1.7000 -0.2629  0.6670
   95SAPS  H18S 9419   4.655   3.752   8.200  0.6702 -1.6696 -1.6169
   95SAPS  C219 9420   4.607   3.778   8.415  0.9195  0.1750 -0.4089
   95SAPS  H19R 9421   4.497   3.771   8.398  0.8691 -1.5291  0.4131
   95SAPS  H19S 9422   4.635   3.885   8.429  0.5821  0.0301  1.9521
   95SAPS  C220 9423   4.625   3.704   8.546 -0.4804  0.6626 -0.5011
   95SAPS  H20R 9424   4.556   3.745   8.623  0.5707  3.0260 -0.7460
   95SAPS  H20S 9425   4.730   3.708   8.584 -0.2328  4.1120 -1.2361
   95SAPS  H20T 9426   4.610   3.594   8.532 -0.4461  0.9341 -3.1667
   95SAPS   C33 9427   5.027   3.100   7.229  0.8627 -0.2404 -0.0523
   95SAPS   H3X 9428   4.990   3.205   7.231 -4.7043 -1.7931 -1.7697
   95SAPS   H3Y 9429   5.129   3.102   7.273 -0.0848  1.8702  2.3042
   95SAPS   C34 9430   4.937   3.021   7.325  0.4999 -0.1492  0.1612
   95SAPS   H4X 9431   4.954   2.912   7.307 -0.8943 -0.4052  0.2428
   95SAPS   H4Y 9432   4.834   3.034   7.285  0.8751  1.1387 -0.4052
   95SAPS   C35 9433   4.948   3.026   7.475 -0.0381 -0.6676 -0.6866
   95SAPS   H5X 9434   4.905   3.122   7.513  1.6113  0.7726 -2.2423
   95SAPS   H5Y 9435   5.056   3.023   7.503  0.3813 -2.4513 -2.3237
   95SAPS   C36 9436   4.875   2.911   7.543  0.1047  0.7132 -0.1030
   95SAPS   H6X 9437   4.934   2.821   7.517 -0.3917  0.5330 -0.6337
   95SAPS   H6Y 9438   4.774   2.898   7.499 -0.2030  1.3526  0.3915
   95SAPS   C37 9439   4.861   2.928   7.696  0.0030 -0.3261  0.0498
   95SAPS   H7X 9440   4.785   3.005   7.717  0.7929  0.6326 -0.5347
   95SAPS   H7Y 9441   4.952   2.974   7.740  0.2914  0.2761 -1.1434
   95SAPS   C38 9442   4.815   2.794   7.756  0.7417  0.0316  0.6949
   95SAPS   H8X 9443   4.889   2.713   7.737 -1.6338 -1.6016 -2.4502
   95SAPS   H8Y 9444   4.720   2.776   7.703  0.8955 -1.0946  0.7833
   95SAPS   C39 9445   4.790   2.814   7.905 -0.0021  0.9361  0.8026
   95SAPS   H9X 9446   4.889   2.839   7.950  0.7501 -0.3475 -0.0721
   95SAPS   H9Y 9447   4.751   2.714   7.934  0.3753  1.2504  2.5198
   95SAPS  C310 9448   4.684   2.914   7.949  0.0563 -0.5347 -0.8121
   95SAPS  H10X 9449   4.600   2.924   7.878 -0.4672  2.4138  0.0446
   95SAPS  H10Y 9450   4.731   3.015   7.954  0.1961 -0.6545  2.2807
   95SAPS  C311 9451   4.618   2.878   8.091 -0.9191  0.3087  0.1995
   95SAPS  H11X 9452   4.696   2.886   8.170  0.0585 -0.3278 -0.6743
   95SAPS  H11Y 9453   4.597   2.769   8.093 -0.0236  0.0929 -1.0578
   95SAPS  C312 9454   4.483   2.940   8.121  0.0384 -0.3364  0.4323
   95SAPS  H12X 9455   4.420   2.937   8.029 -0.2275 -1.2103  0.6355
   95SAPS  H12Y 9456   4.486   3.045   8.157 -3.8960 -0.6966  2.4414
   95SAPS  C313 9457   4.404   2.845   8.225  0.3016 -0.0255  0.8763
   95SAPS  H13X 9458   4.472   2.843   8.312  1.7274 -2.0144 -0.2162
   95SAPS  H13Y 9459   4.383   2.750   8.171 -0.6109  0.5947  0.1191
   95SAPS  C314 9460   4.261   2.894   8.248 -0.0733  0.1607  0.0398
   95SAPS  H14X 9461   4.212   2.887   8.149  0.1163 -1.1633  0.0139
   95SAPS  H14Y 9462   4.252   2.998   8.285 -1.0760  0.7241 -1.7004
   95SAPS  C315 9463   4.191   2.808   8.352 -0.0764 -1.3759  0.2576
   95SAPS  H15X 9464   4.214   2.706   8.313 -0.4701 -0.0879 -3.7822
   95SAPS  H15Y 9465   4.084   2.837   8.347  0.6827  2.1734  1.9009
   95SAPS  C316 9466   4.242   2.829   8.505 -0.2335  0.2190 -0.2103
   95SAPS  H16X 9467   4.346   2.793   8.522 -0.1090  0.6394 -0.0524
   95SAPS  H16Y 9468   4.179   2.758   8.563  0.9930 -0.7912 -0.0598
   95SAPS  C317 9469   4.228   2.974   8.542  0.1195 -1.2077 -0.1591
   95SAPS  H17X 9470   4.122   3.005   8.527  0.9127  1.7408 -0.3930
   95SAPS  H17Y 9471   4.305   3.029   8.483 -0.7020  0.5109  0.2968
   95SAPS  C318 9472   4.250   2.984   8.691 -0.1164  0.4129 -0.0308
   95SAPS  H18X 9473   4.191   2.901   8.736 -0.5591  0.7050 -0.0635
   95SAPS  H18Y 9474   4.226   3.085   8.729  0.6840  0.4886  0.2983
   95SAPS  H18Z 9475   4.352   2.953   8.723 -0.1058  1.6830  1.2425
   96SAPS     N 9476   6.041   6.353   6.056 -0.5922  0.0840  0.9387
   96SAPS   HN1 9477   6.033   6.259   6.102  2.4352 -0.4270  0.5792
   96SAPS   HN2 9478   6.023   6.348   5.954  0.4621 -0.4482  0.7656
   96SAPS   HN3 9479   6.137   6.380   6.083  1.0370 -0.9356 -3.1894
   96SAPS   C12 9480   5.939   6.448   6.104 -0.4177 -0.1960  0.0820
   96SAPS  H12A 9481   5.959   6.546   6.064 -0.3557 -1.1730 -2.5010
   96SAPS   C13 9482   5.793   6.403   6.076 -0.2197  1.1635 -0.3254
   96SAPS  O13A 9483   5.778   6.299   6.007  0.5129  0.4215 -0.4449
   96SAPS  O13B 9484   5.697   6.491   6.076 -0.3954  0.5126 -0.0750
   96SAPS   C11 9485   5.949   6.462   6.259 -0.2939 -0.6856 -0.6289
   96SAPS  H11A 9486   5.874   6.400   6.312 -1.6088 -0.6509 -2.3282
   96SAPS  H11B 9487   5.910   6.563   6.286 -1.6717 -1.6457  1.2117
   96SAPS     P 9488   6.133   6.427   6.453  0.3868  0.0506 -0.0269
   96SAPS   O13 9489   6.276   6.396   6.457  0.2276 -0.7075 -0.2828
   96SAPS   O14 9490   6.090   6.539   6.537  0.5562 -0.5690 -0.2688
   96SAPS   O12 9491   6.081   6.446   6.311 -0.1806  0.0537 -0.1416
   96SAPS   O11 9492   6.070   6.285   6.490  0.5925  0.1557 -0.0857
   96SAPS    C1 9493   5.947   6.281   6.568  0.4133  0.4064 -0.5359
   96SAPS    HA 9494   5.952   6.333   6.666 -1.2710  0.2311 -0.3282
   96SAPS    HB 9495   5.860   6.316   6.509  0.3962  0.0203 -0.7402
   96SAPS    C2 9496   5.906   6.131   6.585  0.5141 -0.2784  0.2293
   96SAPS    HS 9497   5.914   6.081   6.486  2.2987  1.3820 -0.5207
   96SAPS   O21 9498   5.778   6.115   6.651  0.1415 -0.0852  0.2354
   96SAPS   C21 9499   5.665   6.175   6.612  0.2053  0.8104  0.6728
   96SAPS   O22 9500   5.644   6.229   6.506 -0.5482  0.9436  1.0386
   96SAPS   C22 9501   5.567   6.155   6.724  0.2729 -0.2104  0.0801
   96SAPS   H2R 9502   5.471   6.203   6.694 -0.3959 -0.8189  1.1512
   96SAPS   H2S 9503   5.551   6.045   6.738 -1.8136 -0.0476 -0.5926
   96SAPS    C3 9504   6.016   6.063   6.666  0.1680  1.1865 -0.0954
   96SAPS    HX 9505   6.108   6.062   6.603 -0.2792 -0.6360 -0.7627
   96SAPS    HY 9506   5.986   5.958   6.683  1.7870  0.5262 -1.0704
   96SAPS   O31 9507   6.045   6.124   6.792 -0.1269  0.1724 -0.2409
   96SAPS   C31 9508   6.154   6.067   6.845 -0.0204  0.3356 -0.1698
   96SAPS   O32 9509   6.220   5.974   6.794  0.4607  0.1609  0.1771
   96SAPS   C32 9510   6.177   6.128   6.979 -0.4793 -0.8733 -0.6033
   96SAPS   H2X 9511   6.201   6.236   6.973  1.0796 -1.1490  0.0729
   96SAPS   H2Y 9512   6.259   6.074   7.031  2.4665  2.8866 -0.8909
   96SAPS   C23 9513   5.620   6.223   6.855  1.1956  0.4175 -0.0591
   96SAPS   H3R 9514   5.635   6.329   6.825 -2.8155  1.1876  0.0554
   96SAPS   H3S 9515   5.718   6.178   6.879  1.2849  0.9010  0.5085
   96SAPS   C24 9516   5.526   6.220   6.976 -0.5399  0.2680  0.3132
   96SAPS   H4R 9517   5.529   6.117   7.016  3.8582  0.3210  0.5226
   96SAPS   H4S 9518   5.422   6.239   6.942 -1.4409 -2.5981  1.1868
   96SAPS   C25 9519   5.557   6.320   7.074  0.4650 -0.3176 -0.7306
   96SAPS   H5R 9520   5.620   6.402   7.035  0.0427  0.1297 -0.4798
   96SAPS   C26 9521   5.537   6.331   7.212  0.6084 -0.3031  0.1231
   96SAPS   H6R 9522   5.562   6.426   7.260  0.8079 -0.1976 -0.1870
   96SAPS   C27 9523   5.449   6.240   7.296  0.6271  0.2075 -0.6265
   96SAPS   H7R 9524   5.532   6.178   7.338 -0.9679 -1.2583  0.4822
   96SAPS   H7S 9525   5.388   6.179   7.227  0.2595 -0.5085  0.3186
   96SAPS   C28 9526   5.366   6.317   7.402  0.4491  0.4862 -0.0253
   96SAPS   H8R 9527   5.335   6.419   7.376 -0.7372  0.5760  1.5794
   96SAPS   C29 9528   5.323   6.270   7.523 -0.2003  0.1937  0.6235
   96SAPS   H9R 9529   5.263   6.329   7.593 -0.5508  0.2393  0.2846
   96SAPS  C210 9530   5.354   6.133   7.579  0.1009 -0.6043  0.3594
   96SAPS  H10R 9531   5.423   6.157   7.663  0.2037  0.5969 -0.0564
   96SAPS  H10S 9532   5.412   6.072   7.507  1.3140  2.0737 -1.0576
   96SAPS  C211 9533   5.224   6.066   7.623 -0.0291 -0.0065 -0.6915
   96SAPS  H11R 9534   5.139   6.087   7.556 -0.1243  0.9405 -0.3000
   96SAPS  C212 9535   5.200   6.005   7.743  0.0789 -0.2712 -0.1305
   96SAPS  H12R 9536   5.104   5.955   7.763 -0.0778  0.4401  0.9865
   96SAPS  C213 9537   5.294   5.973   7.854  0.1565 -0.0065 -0.9651
   96SAPS  H13R 9538   5.381   5.909   7.826 -2.1195 -3.4868 -0.6604
   96SAPS  H13S 9539   5.233   5.904   7.916  1.4426 -0.9555 -0.7248
   96SAPS  C214 9540   5.329   6.084   7.951  0.3153  0.2594  0.1203
   96SAPS  H14R 9541   5.428   6.128   7.929  0.1825  1.1700  1.2436
   96SAPS  C215 9542   5.248   6.147   8.048 -0.7617  0.3930  0.0988
   96SAPS  H15R 9543   5.293   6.218   8.119  0.8397  1.0182 -1.4767
   96SAPS  C216 9544   5.097   6.116   8.077 -0.5075  0.2307 -0.3780
   96SAPS  H16R 9545   5.073   6.035   8.006  1.0026 -1.5749  1.0535
   96SAPS  H16S 9546   5.034   6.207   8.064  2.3373  1.9038 -3.8724
   96SAPS  C217 9547   5.072   6.059   8.216  0.3095 -0.0915 -0.2647
   96SAPS  H17R 9548   4.975   6.089   8.261 -0.0824 -0.5854 -0.7523
   96SAPS  H17S 9549   5.153   6.085   8.287 -0.6537 -3.8866  2.5894
   96SAPS  C218 9550   5.067   5.907   8.222 -0.8834  0.7469  0.5591
   96SAPS  H18R 9551   5.162   5.875   8.173  0.6349  2.8977  1.9457
   96SAPS  H18S 9552   4.982   5.869   8.161 -0.4103 -1.7760  1.3504
   96SAPS  C219 9553   5.047   5.833   8.355 -0.4766 -0.3570  0.5383
   96SAPS  H19R 9554   5.147   5.828   8.403 -0.5846  1.4851  1.0498
   96SAPS  H19S 9555   5.011   5.731   8.332  1.1692 -0.8977  0.2508
   96SAPS  C220 9556   4.963   5.909   8.462 -0.1661 -0.3890  0.0615
   96SAPS  H20R 9557   5.003   6.008   8.492 -1.5434 -1.2915  6.0082
   96SAPS  H20S 9558   4.966   5.840   8.549  0.0071 -1.5387 -0.8280
   96SAPS  H20T 9559   4.858   5.912   8.424 -0.3470 -0.0670  0.5735
   96SAPS   C33 9560   6.043   6.117   7.066  0.2064 -0.0766  0.9805
   96SAPS   H3X 9561   6.026   6.008   7.081  0.7777 -0.1792  0.8939
   96SAPS   H3Y 9562   5.959   6.162   7.009 -0.5773  0.0703  2.2145
   96SAPS   C34 9563   6.045   6.181   7.205  0.6938 -0.6164  0.2039
   96SAPS   H4X 9564   6.058   6.291   7.197 -1.3354 -0.2949  0.6949
   96SAPS   H4Y 9565   6.130   6.142   7.265 -0.6694  0.6272  3.1522
   96SAPS   C35 9566   5.922   6.168   7.302 -0.0496  0.3482  0.4169
   96SAPS   H5X 9567   5.909   6.059   7.320 -0.1047  0.3494  0.3839
   96SAPS   H5Y 9568   5.836   6.208   7.243 -1.3858  0.0158  2.0741
   96SAPS   C36 9569   5.937   6.247   7.432  0.9292  0.0306 -0.8006
   96SAPS   H6X 9570   5.991   6.341   7.404  0.4556  0.2518 -0.9814
   96SAPS   H6Y 9571   6.001   6.190   7.502 -0.6701  1.3468  1.9018
   96SAPS   C37 9572   5.813   6.270   7.515  0.5108 -0.1087 -0.2736
   96SAPS   H7X 9573   5.744   6.321   7.446  0.2753 -0.8555 -0.6006
   96SAPS   H7Y 9574   5.827   6.341   7.599  0.6066 -2.7757  2.1223
   96SAPS   C38 9575   5.744   6.143   7.571 -0.2369  0.1719  0.5877
   96SAPS   H8X 9576   5.697   6.080   7.492  0.3425  0.7027 -0.2075
   96SAPS   H8Y 9577   5.665   6.176   7.641 -1.4213 -2.1419  0.4235
   96SAPS   C39 9578   5.837   6.057   7.658  0.1796  0.7294 -0.4211
   96SAPS   H9X 9579   5.871   6.106   7.752  1.1076 -3.1967  1.5086
   96SAPS   H9Y 9580   5.930   6.027   7.606 -0.3080 -0.1242 -0.8186
   96SAPS  C310 9581   5.775   5.927   7.718 -0.0098  0.4302  0.0502
   96SAPS  H10X 9582   5.691   5.899   7.651  1.3615 -0.1354 -1.4939
   96SAPS  H10Y 9583   5.735   5.955   7.818  1.3582  2.1792  0.1444
   96SAPS  C311 9584   5.874   5.812   7.740 -0.3740 -0.5423  0.1227
   96SAPS  H11X 9585   5.835   5.734   7.808 -0.8270 -0.2417  0.2120
   96SAPS  H11Y 9586   5.969   5.854   7.779 -1.0672  0.6071  0.6230
   96SAPS  C312 9587   5.907   5.729   7.615  0.2939 -0.5100 -0.3132
   96SAPS  H12X 9588   5.814   5.696   7.564 -0.0368  1.1930 -0.8709
   96SAPS  H12Y 9589   5.965   5.641   7.649 -0.2643  0.1261  2.5463
   96SAPS  C313 9590   6.002   5.805   7.509  0.4732 -0.5882 -0.0572
   96SAPS  H13X 9591   6.073   5.876   7.555 -0.2472 -0.1775  0.4401
   96SAPS  H13Y 9592   5.933   5.866   7.446  2.4662 -0.4584 -2.2408
   96SAPS  C314 9593   6.069   5.705   7.418  0.2347  0.1308 -0.0735
   96SAPS  H14X 9594   5.995   5.625   7.392  0.8206 -0.2879 -0.4841
   96SAPS  H14Y 9595   6.157   5.667   7.474 -0.9712 -0.0712  1.7704
   96SAPS  C315 9596   6.115   5.767   7.282  0.1359  0.2805  0.2577
   96SAPS  H15X 9597   6.195   5.841   7.304  1.8694 -2.1730  2.9831
   96SAPS  H15Y 9598   6.034   5.823   7.230  0.4639  0.3210 -0.2097
   96SAPS  C316 9599   6.161   5.657   7.185 -0.4672  0.3716 -0.3118
   96SAPS  H16X 9600   6.076   5.588   7.163 -1.7773  2.2742 -1.4576
   96SAPS  H16Y 9601   6.240   5.595   7.233  0.9639 -0.2474 -3.2516
   96SAPS  C317 9602   6.212   5.710   7.052  0.4684 -0.1357  0.4101
   96SAPS  H17X 9603   6.210   5.820   7.061 -0.9855 -0.2907  3.0251
   96SAPS  H17Y 9604   6.148   5.676   6.968  4.1758 -1.7473 -2.0381
   96SAPS  C318 9605   6.353   5.666   7.010 -0.3049 -0.9153 -0.5700
   96SAPS  H18X 9606   6.356   5.556   6.992 -0.4640 -1.1221  0.5781
   96SAPS  H18Y 9607   6.431   5.705   7.079 -1.0546  0.8574 -0.6812
   96SAPS  H18Z 9608   6.372   5.710   6.910  0.6781 -1.6401 -0.7163
   97SAPS     N 9609   6.683   3.731   6.747  0.1129  0.2835 -0.3811
   97SAPS   HN1 9610   6.723   3.735   6.843  0.8033  1.8065 -0.7053
   97SAPS   HN2 9611   6.763   3.687   6.696  0.0756 -0.1443 -0.0739
   97SAPS   HN3 9612   6.665   3.823   6.703 -5.4381 -0.9158 -1.4571
   97SAPS   C12 9613   6.557   3.660   6.731  0.4603 -0.3838 -0.0701
   97SAPS  H12A 9614   6.497   3.706   6.808  2.2072  1.5746  0.2116
   97SAPS   C13 9615   6.484   3.697   6.591 -0.2092 -0.5597  0.1232
   97SAPS  O13A 9616   6.542   3.765   6.502  0.2227 -0.3035  1.2310
   97SAPS  O13B 9617   6.367   3.660   6.572  0.7388  0.8746  0.1253
   97SAPS   C11 9618   6.587   3.508   6.735 -0.8787  0.1825  0.4971
   97SAPS  H11A 9619   6.490   3.457   6.714  0.2129 -1.3607 -1.1171
   97SAPS  H11B 9620   6.620   3.478   6.836 -1.8062 -3.3514 -0.1168
   97SAPS     P 9621   6.655   3.370   6.518  0.0857 -0.5889  0.6508
   97SAPS   O13 9622   6.510   3.330   6.511 -0.2810  0.0426 -0.7853
   97SAPS   O14 9623   6.712   3.430   6.394  0.0506 -0.4008  0.3329
   97SAPS   O12 9624   6.685   3.463   6.640  0.3367  0.4165  0.1853
   97SAPS   O11 9625   6.746   3.240   6.552  0.1951 -0.3811 -0.4275
   97SAPS    C1 9626   6.718   3.109   6.497 -0.0366 -0.2588 -0.5850
   97SAPS    HA 9627   6.626   3.117   6.436 -1.1044 -0.2067  0.9786
   97SAPS    HB 9628   6.803   3.087   6.429  1.3767  0.9352  0.7084
   97SAPS    C2 9629   6.718   2.992   6.605 -0.1742  0.0390  0.0107
   97SAPS    HS 9630   6.636   2.923   6.574  0.7919 -1.0218 -0.2303
   97SAPS   O21 9631   6.709   3.044   6.738 -0.2193 -0.3261 -0.6678
   97SAPS   C21 9632   6.585   3.081   6.778  0.3895 -0.4419  0.2031
   97SAPS   O22 9633   6.481   3.065   6.716 -0.1518  0.2439 -0.5891
   97SAPS   C22 9634   6.597   3.160   6.908 -0.3239  0.1080  0.0984
   97SAPS   H2R 9635   6.656   3.096   6.977 -0.1090  2.9983  2.8280
   97SAPS   H2S 9636   6.658   3.249   6.881  1.8920 -1.0472  1.0857
   97SAPS    C3 9637   6.854   2.920   6.598 -0.1236 -0.1719  0.5977
   97SAPS    HX 9638   6.929   2.998   6.621  2.4954 -2.8015  1.5924
   97SAPS    HY 9639   6.868   2.880   6.496  3.3522 -1.1981  1.3336
   97SAPS   O31 9640   6.850   2.810   6.694 -0.1358 -0.3623 -0.6225
   97SAPS   C31 9641   6.953   2.729   6.688  0.3585 -0.6141  0.2637
   97SAPS   O32 9642   7.043   2.742   6.603  0.1316 -0.0493  0.1467
   97SAPS   C32 9643   6.954   2.628   6.803 -1.1398 -0.5512  0.4491
   97SAPS   H2X 9644   6.982   2.526   6.769 -0.1064 -1.1367  2.8037
   97SAPS   H2Y 9645   6.856   2.621   6.855  0.0754  0.8875  3.1641
   97SAPS   C23 9646   6.465   3.211   6.966 -0.0427 -0.1977 -0.0111
   97SAPS   H3R 9647   6.383   3.137   6.961 -1.6364  1.4835 -0.0308
   97SAPS   H3S 9648   6.431   3.293   6.899  1.9881 -2.1696 -3.7629
   97SAPS   C24 9649   6.480   3.251   7.107 -1.0071 -0.8135  0.5934
   97SAPS   H4R 9650   6.508   3.169   7.177  1.1429  0.3282  1.1945
   97SAPS   H4S 9651   6.378   3.273   7.144 -1.1868 -0.2459 -0.2286
   97SAPS   C25 9652   6.562   3.374   7.123 -0.4359 -0.1758  0.1144
   97SAPS   H5R 9653   6.538   3.457   7.055 -2.9434 -0.0455  1.0427
   97SAPS   C26 9654   6.667   3.391   7.206 -0.7552 -0.3013 -0.2474
   97SAPS   H6R 9655   6.716   3.489   7.213 -0.4053 -0.3013 -2.1073
   97SAPS   C27 9656   6.714   3.295   7.315  0.1394 -0.0041 -0.0328
   97SAPS   H7R 9657   6.825   3.299   7.313  0.1642 -0.5419 -0.0156
   97SAPS   H7S 9658   6.680   3.192   7.292  0.8453 -0.2894  0.1637
   97SAPS   C28 9659   6.668   3.342   7.445  0.6632 -0.1131 -0.5345
   97SAPS   H8R 9660   6.560   3.358   7.453  0.4992 -1.2761 -0.1722
   97SAPS   C29 9661   6.737   3.372   7.558  0.7202  0.3355  0.8486
   97SAPS   H9R 9662   6.684   3.402   7.649  0.5568 -0.3609  0.9868
   97SAPS  C210 9663   6.886   3.356   7.579  0.7661 -0.2443 -0.2028
   97SAPS  H10R 9664   6.917   3.452   7.625 -0.8801 -0.8806  2.4546
   97SAPS  H10S 9665   6.949   3.345   7.489  2.3896 -0.7858  0.9579
   97SAPS  C211 9666   6.924   3.240   7.667 -0.4005  0.7027 -0.3112
   97SAPS  H11R 9667   6.972   3.158   7.612 -1.6825 -1.7001  1.9054
   97SAPS  C212 9668   6.920   3.225   7.802  0.2627  0.0048 -0.3976
   97SAPS  H12R 9669   6.931   3.122   7.838 -1.7979 -0.2323 -0.3427
   97SAPS  C213 9670   6.853   3.322   7.893 -0.1489  0.1859 -0.2360
   97SAPS  H13R 9671   6.766   3.279   7.947  0.0574  0.1708  0.0933
   97SAPS  H13S 9672   6.818   3.412   7.838 -0.9177 -0.1572 -0.3064
   97SAPS  C214 9673   6.941   3.389   7.996 -0.8609 -0.1557 -0.6351
   97SAPS  H14R 9674   7.011   3.467   7.964 -0.0512 -1.0642 -1.1293
   97SAPS  C215 9675   6.953   3.353   8.128 -0.3073  0.2163 -0.0756
   97SAPS  H15R 9676   7.027   3.404   8.191  0.1753 -1.4595  0.7824
   97SAPS  C216 9677   6.875   3.240   8.200 -0.3353 -0.4828  0.9260
   97SAPS  H16R 9678   6.826   3.175   8.124 -2.6993  2.9385 -0.7893
   97SAPS  H16S 9679   6.788   3.287   8.251 -1.1335 -1.0245  0.1021
   97SAPS  C217 9680   6.943   3.142   8.299  0.4336  0.1204 -0.1225
   97SAPS  H17R 9681   7.003   3.067   8.244  2.4636  1.9569 -0.5932
   97SAPS  H17S 9682   6.864   3.083   8.349 -1.3416  1.3972 -1.2748
   97SAPS  C218 9683   7.037   3.213   8.390 -0.4153 -0.1437 -0.3258
   97SAPS  H18R 9684   7.125   3.260   8.340  0.0392  1.4344  1.7830
   97SAPS  H18S 9685   7.076   3.135   8.459 -2.7571 -0.4273  0.7583
   97SAPS  C219 9686   6.962   3.312   8.485  0.5311  0.1427 -0.1549
   97SAPS  H19R 9687   6.867   3.274   8.528  0.6633 -0.1496 -0.1188
   97SAPS  H19S 9688   6.920   3.398   8.428 -0.0062  0.8246  1.2266
   97SAPS  C220 9689   7.047   3.364   8.601  0.5537 -0.3262 -0.1870
   97SAPS  H20R 9690   7.029   3.473   8.610  1.3105 -0.3465  2.8370
   97SAPS  H20S 9691   7.149   3.343   8.560  0.3840  0.4160 -1.0046
   97SAPS  H20T 9692   7.029   3.307   8.695  0.5014 -0.9320 -0.5593
   97SAPS   C33 9693   7.070   2.663   6.901  1.5358  0.6660 -0.4058
   97SAPS   H3X 9694   7.040   2.764   6.939 -0.7786  0.2074 -0.8411
   97SAPS   H3Y 9695   7.170   2.682   6.856  0.5200  0.4103 -2.9588
   97SAPS   C34 9696   7.062   2.566   7.026 -0.4861 -0.5913  0.4110
   97SAPS   H4X 9697   7.079   2.466   6.982  0.9929 -0.6702  1.1053
   97SAPS   H4Y 9698   6.956   2.569   7.060 -0.3628  0.1251  0.7567
   97SAPS   C35 9699   7.167   2.605   7.132  0.3405  1.0982 -0.3112
   97SAPS   H5X 9700   7.116   2.685   7.189 -0.1289  0.8616 -0.3936
   97SAPS   H5Y 9701   7.268   2.626   7.091  1.1020  0.1489  0.9817
   97SAPS   C36 9702   7.205   2.499   7.242 -0.6883 -0.4887  0.3981
   97SAPS   H6X 9703   7.316   2.489   7.236 -0.6269  0.7430 -1.6673
   97SAPS   H6Y 9704   7.161   2.399   7.222 -3.1759  0.0108  2.8412
   97SAPS   C37 9705   7.172   2.545   7.382 -0.1342 -0.4220 -0.2864
   97SAPS   H7X 9706   7.062   2.563   7.389 -0.0790 -0.2331  0.1108
   97SAPS   H7Y 9707   7.223   2.642   7.399 -0.1987  0.0410 -2.4036
   97SAPS   C38 9708   7.215   2.447   7.496 -0.9316  0.1741  0.4151
   97SAPS   H8X 9709   7.324   2.426   7.494 -1.2951 -2.1908 -2.2243
   97SAPS   H8Y 9710   7.170   2.346   7.489  1.1765 -1.0668  3.1473
   97SAPS   C39 9711   7.191   2.501   7.638 -0.5386  0.4186  0.2572
   97SAPS   H9X 9712   7.083   2.524   7.646 -0.5999 -0.1498  1.2435
   97SAPS   H9Y 9713   7.256   2.586   7.670  1.2905 -0.9199  0.2873
   97SAPS  C310 9714   7.221   2.397   7.741 -1.0494  0.2626  0.1757
   97SAPS  H10X 9715   7.324   2.356   7.741 -0.3640  1.9083  0.9890
   97SAPS  H10Y 9716   7.149   2.314   7.723 -0.3069 -0.6979  1.4368
   97SAPS  C311 9717   7.206   2.460   7.880 -0.6439 -0.5017 -0.0215
   97SAPS  H11X 9718   7.106   2.502   7.902 -1.1973 -1.8018  0.0213
   97SAPS  H11Y 9719   7.279   2.543   7.893 -0.5399 -0.6253  0.2055
   97SAPS  C312 9720   7.228   2.365   7.990 -0.0230 -0.1857  0.7482
   97SAPS  H12X 9721   7.329   2.320   7.974  1.0802  2.0923  0.7872
   97SAPS  H12Y 9722   7.141   2.296   7.987 -0.9008  0.9082  0.3421
   97SAPS  C313 9723   7.224   2.444   8.120 -0.6427  0.9596 -0.4133
   97SAPS  H13X 9724   7.115   2.448   8.142 -0.5705 -2.9447  1.4121
   97SAPS  H13Y 9725   7.267   2.546   8.109  1.4716  0.7036  3.5715
   97SAPS  C314 9726   7.288   2.368   8.240 -0.3744  0.8626  0.3738
   97SAPS  H14X 9727   7.266   2.424   8.333 -0.6094 -0.8757  1.4109
   97SAPS  H14Y 9728   7.398   2.352   8.236 -0.3825  0.6394  0.9959
   97SAPS  C315 9729   7.225   2.231   8.253 -0.2977 -0.5679 -0.3805
   97SAPS  H15X 9730   7.221   2.182   8.154 -1.7267  0.9583 -1.1277
   97SAPS  H15Y 9731   7.124   2.264   8.287  1.0876  0.3235  3.3714
   97SAPS  C316 9732   7.294   2.138   8.353 -0.1977  0.1401 -0.2614
   97SAPS  H16X 9733   7.404   2.137   8.333 -0.2695  1.6427 -0.8928
   97SAPS  H16Y 9734   7.257   2.036   8.331 -2.9315  0.9293  0.3196
   97SAPS  C317 9735   7.263   2.164   8.500  0.3444 -0.0543 -0.0443
   97SAPS  H17X 9736   7.275   2.270   8.531 -1.8365  0.6822 -1.4735
   97SAPS  H17Y 9737   7.334   2.109   8.564 -0.1224  0.3345  0.8281
   97SAPS  C318 9738   7.118   2.117   8.546  0.0345  0.6004 -1.2719
   97SAPS  H18X 9739   7.109   2.007   8.553  3.3989  0.3480  2.3837
   97SAPS  H18Y 9740   7.030   2.152   8.488 -2.8412 -2.7917  0.6415
   97SAPS  H18Z 9741   7.107   2.155   8.650 -0.0524 -1.3702 -0.5330
   98SAPS     N 9742   4.142   3.683   6.541  0.0558  0.8740  0.0173
   98SAPS   HN1 9743   4.196   3.600   6.574 -1.7865 -0.4168 -0.0792
   98SAPS   HN2 9744   4.169   3.766   6.597 -0.2325  0.6493  0.4959
   98SAPS   HN3 9745   4.048   3.644   6.562  1.2552 -1.7529  0.9051
   98SAPS   C12 9746   4.137   3.702   6.397  0.2708 -0.1833 -0.1246
   98SAPS  H12A 9747   4.137   3.606   6.346 -2.8011 -0.9930  1.1732
   98SAPS   C13 9748   4.014   3.784   6.349 -0.5034 -0.0321  0.8370
   98SAPS  O13A 9749   3.938   3.836   6.430 -0.3622 -0.2331  0.9707
   98SAPS  O13B 9750   4.033   3.837   6.234  0.3966 -0.0785 -0.1560
   98SAPS   C11 9751   4.272   3.770   6.358  1.0169 -0.5254 -0.5144
   98SAPS  H11A 9752   4.283   3.851   6.432  1.1464 -0.9343 -0.0818
   98SAPS  H11B 9753   4.273   3.805   6.252  3.0892  1.2388  0.0392
   98SAPS     P 9754   4.521   3.729   6.339 -0.4762 -0.2383  0.5018
   98SAPS   O13 9755   4.612   3.628   6.387 -0.1308  0.4645 -0.3214
   98SAPS   O14 9756   4.527   3.769   6.198 -0.2956 -0.6703  0.4596
   98SAPS   O12 9757   4.379   3.681   6.375  0.4250  0.4361  0.4359
   98SAPS   O11 9758   4.543   3.863   6.417  0.4619  0.2943 -0.1498
   98SAPS    C1 9759   4.549   3.860   6.564 -0.3021  0.2131 -0.1567
   98SAPS    HA 9760   4.451   3.846   6.616  2.0230 -1.0166  4.4291
   98SAPS    HB 9761   4.609   3.777   6.607 -1.7192  0.3608  2.3340
   98SAPS    C2 9762   4.596   3.995   6.617 -0.0679  0.1548  0.6194
   98SAPS    HS 9763   4.684   4.012   6.552  0.1782 -1.3114  0.5430
   98SAPS   O21 9764   4.621   3.993   6.756 -0.5124 -0.2630 -0.0242
   98SAPS   C21 9765   4.726   3.932   6.799  0.0544 -0.1038  0.0453
   98SAPS   O22 9766   4.818   3.881   6.739 -0.0251 -0.1369 -0.4856
   98SAPS   C22 9767   4.697   3.905   6.951  1.2790 -0.7695 -0.0023
   98SAPS   H2R 9768   4.606   3.842   6.942 -0.0399  1.0876 -0.3264
   98SAPS   H2S 9769   4.782   3.851   6.998  1.2199  0.3175  1.4188
   98SAPS    C3 9770   4.498   4.114   6.584  0.8782 -0.3591 -0.8853
   98SAPS    HX 9771   4.403   4.097   6.639  1.6112  1.1853  0.9692
   98SAPS    HY 9772   4.488   4.113   6.473  4.9427  3.0391 -1.5206
   98SAPS   O31 9773   4.555   4.241   6.607 -0.1348 -0.9865 -0.1766
   98SAPS   C31 9774   4.538   4.290   6.729 -0.2034  0.8066  0.1691
   98SAPS   O32 9775   4.481   4.241   6.824 -0.7387 -0.5405  0.4222
   98SAPS   C32 9776   4.610   4.421   6.728 -0.1129 -0.4144  0.1128
   98SAPS   H2X 9777   4.573   4.487   6.647  1.5131  2.8090  1.7891
   98SAPS   H2Y 9778   4.720   4.406   6.718 -0.1858 -0.6136 -0.3517
   98SAPS   C23 9779   4.656   4.027   7.037  0.0353 -0.0712  0.1454
   98SAPS   H3R 9780   4.572   4.078   6.986  1.1493  0.9788 -0.7006
   98SAPS   H3S 9781   4.746   4.090   7.056 -0.0760  1.1296 -2.8663
   98SAPS   C24 9782   4.590   3.989   7.173  0.1903 -0.3785  0.3126
   98SAPS   H4R 9783   4.528   3.902   7.141  0.7668  0.1911 -2.6616
   98SAPS   H4S 9784   4.533   4.075   7.213  1.8928  1.0129 -0.1469
   98SAPS   C25 9785   4.688   3.928   7.275  0.2353  0.6542 -0.8220
   98SAPS   H5R 9786   4.767   3.863   7.234  1.1080  1.9997 -1.3768
   98SAPS   C26 9787   4.676   3.941   7.411 -0.4993  0.7526 -0.7356
   98SAPS   H6R 9788   4.752   3.902   7.481 -2.0102  1.7482  1.5739
   98SAPS   C27 9789   4.579   4.034   7.484  0.3797  0.8832  0.2968
   98SAPS   H7R 9790   4.553   4.130   7.435 -0.9719  0.4669  0.1458
   98SAPS   H7S 9791   4.638   4.074   7.570 -0.6851  0.9646  1.0143
   98SAPS   C28 9792   4.453   3.948   7.512 -0.1082  0.6406  0.1912
   98SAPS   H8R 9793   4.413   3.901   7.421  0.5165  1.1458 -0.3482
   98SAPS   C29 9794   4.379   3.934   7.627 -0.1468  0.4149  0.3563
   98SAPS   H9R 9795   4.302   3.855   7.624 -0.5145  0.5154  3.7532
   98SAPS  C210 9796   4.413   3.994   7.758 -0.3509  0.1246 -0.8626
   98SAPS  H10R 9797   4.332   3.970   7.830 -0.6494  0.1653 -1.1828
   98SAPS  H10S 9798   4.425   4.104   7.752  3.5585  0.2074  3.1714
   98SAPS  C211 9799   4.539   3.943   7.824 -0.3215  0.1462 -0.0856
   98SAPS  H11R 9800   4.621   3.910   7.758  1.4232  1.8594  1.1383
   98SAPS  C212 9801   4.564   3.946   7.953  0.1627 -0.0266  0.1822
   98SAPS  H12R 9802   4.662   3.910   7.985 -0.9666 -3.4578  0.1592
   98SAPS  C213 9803   4.480   3.990   8.068 -0.2582  0.3298 -0.2230
   98SAPS  H13R 9804   4.420   4.074   8.027 -1.9961 -1.6385 -1.9887
   98SAPS  H13S 9805   4.545   4.030   8.149 -2.1197 -0.0954  1.5741
   98SAPS  C214 9806   4.396   3.881   8.132  0.1172 -0.4439  0.9732
   98SAPS  H14R 9807   4.435   3.778   8.124  0.7765 -0.1934  0.9637
   98SAPS  C215 9808   4.275   3.908   8.188  0.1132 -0.2057  0.1720
   98SAPS  H15R 9809   4.214   3.830   8.235 -1.1854 -1.9557 -3.9212
   98SAPS  C216 9810   4.211   4.049   8.196 -0.2792 -0.2039  0.6503
   98SAPS  H16R 9811   4.109   4.043   8.241 -0.2896 -1.8589  0.4540
   98SAPS  H16S 9812   4.198   4.095   8.096  1.4271  2.2670  1.4580
   98SAPS  C217 9813   4.265   4.162   8.297 -0.0434 -0.0908  0.1430
   98SAPS  H17R 9814   4.218   4.262   8.284  2.1833  0.8100 -1.7840
   98SAPS  H17S 9815   4.375   4.164   8.281 -0.1671  2.5049 -0.9277
   98SAPS  C218 9816   4.254   4.130   8.445  0.4913 -0.0128  0.0343
   98SAPS  H18R 9817   4.296   4.028   8.461  0.7726 -0.0874 -1.1425
   98SAPS  H18S 9818   4.148   4.138   8.480  0.3331 -0.4662 -0.3389
   98SAPS  C219 9819   4.340   4.227   8.532  0.3116  0.0827  0.0073
   98SAPS  H19R 9820   4.294   4.226   8.633  1.8784 -1.3790  0.7530
   98SAPS  H19S 9821   4.330   4.334   8.502  0.6780  0.1039 -0.0516
   98SAPS  C220 9822   4.483   4.184   8.527  0.5819 -0.0149  0.7380
   98SAPS  H20R 9823   4.554   4.251   8.580  2.8827 -2.2409  0.6642
   98SAPS  H20S 9824   4.527   4.186   8.425 -0.2358  1.1290  0.3860
   98SAPS  H20T 9825   4.495   4.078   8.558 -1.9161 -0.8713 -0.9381
   98SAPS   C33 9826   4.582   4.505   6.859  0.5433  0.4532 -0.7759
   98SAPS   H3X 9827   4.651   4.591   6.870  0.9205  0.0803 -0.2216
   98SAPS   H3Y 9828   4.583   4.431   6.942  1.7664  0.9428 -0.3312
   98SAPS   C34 9829   4.442   4.574   6.862 -0.2684  0.0559 -0.7083
   98SAPS   H4X 9830   4.368   4.492   6.847 -0.3089 -0.2292  0.9226
   98SAPS   H4Y 9831   4.425   4.639   6.773 -0.0881  0.0915 -0.7162
   98SAPS   C35 9832   4.405   4.667   6.979  0.1215 -0.6083 -0.0068
   98SAPS   H5X 9833   4.325   4.739   6.948 -0.7680 -0.8331  1.6243
   98SAPS   H5Y 9834   4.497   4.718   7.014 -0.2537  0.1604 -0.1113
   98SAPS   C36 9835   4.350   4.596   7.100  0.3407 -0.7011  0.6148
   98SAPS   H6X 9836   4.432   4.541   7.152  0.6743  0.0128  0.8574
   98SAPS   H6Y 9837   4.267   4.526   7.079  1.1336 -1.8780  1.2760
   98SAPS   C37 9838   4.295   4.702   7.205  0.3782 -0.2013  0.1099
   98SAPS   H7X 9839   4.241   4.772   7.137  1.6544 -0.1500 -0.8975
   98SAPS   H7Y 9840   4.385   4.753   7.245  2.1958 -2.4658 -0.9039
   98SAPS   C38 9841   4.207   4.643   7.313  0.5169 -0.9960  0.3008
   98SAPS   H8X 9842   4.175   4.543   7.278  0.8324 -1.1243  0.3715
   98SAPS   H8Y 9843   4.115   4.704   7.322  1.4878  0.8981 -1.8122
   98SAPS   C39 9844   4.262   4.638   7.458  0.1230  0.1437  0.1862
   98SAPS   H9X 9845   4.332   4.721   7.481  0.0889 -0.2717  1.9213
   98SAPS   H9Y 9846   4.326   4.548   7.464  0.4371  0.2436 -1.3317
   98SAPS  C310 9847   4.140   4.646   7.555 -0.2139 -0.3769 -0.1461
   98SAPS  H10X 9848   4.068   4.562   7.550  2.4973 -2.8312 -0.9844
   98SAPS  H10Y 9849   4.083   4.740   7.538 -1.0894 -0.7953  0.4143
   98SAPS  C311 9850   4.197   4.635   7.699  0.2960  0.5484 -0.0284
   98SAPS  H11X 9851   4.269   4.716   7.723  0.6900  0.1354  0.1868
   98SAPS  H11Y 9852   4.254   4.540   7.695  0.0264  0.3753  0.2306
   98SAPS  C312 9853   4.091   4.636   7.806  0.2030  0.0863  0.0354
   98SAPS  H12X 9854   3.995   4.587   7.782 -1.9866  3.6476  0.7725
   98SAPS  H12Y 9855   4.051   4.735   7.837  0.5106  0.0794  0.4721
   98SAPS  C313 9856   4.167   4.575   7.931  0.0920 -0.1706 -0.6728
   98SAPS  H13X 9857   4.275   4.601   7.922  0.5606 -1.6583  0.1978
   98SAPS  H13Y 9858   4.164   4.464   7.928 -0.8269 -0.2296  0.8593
   98SAPS  C314 9859   4.106   4.631   8.060  0.4898  0.5521 -0.2055
   98SAPS  H14X 9860   3.995   4.629   8.055  0.4331  0.0545  0.9542
   98SAPS  H14Y 9861   4.122   4.741   8.068  2.2912  0.3591 -0.6227
   98SAPS  C315 9862   4.146   4.553   8.184  0.8491  0.1511  0.6835
   98SAPS  H15X 9863   4.251   4.518   8.173 -0.0196 -2.8509  1.0820
   98SAPS  H15Y 9864   4.075   4.467   8.190 -0.8263  1.5747  2.2799
   98SAPS  C316 9865   4.149   4.647   8.302  0.1035 -0.8714  0.3217
   98SAPS  H16X 9866   4.046   4.686   8.316  1.0778  2.1951 -0.3188
   98SAPS  H16Y 9867   4.215   4.733   8.281  0.1423 -0.7094  1.0625
   98SAPS  C317 9868   4.212   4.575   8.425  0.4751 -0.1581 -0.1816
   98SAPS  H17X 9869   4.296   4.512   8.390  0.1347 -0.4987 -0.3950
   98SAPS  H17Y 9870   4.136   4.499   8.454 -0.3666 -0.2464 -2.4496
   98SAPS  C318 9871   4.259   4.654   8.547  0.2620  0.0493 -0.2530
   98SAPS  H18X 9872   4.334   4.732   8.520  0.4168  0.6845  1.8690
   98SAPS  H18Y 9873   4.311   4.588   8.620 -0.1363 -0.8983 -0.7988
   98SAPS  H18Z 9874   4.182   4.701   8.611  0.6016  1.5232 -0.8948
   99SAPS     N 9875   3.178   6.547   6.140  0.1374 -0.6726 -0.8736
   99SAPS   HN1 9876   3.240   6.580   6.064  0.9933 -0.1287  0.0372
   99SAPS   HN2 9877   3.122   6.620   6.189  1.4489 -0.4615  0.3819
   99SAPS   HN3 9878   3.233   6.507   6.218  0.2774  1.9230  0.4670
   99SAPS   C12 9879   3.093   6.447   6.064 -0.3182  0.0230 -0.0835
   99SAPS  H12A 9880   3.034   6.501   5.991 -0.9048  0.1631  0.4888
   99SAPS   C13 9881   3.172   6.350   5.978 -0.2325  0.8846 -0.6346
   99SAPS  O13A 9882   3.292   6.340   6.006 -0.1137 -0.1107  0.0380
   99SAPS  O13B 9883   3.109   6.272   5.901  0.4732  0.0265  0.4820
   99SAPS   C11 9884   2.987   6.377   6.165 -0.0266 -0.0929  0.0153
   99SAPS  H11A 9885   3.048   6.309   6.229  0.2624  0.1618  0.0119
   99SAPS  H11B 9886   2.917   6.312   6.109  0.3401 -1.1743  0.7779
   99SAPS     P 9887   2.814   6.411   6.350  0.0527 -0.1940 -0.1084
   99SAPS   O13 9888   2.710   6.508   6.384  0.4914  0.0550 -1.0357
   99SAPS   O14 9889   2.767   6.280   6.299 -0.3161  0.3273  0.0664
   99SAPS   O12 9890   2.921   6.474   6.254  0.5250  0.0509 -0.1598
   99SAPS   O11 9891   2.901   6.373   6.481 -0.0891 -0.1043 -0.2264
   99SAPS    C1 9892   2.985   6.475   6.533  0.2506  0.0778  0.6168
   99SAPS    HA 9893   3.088   6.435   6.537 -0.4797 -1.8381  1.7685
   99SAPS    HB 9894   2.984   6.571   6.477 -1.2116  0.9314  2.0015
   99SAPS    C2 9895   2.940   6.505   6.682  0.6514  0.3254 -0.0696
   99SAPS    HS 9896   2.865   6.587   6.682  0.0666 -0.1932 -0.8102
   99SAPS   O21 9897   3.055   6.549   6.763  0.0580 -0.2365  0.5539
   99SAPS   C21 9898   3.092   6.677   6.731 -0.1209  0.5588 -0.0995
   99SAPS   O22 9899   3.044   6.743   6.645  0.6151 -0.4840  0.5295
   99SAPS   C22 9900   3.199   6.725   6.831 -0.4119 -0.2470  0.3611
   99SAPS   H2R 9901   3.235   6.646   6.900  1.4794  1.7659  1.8270
   99SAPS   H2S 9902   3.289   6.750   6.771  0.0905 -0.4803  1.0030
   99SAPS    C3 9903   2.881   6.379   6.750 -0.0896  0.1530 -0.5249
   99SAPS    HX 9904   2.960   6.301   6.739 -0.3872 -0.1906 -0.2790
   99SAPS    HY 9905   2.796   6.341   6.690  0.3919 -0.8000 -0.6208
   99SAPS   O31 9906   2.842   6.395   6.888 -0.1764  0.4945  0.5608
   99SAPS   C31 9907   2.737   6.465   6.926 -0.4741 -0.1478  0.4063
   99SAPS   O32 9908   2.652   6.517   6.859  0.0531  0.5790  0.2182
   99SAPS   C32 9909   2.748   6.468   7.077 -0.6310  0.0796 -0.0231
   99SAPS   H2X 9910   2.854   6.472   7.109 -0.0468  0.3178 -1.9125
   99SAPS   H2Y 9911   2.705   6.371   7.111 -0.0213 -0.4159 -0.6356
   99SAPS   C23 9912   3.159   6.860   6.890  0.6936  0.0426  0.4690
   99SAPS   H3R 9913   3.119   6.927   6.811 -0.0310 -0.5469  0.3248
   99SAPS   H3S 9914   3.252   6.909   6.927 -0.9302  2.5007  1.5424
   99SAPS   C24 9915   3.059   6.849   7.005  0.2042 -0.3019  0.6669
   99SAPS   H4R 9916   2.981   6.780   6.967 -0.9413  0.5932  1.3345
   99SAPS   H4S 9917   3.027   6.955   7.016  1.6744  0.2174  0.2066
   99SAPS   C25 9918   3.112   6.789   7.132  0.3636 -0.0954 -0.8584
   99SAPS   H5R 9919   3.168   6.697   7.113  0.9382 -0.3642  1.7429
   99SAPS   C26 9920   3.091   6.844   7.254  0.0991  0.2341 -0.1449
   99SAPS   H6R 9921   3.129   6.780   7.335  0.0522  0.6771  0.2271
   99SAPS   C27 9922   3.022   6.972   7.300 -0.4302 -0.3266  0.0688
   99SAPS   H7R 9923   3.071   7.051   7.239  0.3932 -1.0198 -0.1797
   99SAPS   H7S 9924   3.037   6.986   7.409  0.4744  1.1596 -0.2182
   99SAPS   C28 9925   2.879   6.996   7.272 -0.2833  0.1987 -0.4795
   99SAPS   H8R 9926   2.846   6.958   7.175 -0.5240  0.4111 -0.4817
   99SAPS   C29 9927   2.781   7.040   7.355  0.1308 -0.3521 -0.2603
   99SAPS   H9R 9928   2.682   7.057   7.312  0.0564 -2.6353 -1.0974
   99SAPS  C210 9929   2.806   7.097   7.491 -0.3385 -0.2628  0.3928
   99SAPS  H10R 9930   2.767   7.200   7.474 -1.1249 -0.7585 -0.9488
   99SAPS  H10S 9931   2.911   7.130   7.505 -0.2993  0.0208 -0.5511
   99SAPS  C211 9932   2.746   7.018   7.605  0.0930  0.4710  0.2942
   99SAPS  H11R 9933   2.730   6.910   7.590 -0.7675  0.5295  0.7340
   99SAPS  C212 9934   2.690   7.065   7.715 -0.2862 -0.0095 -0.4756
   99SAPS  H12R 9935   2.664   6.987   7.788 -1.1919 -0.1836 -0.9642
   99SAPS  C213 9936   2.678   7.208   7.764 -0.2577  0.3944 -0.1047
   99SAPS  H13R 9937   2.629   7.207   7.864 -1.4014  3.0171 -0.5831
   99SAPS  H13S 9938   2.597   7.248   7.701 -2.3158 -2.7200  0.3462
   99SAPS  C214 9939   2.797   7.301   7.762  0.3919  0.7843 -0.0707
   99SAPS  H14R 9940   2.846   7.320   7.666  1.7575 -1.3885  0.1084
   99SAPS  C215 9941   2.836   7.368   7.878  0.0257 -0.0900  0.2708
   99SAPS  H15R 9942   2.925   7.433   7.880  0.7447 -1.0348 -0.3634
   99SAPS  C216 9943   2.770   7.360   8.009 -0.3785 -0.7489  0.2274
   99SAPS  H16R 9944   2.825   7.287   8.073  1.8851  0.2788 -0.4673
   99SAPS  H16S 9945   2.662   7.334   8.015 -0.7773  0.9016  0.6146
   99SAPS  C217 9946   2.787   7.488   8.095  0.2223  0.5703  0.1068
   99SAPS  H17R 9947   2.716   7.563   8.054 -2.4011  0.6243  4.1165
   99SAPS  H17S 9948   2.890   7.531   8.096 -0.3611  2.1455 -1.6148
   99SAPS  C218 9949   2.741   7.463   8.243  0.1092 -0.4185  0.0781
   99SAPS  H18R 9950   2.792   7.374   8.284 -2.1799  0.2136  5.1304
   99SAPS  H18S 9951   2.630   7.451   8.252  0.2374 -0.3316  2.7123
   99SAPS  C219 9952   2.763   7.593   8.321 -0.0469  0.2286 -0.5528
   99SAPS  H19R 9953   2.687   7.588   8.403 -0.1334 -0.9261 -0.6848
   99SAPS  H19S 9954   2.735   7.676   8.253 -1.5099  0.2094 -0.0271
   99SAPS  C220 9955   2.892   7.597   8.386 -0.6364  0.0127  0.5009
   99SAPS  H20R 9956   2.920   7.696   8.428  1.4580 -0.7522  1.0464
   99SAPS  H20S 9957   2.966   7.568   8.308  0.2437  0.6269  1.0930
   99SAPS  H20T 9958   2.900   7.521   8.467 -1.0586 -1.0181 -0.3921
   99SAPS   C33 9959   2.680   6.587   7.140  0.4823 -1.0904  0.0105
   99SAPS   H3X 9960   2.570   6.568   7.138 -0.3316  2.8017 -0.0054
   99SAPS   H3Y 9961   2.707   6.670   7.072  1.1293 -1.4451 -0.1737
   99SAPS   C34 9962   2.729   6.602   7.288  0.7450 -0.3335 -0.9098
   99SAPS   H4X 9963   2.697   6.704   7.321 -0.6301 -1.2813  0.8706
   99SAPS   H4Y 9964   2.839   6.598   7.294  0.7396 -0.5415 -0.9753
   99SAPS   C35 9965   2.660   6.496   7.377 -0.1126  0.4528 -0.0906
   99SAPS   H5X 9966   2.658   6.391   7.339 -0.7815 -0.2830  1.8708
   99SAPS   H5Y 9967   2.554   6.529   7.390 -0.4744 -0.7820  0.2123
   99SAPS   C36 9968   2.730   6.480   7.512  0.2322 -0.6834 -0.1663
   99SAPS   H6X 9969   2.819   6.417   7.489  1.1756  0.8578 -0.8725
   99SAPS   H6Y 9970   2.659   6.411   7.563  3.0453 -3.4908  0.2766
   99SAPS   C37 9971   2.749   6.610   7.588  1.0976 -0.4029 -0.1256
   99SAPS   H7X 9972   2.662   6.679   7.588 -1.5064 -3.4197 -0.8201
   99SAPS   H7Y 9973   2.824   6.679   7.544  0.5256 -0.9220 -2.0038
   99SAPS   C38 9974   2.775   6.591   7.743  0.5586  0.6956 -0.5196
   99SAPS   H8X 9975   2.878   6.552   7.759  1.6275  3.5876  0.3528
   99SAPS   H8Y 9976   2.707   6.519   7.794  2.1738 -0.3754  0.2057
   99SAPS   C39 9977   2.768   6.725   7.819 -0.2712 -0.1319 -0.5706
   99SAPS   H9X 9978   2.661   6.753   7.830  0.2820  2.9778 -1.9601
   99SAPS   H9Y 9979   2.817   6.812   7.769  1.6427 -0.7898  0.0460
   99SAPS  C310 9980   2.842   6.708   7.960  0.3767 -0.2333 -0.5178
   99SAPS  H10X 9981   2.952   6.702   7.940  0.4128  1.6553 -1.0377
   99SAPS  H10Y 9982   2.800   6.617   8.008 -1.6395  0.6856 -0.4839
   99SAPS  C311 9983   2.795   6.826   8.057 -0.0621  0.2468  0.0548
   99SAPS  H11X 9984   2.799   6.922   8.002  1.0499  2.6201  3.9166
   99SAPS  H11Y 9985   2.871   6.839   8.137 -1.7949 -1.2696  2.0777
   99SAPS  C312 9986   2.661   6.817   8.127  0.4704  0.0277  0.1460
   99SAPS  H12X 9987   2.653   6.720   8.181  0.7158  1.0611  2.1367
   99SAPS  H12Y 9988   2.582   6.818   8.048  0.4456  2.2060  0.1164
   99SAPS  C313 9989   2.633   6.943   8.210  0.8451 -0.2961 -0.7544
   99SAPS  H13X 9990   2.673   7.035   8.161  0.1581  0.8027  0.6498
   99SAPS  H13Y 9991   2.687   6.937   8.307 -1.0267  1.4054  0.5018
   99SAPS  C314 9992   2.484   6.960   8.258  0.1953 -0.0733  0.1365
   99SAPS  H14X 9993   2.458   6.898   8.346 -0.6540 -0.9838 -0.7264
   99SAPS  H14Y 9994   2.413   6.936   8.175 -2.0806  1.0901  1.6578
   99SAPS  C315 9995   2.458   7.101   8.301 -0.5603 -0.2485  0.4562
   99SAPS  H15X 9996   2.347   7.110   8.307 -0.6692 -0.6062 -0.7132
   99SAPS  H15Y 9997   2.496   7.176   8.228  0.3878  0.5092  1.7019
   99SAPS  C316 9998   2.520   7.131   8.436  0.2982  0.5735 -0.2952
   99SAPS  H16X 9999   2.631   7.144   8.430  0.3709 -0.7514 -2.4780
   99SAPS  H16Y10000   2.491   7.052   8.508 -2.1479 -0.4650 -2.3060
   99SAPS  C31710001   2.476   7.267   8.495  1.0060 -0.4415 -0.1302
   99SAPS  H17X10002   2.366   7.260   8.511  1.1003 -0.1905  0.6832
   99SAPS  H17Y10003   2.490   7.353   8.427  1.4057  0.7708  1.4252
   99SAPS  C31810004   2.526   7.312   8.630  0.1210  0.3062 -0.5168
   99SAPS  H18X10005   2.476   7.403   8.668 -1.0701 -0.2938 -0.5998
   99SAPS  H18Y10006   2.635   7.330   8.644 -0.3223  2.2248  0.8107
   99SAPS  H18Z10007   2.486   7.241   8.705 -2.9533  1.4097 -0.9420
  100SAPS     N10008   0.701   4.054   6.282 -0.3479  0.5047 -0.4207
  100SAPS   HN110009   0.786   4.012   6.324 -1.1407 -0.5792  0.1433
  100SAPS   HN210010   0.710   4.149   6.240 -1.7334  1.9051  2.2021
  100SAPS   HN310011   0.632   4.060   6.359  1.0106  0.3608  0.8477
  100SAPS   C1210012   0.649   3.946   6.188 -0.2371  0.2584 -0.2923
  100SAPS  H12A10013   0.560   3.991   6.146  0.6613  1.6037 -0.8113
  100SAPS   C1310014   0.743   3.907   6.076 -0.5416  0.9852  0.2574
  100SAPS  O13A10015   0.868   3.914   6.088 -0.0004  0.3147  0.0792
  100SAPS  O13B10016   0.693   3.839   5.976 -0.0699 -0.3010  0.3708
  100SAPS   C1110017   0.623   3.818   6.274  0.5996  0.7626 -0.9141
  100SAPS  H11A10018   0.719   3.774   6.309  0.4002 -1.6504 -3.1541
  100SAPS  H11B10019   0.587   3.734   6.210  1.9976  0.1898 -0.9814
  100SAPS     P10020   0.393   3.788   6.388 -0.3671  0.4649  0.5505
  100SAPS   O1310021   0.320   3.846   6.504 -0.6597 -0.3937  0.3043
  100SAPS   O1410022   0.329   3.806   6.255 -0.5201  0.5029  0.1572
  100SAPS   O1210023   0.539   3.846   6.386 -0.5808  0.3145 -0.2793
  100SAPS   O1110024   0.405   3.631   6.416 -0.2553  0.1687  0.1634
  100SAPS    C110025   0.479   3.601   6.541  0.9020 -1.0147 -0.3761
  100SAPS    HA10026   0.586   3.631   6.531  0.3884  0.6117 -1.3495
  100SAPS    HB10027   0.437   3.664   6.622 -2.0514 -1.5883 -1.3716
  100SAPS    C210028   0.474   3.457   6.582 -0.0215 -0.0560 -0.4342
  100SAPS    HS10029   0.481   3.389   6.495  0.7837  0.7021 -0.9657
  100SAPS   O2110030   0.349   3.441   6.657 -0.1723  0.1433 -0.8092
  100SAPS   C2110031   0.311   3.318   6.684 -0.7874 -0.9007  0.3412
  100SAPS   O2210032   0.375   3.222   6.639  0.3891  0.4608  0.1080
  100SAPS   C2210033   0.196   3.322   6.782  1.1076 -0.4108  0.9283
  100SAPS   H2R10034   0.131   3.412   6.789  1.5664 -0.1394  1.7882
  100SAPS   H2S10035   0.120   3.246   6.754  0.5145 -0.2343  2.0012
  100SAPS    C310036   0.597   3.418   6.683 -0.0795 -0.3639  0.5556
  100SAPS    HX10037   0.688   3.435   6.623 -0.6739  0.8083 -0.0504
  100SAPS    HY10038   0.585   3.311   6.713 -2.2316 -0.3219  0.0184
  100SAPS   O3110039   0.604   3.499   6.801 -0.4468 -0.7821  0.2183
  100SAPS   C3110040   0.655   3.447   6.909 -0.6852 -0.5642  0.4530
  100SAPS   O3210041   0.688   3.330   6.925 -0.7900 -0.1901  0.4081
  100SAPS   C3210042   0.705   3.564   6.991 -0.2557 -0.3541 -0.5386
  100SAPS   H2X10043   0.616   3.614   7.036  0.3983  0.7760 -0.4444
  100SAPS   H2Y10044   0.758   3.643   6.934  0.4757  1.2665  2.2155
  100SAPS   C2310045   0.232   3.288   6.930 -0.2662  0.7286  0.4060
  100SAPS   H3R10046   0.304   3.203   6.925 -1.5219 -0.3062 -1.0427
  100SAPS   H3S10047   0.142   3.264   6.991  1.2279  1.5901  3.1380
  100SAPS   C2410048   0.300   3.401   7.000  0.4453 -0.5694  0.5104
  100SAPS   H4R10049   0.386   3.434   6.938  0.0419  1.0357  0.7606
  100SAPS   H4S10050   0.334   3.361   7.098  1.7852  1.3865  0.9090
  100SAPS   C2510051   0.215   3.515   7.033 -0.1627 -0.1689  0.2234
  100SAPS   H5R10052   0.155   3.552   6.949 -1.2165 -2.8831 -0.3140
  100SAPS   C2610053   0.205   3.570   7.157  0.5815  0.1329  0.2453
  100SAPS   H6R10054   0.126   3.646   7.168 -0.4134 -0.5223 -1.8211
  100SAPS   C2710055   0.283   3.526   7.280  0.4974 -0.8137  0.2283
  100SAPS   H7R10056   0.309   3.418   7.287  2.1834 -0.3259  3.6357
  100SAPS   H7S10057   0.232   3.559   7.374  0.4145 -0.3611  0.0258
  100SAPS   C2810058   0.414   3.602   7.284 -0.7820 -0.1491  0.5026
  100SAPS   H8R10059   0.443   3.663   7.198 -0.2603 -0.4043  0.4939
  100SAPS   C2910060   0.513   3.580   7.373  0.1463 -0.6908 -0.7501
  100SAPS   H9R10061   0.602   3.644   7.370  0.9612 -1.1414  4.2976
  100SAPS  C21010062   0.534   3.489   7.497 -0.6715  0.1043  0.1871
  100SAPS  H10R10063   0.642   3.466   7.506 -0.1946  1.2285 -1.8984
  100SAPS  H10S10064   0.487   3.391   7.475 -0.1774 -0.3246  1.0009
  100SAPS  C21110065   0.479   3.525   7.626  0.3015 -0.3622 -0.3125
  100SAPS  H11R10066   0.401   3.602   7.629  0.2391 -0.4644  1.9173
  100SAPS  C21210067   0.515   3.481   7.754  0.2422  0.1579 -0.2796
  100SAPS  H12R10068   0.446   3.511   7.834  0.0678 -1.8994  0.3881
  100SAPS  C21310069   0.610   3.375   7.800 -0.7176  0.1139 -0.2406
  100SAPS  H13R10070   0.703   3.415   7.845  0.2265 -0.9516 -1.1849
  100SAPS  H13S10071   0.643   3.316   7.712 -0.1643  0.9885 -0.6364
  100SAPS  C21410072   0.541   3.280   7.890  0.4631 -0.1415 -0.7985
  100SAPS  H14R10073   0.454   3.229   7.846  0.1282 -1.9958  1.7406
  100SAPS  C21510074   0.593   3.234   8.004  0.1397 -0.7027 -0.0897
  100SAPS  H15R10075   0.548   3.147   8.055  1.4636 -0.8134  0.9157
  100SAPS  C21610076   0.714   3.275   8.073 -0.5281 -0.9001 -0.1340
  100SAPS  H16R10077   0.741   3.382   8.059 -3.0277  0.2365  2.7453
  100SAPS  H16S10078   0.800   3.221   8.028 -2.1922 -0.7875 -3.8021
  100SAPS  C21710079   0.697   3.255   8.224  0.2922 -0.0110 -0.7373
  100SAPS  H17R10080   0.599   3.292   8.261  1.8205  1.2382  2.4015
  100SAPS  H17S10081   0.775   3.314   8.277 -0.7652  0.9011 -0.1436
  100SAPS  C21810082   0.716   3.107   8.261 -0.9920 -0.3936 -0.0987
  100SAPS  H18R10083   0.809   3.050   8.238 -0.9852 -0.2433 -0.4487
  100SAPS  H18S10084   0.637   3.046   8.212 -0.2754 -0.8941 -0.6521
  100SAPS  C21910085   0.705   3.098   8.415 -0.1335  0.6290 -0.2832
  100SAPS  H19R10086   0.605   3.142   8.433  1.0241  3.6520 -0.6469
  100SAPS  H19S10087   0.776   3.174   8.453  1.5313  0.4798 -2.8199
  100SAPS  C22010088   0.723   2.957   8.470 -0.0690  0.6985 -0.8392
  100SAPS  H20R10089   0.651   2.886   8.423 -0.7926  0.1316  1.0204
  100SAPS  H20S10090   0.709   2.960   8.580  2.1599  0.0750 -0.4730
  100SAPS  H20T10091   0.825   2.922   8.441  0.1708  1.1426 -0.5432
  100SAPS   C3310092   0.795   3.537   7.108  0.0532 -0.3339 -0.2019
  100SAPS   H3X10093   0.877   3.468   7.080  1.2335  2.0211 -3.1538
  100SAPS   H3Y10094   0.734   3.489   7.187  0.2747  0.1820  0.2923
  100SAPS   C3410095   0.849   3.664   7.180  0.1049  0.1169 -1.3211
  100SAPS   H4X10096   0.768   3.713   7.239  2.4092  1.1690  1.1608
  100SAPS   H4Y10097   0.881   3.738   7.104 -1.4947  0.7717 -1.4102
  100SAPS   C3510098   0.966   3.617   7.271  0.3818  0.5515  0.3093
  100SAPS   H5X10099   1.048   3.685   7.241  0.2986  1.1006  1.2592
  100SAPS   H5Y10100   1.004   3.515   7.250  0.8313  0.5441  1.1121
  100SAPS   C3610101   0.946   3.622   7.422 -0.0220  0.3307  0.2744
  100SAPS   H6X10102   1.047   3.594   7.459  0.8254  0.7528 -1.5814
  100SAPS   H6Y10103   0.865   3.550   7.448  0.0160 -0.7482 -2.2445
  100SAPS   C3710104   0.913   3.761   7.480 -0.0604 -0.2711 -0.0314
  100SAPS   H7X10105   0.809   3.782   7.448 -0.4399  1.1985  1.9979
  100SAPS   H7Y10106   0.977   3.833   7.424 -1.4299  0.6811 -0.4123
  100SAPS   C3810107   0.920   3.779   7.629 -0.5604 -0.2117  0.0967
  100SAPS   H8X10108   0.881   3.880   7.652 -0.5115 -0.3880  0.9753
  100SAPS   H8Y10109   1.025   3.785   7.664 -0.5291 -2.1711  0.4544
  100SAPS   C3910110   0.840   3.670   7.704 -0.3436 -0.6877 -0.1542
  100SAPS   H9X10111   0.872   3.565   7.689 -1.2894 -0.9798 -0.1706
  100SAPS   H9Y10112   0.734   3.665   7.671  0.0685 -1.0567 -1.4804
  100SAPS  C31010113   0.830   3.705   7.861 -0.9952 -0.0665  0.5270
  100SAPS  H10X10114   0.727   3.680   7.895 -1.0556 -1.6145 -0.6296
  100SAPS  H10Y10115   0.844   3.815   7.872 -0.4977  0.0640 -1.0974
  100SAPS  C31110116   0.934   3.641   7.952 -0.5045 -0.6855  0.5429
  100SAPS  H11X10117   1.029   3.665   7.900 -1.7531  0.4335 -1.3430
  100SAPS  H11Y10118   0.940   3.530   7.947 -0.3279 -0.6819  0.6379
  100SAPS  C31210119   0.938   3.693   8.104  0.6733  0.2468  0.6407
  100SAPS  H12X10120   0.891   3.794   8.103 -1.3508 -0.6076 -1.9938
  100SAPS  H12Y10121   1.046   3.701   8.129  0.0124  1.1963  3.6983
  100SAPS  C31310122   0.859   3.606   8.207  0.0955 -0.1471  0.4537
  100SAPS  H13X10123   0.896   3.504   8.182 -0.2850  0.1687 -1.6016
  100SAPS  H13Y10124   0.752   3.622   8.180  0.4621 -0.8527 -1.5587
  100SAPS  C31410125   0.882   3.651   8.354 -0.3698  0.6341  0.3361
  100SAPS  H14X10126   0.857   3.758   8.373 -1.3915  0.0276  2.6812
  100SAPS  H14Y10127   0.989   3.645   8.381 -0.3127  1.3202  0.2931
  100SAPS  C31510128   0.794   3.576   8.456  0.6692 -0.4949 -0.6816
  100SAPS  H15X10129   0.834   3.474   8.474  0.7177  0.2763  5.4064
  100SAPS  H15Y10130   0.686   3.584   8.430  0.6560  2.7950 -0.0891
  100SAPS  C31610131   0.813   3.635   8.597 -0.3453  0.4388 -1.0550
  100SAPS  H16X10132   0.766   3.736   8.595  0.8222  1.0094 -0.6572
  100SAPS  H16Y10133   0.922   3.643   8.618 -0.4778  0.4006 -0.3372
  100SAPS  C31710134   0.750   3.539   8.702 -0.0476  0.3405 -0.9202
  100SAPS  H17X10135   0.809   3.446   8.718 -0.4798  0.0614 -0.9343
  100SAPS  H17Y10136   0.648   3.506   8.671  0.6652 -2.3216 -0.6673
  100SAPS  C31810137   0.738   3.613   8.845  0.6242  0.2607  0.5483
  100SAPS  H18X10138   0.835   3.638   8.893  1.1593 -0.3897 -0.1672
  100SAPS  H18Y10139   0.676   3.540   8.902 -0.0851  0.5231  0.1261
  100SAPS  H18Z10140   0.691   3.711   8.823  2.6090  1.1439  0.0234
  101OSM      N10141   6.054   0.073  10.919 -0.0170  0.8957 -0.0803
  101OSM    C1510142   6.050  -0.025  11.036  0.2640 -0.4002  0.3258
  101OSM   H15A10143   5.984  -0.106  11.008 -1.2440  0.3494  1.5653
  101OSM   H15B10144   5.995   0.015  11.120  0.2250 -0.0740  0.1477
  101OSM   H15C10145   6.147  -0.065  11.061  0.7229  0.9531  0.8294
  101OSM    C1410146   6.048   0.217  10.970 -0.0847  0.4346 -0.3129
  101OSM   H14A10147   6.113   0.281  10.913 -0.7647  0.9380 -0.5389
  101OSM   H14B10148   6.084   0.231  11.071  0.1943  0.2174 -0.3814
  101OSM   H14C10149   5.946   0.251  10.959  0.5778  2.3936 -0.8710
  101OSM    C1310150   6.176   0.052  10.838 -0.6276  0.2544  0.1849
  101OSM   H13A10151   6.190  -0.049  10.803  2.3921  0.7593 -0.3359
  101OSM   H13B10152   6.260   0.075  10.901 -0.6417  2.0990 -0.4049
  101OSM   H13C10153   6.178   0.115  10.751 -0.0433 -0.5080 -0.3604
  101OSM    C1210154   5.936   0.037  10.822  0.5580 -0.4160 -0.4288
  101OSM   H12A10155   5.951   0.078  10.723 -0.9965 -1.5465 -1.1753
  101OSM   H12B10156   5.844   0.077  10.863 -0.0274 -0.3340 -1.7811
  101OSM    C1110157   5.924  -0.114  10.793  0.1165  0.0913  0.1084
  101OSM   H11A10158   6.025  -0.158  10.777 -0.0547 -0.5234  0.6665
  101OSM   H11B10159   5.870  -0.112  10.697  2.2514 -1.1702 -1.2150
  101OSM      P10160   5.773  -0.320  10.861  0.2685  0.3141 -0.0401
  101OSM    O1310161   5.869  -0.431  10.892 -0.4468  0.0278 -0.0264
  101OSM    O1410162   5.632  -0.323  10.915  0.0475 -0.3021  0.2018
  101OSM    O1110163   5.753  -0.321  10.707 -0.5737 -0.4633  0.2101
  101OSM    O1210164   5.844  -0.181  10.896 -0.6007  0.3838 -0.3403
  101OSM    C1S10165   5.740  -0.448  10.646  0.1620  0.4573  0.8703
  101OSM    H1S10166   5.651  -0.501  10.687  1.3361 -0.8437  1.8468
  101OSM    H1T10167   5.835  -0.503  10.667  0.3370  1.3962  2.7276
  101OSM     NF10168   5.699  -0.549  10.422 -0.3852 -0.3387  0.0729
  101OSM    HNF10169   5.765  -0.615  10.387 -0.7796 -0.8586  0.3072
  101OSM    C2S10170   5.742  -0.426  10.487  0.0903  0.0593 -0.5967
  101OSM    H2S10171   5.677  -0.341  10.456 -3.0172 -1.6922  0.5847
  101OSM    C3S10172   5.885  -0.386  10.449 -0.1428 -0.1440 -0.0321
  101OSM    H3S10173   5.958  -0.467  10.470  0.9684  0.0669 -2.7381
  101OSM     O310174   5.946  -0.274  10.515  0.2352  0.1254 -0.2269
  101OSM    HO310175   5.883  -0.269  10.588  0.8748 -3.1503  0.7016
  101OSM    C4S10176   5.897  -0.357  10.299 -0.3952  1.5070 -0.8658
  101OSM    H4S10177   5.886  -0.250  10.275  3.6363  1.5175 -3.8628
  101OSM    C5S10178   5.950  -0.439  10.206 -0.0875 -0.2678  0.1034
  101OSM    H5S10179   5.982  -0.541  10.229 -1.2923 -0.5518  0.5385
  101OSM    C6S10180   5.977  -0.394  10.062 -0.2437 -0.5583  0.1491
  101OSM    H6S10181   6.080  -0.352  10.056 -0.6381  0.4072  0.0125
  101OSM    H6T10182   5.908  -0.309  10.042 -0.9385 -0.6904  1.8224
  101OSM    C7S10183   5.978  -0.502   9.948  0.1011 -0.1383 -0.0368
  101OSM    H7S10184   5.882  -0.558   9.945  0.2387 -0.3812  0.1627
  101OSM    H7T10185   6.064  -0.567   9.973  0.7389  0.5725 -0.3491
  101OSM    C8S10186   5.995  -0.437   9.810 -0.8087  0.7818 -0.3025
  101OSM    H8S10187   6.081  -0.366   9.813 -0.9746  1.0184 -0.9545
  101OSM    H8T10188   5.900  -0.387   9.779 -0.9860  1.3383  1.0856
  101OSM    C9S10189   6.036  -0.542   9.712  0.3237 -0.4628 -0.0876
  101OSM    H9S10190   5.951  -0.613   9.711  0.4768 -0.9990  4.4550
  101OSM    H9T10191   6.117  -0.604   9.757 -0.1223 -0.1261  1.2156
  101OSM   C10S10192   6.073  -0.475   9.578  0.3042 -0.6999 -0.2616
  101OSM   H10S10193   6.172  -0.426   9.584 -0.9995  2.1390 -0.3319
  101OSM   H10T10194   6.010  -0.385   9.560  0.5408 -1.0048 -2.9128
  101OSM   C11S10195   6.070  -0.569   9.462  0.3681 -0.0269 -0.3121
  101OSM   H11S10196   5.968  -0.611   9.446  0.7676 -0.6302 -1.3634
  101OSM   H11T10197   6.138  -0.656   9.478 -2.2904 -2.6044 -2.0257
  101OSM   C12S10198   6.089  -0.502   9.323 -0.0212  0.0923 -0.5326
  101OSM   H12S10199   6.179  -0.439   9.341  0.3449 -0.0684 -1.7165
  101OSM   H12T10200   5.996  -0.444   9.305 -0.4994 -0.8069 -1.0249
  101OSM   C13S10201   6.104  -0.602   9.205 -0.7552 -0.3216  0.1933
  101OSM   H13S10202   6.037  -0.688   9.228  0.3915 -1.1964  0.3341
  101OSM   H13T10203   6.204  -0.650   9.195 -0.7329  0.0517 -1.6960
  101OSM   C14S10204   6.077  -0.551   9.066 -0.1023  0.4067 -0.0914
  101OSM   H14S10205   6.159  -0.480   9.041  0.4781  0.0057  0.6134
  101OSM   H14T10206   5.985  -0.489   9.064 -0.3433  0.0428 -0.2086
  101OSM   C15S10207   6.058  -0.661   8.964 -0.3740  0.3177  0.6099
  101OSM   H15S10208   5.961  -0.638   8.915 -0.7683 -0.7183  0.8902
  101OSM   H15T10209   6.048  -0.762   9.009  1.6192  0.0650  0.5996
  101OSM   C16S10210   6.169  -0.662   8.863 -0.1006 -0.3119 -0.0959
  101OSM   H16S10211   6.251  -0.705   8.924 -1.9821 -1.2218  1.9328
  101OSM   H16T10212   6.192  -0.558   8.831 -1.4329 -0.1641 -0.6404
  101OSM   C17S10213   6.140  -0.742   8.735  0.1573  0.5126  0.3060
  101OSM   H17S10214   6.057  -0.702   8.674  0.0347 -0.7404 -0.3774
  101OSM   H17T10215   6.102  -0.843   8.761  1.9529 -0.7543 -1.6700
  101OSM   C18S10216   6.262  -0.761   8.646  0.0359  0.3924  0.0291
  101OSM   H18S10217   6.281  -0.663   8.599 -2.1680  1.2409  0.7752
  101OSM   H18T10218   6.259  -0.838   8.565 -0.3109  0.7198 -0.2748
  101OSM   H18U10219   6.343  -0.774   8.721 -0.5289  1.6966  0.8957
  101OSM    C1F10220   5.571  -0.588  10.433 -0.0548  0.3184  0.3424
  101OSM     OF10221   5.486  -0.537  10.504  0.1124 -0.6371  0.1475
  101OSM    C2F10222   5.543  -0.705  10.354  0.0492  0.7913  0.7885
  101OSM    H2F10223   5.506  -0.791  10.414  2.0596 -1.2494 -0.7267
  101OSM    H2G10224   5.629  -0.751  10.302 -0.4672  0.7882 -0.0818
  101OSM    C3F10225   5.421  -0.677  10.261 -0.5145 -0.2470  0.4278
  101OSM    H3F10226   5.338  -0.640  10.325  0.2016  0.0446  1.2066
  101OSM    H3G10227   5.390  -0.775  10.219 -0.5767 -0.1160  0.1637
  101OSM    C4F10228   5.456  -0.584  10.143 -0.2607 -0.1559 -0.0582
  101OSM    H4F10229   5.512  -0.493  10.174 -0.3007 -0.2032  0.1585
  101OSM    H4G10230   5.359  -0.548  10.104  0.0696  1.2177  0.3299
  101OSM    C5F10231   5.515  -0.671  10.031 -0.4186 -0.2473 -0.9972
  101OSM    H5F10232   5.442  -0.752  10.013 -1.0337 -0.1141  0.7526
  101OSM    H5G10233   5.607  -0.721  10.069 -0.5575 -1.0940 -1.7456
  101OSM    C6F10234   5.541  -0.582   9.902  0.0574  0.4373  0.3749
  101OSM    H6F10235   5.606  -0.494   9.918 -0.3290  0.7117  0.4680
  101OSM    H6G10236   5.440  -0.545   9.873  1.1319  2.6067 -0.8376
  101OSM    C7F10237   5.599  -0.664   9.786  0.2560 -0.2230 -0.3278
  101OSM    H7F10238   5.536  -0.754   9.774  0.2811 -0.2651 -0.1380
  101OSM    H7G10239   5.702  -0.695   9.814  1.4932  1.7153 -2.3033
  101OSM    C8F10240   5.619  -0.573   9.659  0.2937 -0.0433 -0.3561
  101OSM    H8F10241   5.686  -0.488   9.686 -0.4474  1.1481 -2.0922
  101OSM    H8G10242   5.524  -0.524   9.630 -0.3065 -0.6766  0.4935
  101OSM    C9F10243   5.687  -0.635   9.538  0.6219  0.2839 -0.7702
  101OSM    H9F10244   5.796  -0.645   9.550  0.4668  0.2592  0.8088
  101OSM   C10F10245   5.623  -0.702   9.448 -0.3330  0.0200 -0.1800
  101OSM   H10F10246   5.685  -0.743   9.367 -1.1993 -1.6533 -0.0249
  101OSM   C11F10247   5.479  -0.730   9.433  0.2579  0.0284  0.1164
  101OSM   H11F10248   5.436  -0.754   9.533  0.2702 -1.4492 -0.2025
  101OSM   H11G10249   5.452  -0.822   9.377 -0.3718 -0.1994  0.7741
  101OSM   C12F10250   5.409  -0.610   9.364  0.1433  0.6713 -0.1005
  101OSM   H12F10251   5.433  -0.515   9.415 -1.7302  1.6342 -0.8824
  101OSM   H12G10252   5.301  -0.637   9.373  0.4398 -0.4086  0.4092
  101OSM   C13F10253   5.436  -0.585   9.214  0.0217  0.0254  0.2441
  101OSM   H13F10254   5.535  -0.536   9.206 -1.0954  2.5675  0.8734
  101OSM   H13G10255   5.376  -0.507   9.163  0.6341  0.6389  0.4524
  101OSM   C14F10256   5.428  -0.713   9.122  0.4726  0.3037 -0.2124
  101OSM   H14F10257   5.362  -0.789   9.168  0.9828  0.4112  0.7146
  101OSM   H14G10258   5.527  -0.760   9.141 -0.4066 -0.7828  1.9999
  101OSM   C15F10259   5.394  -0.682   8.979  0.1382 -0.4943  0.4366
  101OSM   H15F10260   5.443  -0.762   8.919 -0.0916 -0.8566  0.7307
  101OSM   H15G10261   5.420  -0.578   8.952  0.0722 -1.0356 -2.0129
  101OSM   C16F10262   5.247  -0.686   8.953  0.1825  0.1245 -0.3959
  101OSM   H16F10263   5.204  -0.598   9.004 -0.0665  1.4786 -2.8023
  101OSM   H16G10264   5.207  -0.780   8.998  0.7349  0.4562  0.8192
  101OSM   C17F10265   5.222  -0.657   8.804 -0.1683 -0.1496  0.1980
  101OSM   H17F10266   5.272  -0.560   8.784  1.1807  0.1358  4.1315
  101OSM   H17G10267   5.115  -0.630   8.801 -0.6883 -0.9970  4.4330
  101OSM   C18F10268   5.251  -0.775   8.709  0.4882 -0.4981 -0.6137
  101OSM   H18F10269   5.220  -0.751   8.605  1.1436 -0.5958 -0.8346
  101OSM   H18G10270   5.186  -0.858   8.743  1.5775 -0.1788  2.5907
  101OSM   H18H10271   5.354  -0.813   8.724  0.0233 -1.4504  0.3141
  102OSM      N10272   4.139   4.486  10.970 -0.1160 -0.7265 -0.4917
  102OSM    C1510273   4.130   4.348  10.904  0.1257  0.0535 -0.1675
  102OSM   H15A10274   4.036   4.333  10.854  0.2951 -0.1182 -0.4353
  102OSM   H15B10275   4.128   4.275  10.984 -1.9239  0.8991  0.6251
  102OSM   H15C10276   4.215   4.342  10.838  1.4208  0.5145  1.3742
  102OSM    C1410277   4.038   4.509  11.083 -0.5267  0.1430  0.2450
  102OSM   H14A10278   3.941   4.500  11.037 -0.4816 -0.6358  0.2916
  102OSM   H14B10279   4.042   4.612  11.114 -1.5306  0.3068 -0.1513
  102OSM   H14C10280   4.053   4.438  11.162  0.6990 -2.5132 -2.1799
  102OSM    C1310281   4.284   4.519  11.029  0.1202  0.2796 -0.1532
  102OSM   H13A10282   4.361   4.514  10.953 -1.2433  0.2685 -1.5887
  102OSM   H13B10283   4.299   4.447  11.108 -0.6628 -1.4900 -1.5374
  102OSM   H13C10284   4.281   4.619  11.069 -0.3360 -0.5331  1.9667
  102OSM    C1210285   4.111   4.589  10.862  0.2350 -0.0925  0.0311
  102OSM   H12A10286   4.181   4.565  10.784  1.2867  2.7810 -0.0163
  102OSM   H12B10287   4.136   4.689  10.893 -0.2962  0.2063 -0.4709
  102OSM    C1110288   3.962   4.600  10.813  1.4417  0.5657 -0.4500
  102OSM   H11A10289   3.929   4.495  10.796  0.1223  0.8846  0.0822
  102OSM   H11B10290   3.964   4.644  10.711  0.7283 -0.5181 -0.9483
  102OSM      P10291   3.863   4.825  10.916 -0.2150  0.0110  0.2003
  102OSM    O1310292   3.741   4.838  10.999 -0.2836 -0.3988 -0.2204
  102OSM    O1410293   3.984   4.897  10.955 -0.2261  0.4227  0.2995
  102OSM    O1110294   3.824   4.856  10.764 -0.2856 -0.0769  0.0222
  102OSM    O1210295   3.894   4.670  10.916  0.0514 -0.5297 -0.5294
  102OSM    C1S10296   3.930   4.896  10.674 -0.1822 -0.7659  0.0720
  102OSM    H1S10297   4.006   4.822  10.641  0.5094  0.7718 -1.9497
  102OSM    H1T10298   3.996   4.972  10.721 -1.9243  0.5198  0.5509
  102OSM     NF10299   3.967   4.946  10.442  0.2510  0.0625  0.5110
  102OSM    HNF10300   4.021   5.027  10.424 -0.1369  0.0136 -0.9411
  102OSM    C2S10301   3.871   4.956  10.544  0.0173 -0.4464  0.2126
  102OSM    H2S10302   3.777   4.900  10.523  0.6528 -1.0164 -1.2017
  102OSM    C3S10303   3.824   5.104  10.582 -0.2741 -0.8876  0.0651
  102OSM    H3S10304   3.916   5.154  10.617 -0.9348 -0.6098  1.4671
  102OSM     O310305   3.739   5.115  10.695  0.2733 -0.1778 -0.2977
  102OSM    HO310306   3.728   5.021  10.714 -0.2235 -0.3459 -1.3422
  102OSM    C4S10307   3.772   5.164  10.459  0.1322 -0.5575  0.5248
  102OSM    H4S10308   3.839   5.242  10.417 -0.9256  0.0520 -0.0873
  102OSM    C5S10309   3.653   5.138  10.398 -0.0487 -0.2522  0.1130
  102OSM    H5S10310   3.582   5.065  10.439  0.8524 -0.1767  1.9212
  102OSM    C6S10311   3.606   5.209  10.276 -0.1722 -0.1840  0.6762
  102OSM    H6S10312   3.553   5.302  10.309  2.4628  2.6661 -2.3980
  102OSM    H6T10313   3.536   5.147  10.216 -0.0150  1.0995 -0.9066
  102OSM    C7S10314   3.710   5.266  10.175 -0.5674  0.0298  0.9133
  102OSM    H7S10315   3.792   5.316  10.232  0.4635 -2.9897  2.2664
  102OSM    H7T10316   3.659   5.346  10.118 -1.6624 -0.1578  1.6151
  102OSM    C8S10317   3.774   5.166  10.078 -0.4636 -0.4563  0.0886
  102OSM    H8S10318   3.696   5.130  10.008 -1.3410  0.7652  0.4096
  102OSM    H8T10319   3.819   5.083  10.138 -0.8567  0.7216  2.1298
  102OSM    C9S10320   3.897   5.238  10.003  0.2970  0.6486 -0.0919
  102OSM    H9S10321   3.983   5.269  10.067  1.2960  2.7341 -2.2443
  102OSM    H9T10322   3.857   5.334   9.963  1.2999  1.7067  1.3317
  102OSM   C10S10323   3.953   5.148   9.888  0.6217 -0.4233  0.5588
  102OSM   H10S10324   3.865   5.134   9.822  0.8289  0.3767  0.0865
  102OSM   H10T10325   3.978   5.046   9.925  1.3369 -1.1596 -1.7752
  102OSM   C11S10326   4.067   5.221   9.807 -0.1193  0.3053  0.0158
  102OSM   H11S10327   4.141   5.246   9.886 -1.5611 -0.9454  1.8536
  102OSM   H11T10328   4.021   5.307   9.754 -1.5233 -0.7563 -0.5223
  102OSM   C12S10329   4.136   5.137   9.699  0.3973  0.1302 -0.4206
  102OSM   H12S10330   4.172   5.046   9.750 -2.0821 -0.8743 -0.3254
  102OSM   H12T10331   4.229   5.179   9.656  1.7500  1.4763  3.4563
  102OSM   C13S10332   4.042   5.083   9.590 -0.7629  0.4555 -0.4286
  102OSM   H13S10333   4.040   5.171   9.522 -1.8763  0.3126 -0.6024
  102OSM   H13T10334   3.937   5.068   9.622 -0.4262  0.8952  0.9216
  102OSM   C14S10335   4.102   4.964   9.509 -0.3987  0.3319  0.2758
  102OSM   H14S10336   4.069   4.864   9.545  0.5951 -0.6298 -1.3770
  102OSM   H14T10337   4.210   4.978   9.527 -0.7164  1.6081  1.3299
  102OSM   C15S10338   4.079   4.974   9.356  0.9762 -0.5260 -0.0158
  102OSM   H15S10339   4.127   5.072   9.333  0.8286 -0.6172 -0.7617
  102OSM   H15T10340   3.972   4.991   9.331  0.6457 -2.7304 -0.2920
  102OSM   C16S10341   4.132   4.855   9.277 -0.1998 -0.4871  0.1490
  102OSM   H16S10342   4.078   4.768   9.318 -2.5509  0.7931 -0.0466
  102OSM   H16T10343   4.241   4.836   9.287 -0.1537 -1.1963 -1.4096
  102OSM   C17S10344   4.106   4.865   9.124 -0.2309 -0.1171  0.0816
  102OSM   H17S10345   4.181   4.798   9.076 -0.7572  0.2150 -1.2582
  102OSM   H17T10346   4.118   4.969   9.085  2.1049 -0.4893 -0.3591
  102OSM   C18S10347   3.976   4.816   9.072 -0.4188 -0.4616  1.3933
  102OSM   H18S10348   3.889   4.863   9.122  0.2611 -0.0928  2.2710
  102OSM   H18T10349   3.955   4.709   9.093 -0.8397 -0.3253  1.6675
  102OSM   H18U10350   3.952   4.842   8.967 -0.0233 -0.8413  1.2066
  102OSM    C1F10351   4.000   4.835  10.370 -0.0786 -0.2691 -0.3372
  102OSM     OF10352   3.999   4.725  10.426  0.2791 -0.2620 -0.1175
  102OSM    C2F10353   4.041   4.858  10.230 -0.2018  0.4155  0.0784
  102OSM    H2F10354   4.143   4.901  10.233  0.0845 -0.1346 -1.0634
  102OSM    H2G10355   3.982   4.934  10.174 -0.9008  1.6138  2.3214
  102OSM    C3F10356   4.023   4.729  10.144 -0.8337 -0.0365 -0.0347
  102OSM    H3F10357   3.914   4.709  10.148 -0.8163 -0.2029 -0.3204
  102OSM    H3G10358   4.086   4.644  10.178  0.9124  1.2435  0.0811
  102OSM    C4F10359   4.057   4.742   9.995 -1.0730  0.3305  0.2195
  102OSM    H4F10360   4.165   4.730   9.970 -1.4898  0.9117 -2.1407
  102OSM    H4G10361   4.016   4.839   9.959 -1.7173  0.8399  2.2312
  102OSM    C5F10362   4.001   4.620   9.914 -0.2857  0.8438  0.6631
  102OSM    H5F10363   3.923   4.658   9.844 -1.4219 -0.9207  0.9023
  102OSM    H5G10364   3.945   4.558   9.987 -1.2643 -2.3501 -2.5310
  102OSM    C6F10365   4.097   4.535   9.836 -0.1759  0.1899  0.5335
  102OSM    H6F10366   4.173   4.587   9.773  1.3864 -2.1709  0.3018
  102OSM    H6G10367   4.037   4.467   9.772  2.3420 -2.0669  0.3337
  102OSM    C7F10368   4.175   4.446   9.923 -0.3582 -0.1018 -0.0457
  102OSM    H7F10369   4.104   4.385   9.984  0.7142 -1.0542  0.2819
  102OSM    H7G10370   4.241   4.493   9.998 -1.0621  1.4321 -0.3607
  102OSM    C8F10371   4.265   4.352   9.840  0.0515 -0.3659  0.3395
  102OSM    H8F10372   4.327   4.295   9.913 -1.8575  1.1857  3.4147
  102OSM    H8G10373   4.343   4.402   9.778 -0.4423 -0.3956 -0.3101
  102OSM    C9F10374   4.191   4.250   9.753 -1.1663  0.9632  0.0267
  102OSM    H9F10375   4.154   4.163   9.810  1.4918 -0.2207  0.0750
  102OSM   C10F10376   4.172   4.249   9.623  0.5588 -1.0331  0.1010
  102OSM   H10F10377   4.104   4.171   9.586 -1.8028  1.3039 -0.8034
  102OSM   C11F10378   4.218   4.346   9.518 -0.1302  0.0629 -0.6553
  102OSM   H11F10379   4.306   4.300   9.468 -0.8666 -0.4101 -1.5158
  102OSM   H11G10380   4.264   4.437   9.564  0.9608 -1.7224  2.0562
  102OSM   C12F10381   4.100   4.384   9.424 -0.2438 -0.1416  0.1850
  102OSM   H12F10382   4.060   4.295   9.372 -0.4137  0.2360 -0.3280
  102OSM   H12G10383   4.143   4.452   9.347 -3.0773  1.6710  0.0651
  102OSM   C13F10384   3.987   4.459   9.491  0.5091 -0.2769 -0.4825
  102OSM   H13F10385   4.033   4.540   9.552 -0.8713  0.6970 -0.6916
  102OSM   H13G10386   3.926   4.398   9.562 -1.3555  1.1140 -0.7927
  102OSM   C14F10387   3.904   4.543   9.392  0.6516 -0.5496  0.4661
  102OSM   H14F10388   3.963   4.561   9.300 -1.4611 -0.0281 -0.8643
  102OSM   H14G10389   3.878   4.641   9.438  0.9730 -0.9494  1.5392
  102OSM   C15F10390   3.778   4.468   9.329 -0.0744 -0.0250  0.0786
  102OSM   H15F10391   3.810   4.362   9.318  0.9596  0.4218 -1.5234
  102OSM   H15G10392   3.760   4.521   9.233 -1.1858  0.4689  0.5451
  102OSM   C16F10393   3.658   4.479   9.425  0.2515  0.0164  0.1215
  102OSM   H16F10394   3.669   4.448   9.531 -1.9283  1.8224  0.9512
  102OSM   H16G10395   3.580   4.410   9.385  2.3145 -1.6746 -1.2208
  102OSM   C17F10396   3.598   4.620   9.419  0.2964  0.4066  0.3134
  102OSM   H17F10397   3.550   4.626   9.320 -1.0074  0.0513  0.8956
  102OSM   H17G10398   3.680   4.695   9.422  1.6854 -1.0769  1.9837
  102OSM   C18F10399   3.487   4.658   9.516  0.5174 -0.2839 -0.8375
  102OSM   H18F10400   3.421   4.572   9.540  0.8669  0.2236  2.3677
  102OSM   H18G10401   3.429   4.750   9.489  0.7611  0.3441  0.6666
  102OSM   H18H10402   3.532   4.682   9.615 -1.9268 -1.7713  0.7453
  103OSM      N10403   6.571   3.775  11.064 -0.4635  0.3938  0.6325
  103OSM    C1510404   6.573   3.897  11.141 -0.5412  0.9944 -0.1667
  103OSM   H15A10405   6.658   3.959  11.119  0.9014 -0.3397  1.3482
  103OSM   H15B10406   6.581   3.882  11.248 -0.0585  1.0001 -0.1989
  103OSM   H15C10407   6.482   3.951  11.119 -0.0919  0.3239 -4.7296
  103OSM    C1410408   6.532   3.813  10.927  0.3318  0.4146 -0.2243
  103OSM   H14A10409   6.427   3.838  10.916  0.8131  2.3899 -0.7194
  103OSM   H14B10410   6.560   3.731  10.864  0.9503 -0.7603  1.5056
  103OSM   H14C10411   6.586   3.899  10.888 -0.6254  1.4999  0.7490
  103OSM    C1310412   6.714   3.726  11.055 -0.4916  0.6020 -0.3152
  103OSM   H13A10413   6.777   3.805  11.017 -0.7657  0.0073 -2.1127
  103OSM   H13B10414   6.721   3.650  10.979  2.7800 -0.2711  0.6868
  103OSM   H13C10415   6.750   3.683  11.147 -1.7781 -1.1666 -0.5812
  103OSM    C1210416   6.477   3.670  11.123 -0.6118 -0.0330  0.0913
  103OSM   H12A10417   6.480   3.669  11.231 -0.8891 -0.4974  0.0928
  103OSM   H12B10418   6.509   3.571  11.095 -0.0762 -0.0900  0.8623
  103OSM    C1110419   6.330   3.692  11.085  0.3875  0.5240 -0.2808
  103OSM   H11A10420   6.283   3.621  11.156 -0.0174  1.4536  0.4071
  103OSM   H11B10421   6.319   3.655  10.981  0.8829 -0.1541 -0.1017
  103OSM      P10422   6.135   3.842  11.054  0.4513 -0.2363  0.0441
  103OSM    O1310423   6.048   3.772  11.151  0.0394  0.1039  0.4712
  103OSM    O1410424   6.099   3.980  11.028  0.4693 -0.1142  0.1946
  103OSM    O1110425   6.121   3.754  10.920  0.0831  0.7540 -0.0174
  103OSM    O1210426   6.283   3.824  11.099  0.1642 -0.8620 -0.2815
  103OSM    C1S10427   6.126   3.829  10.800 -0.0669 -0.5357 -0.2591
  103OSM    H1S10428   6.211   3.901  10.797  1.0789 -1.8623 -0.6597
  103OSM    H1T10429   6.037   3.893  10.782  0.3509 -0.5625 -2.6630
  103OSM     NF10430   6.149   3.814  10.555  0.1917  0.6185 -0.1342
  103OSM    HNF10431   6.087   3.800  10.478  0.1640  0.6296 -0.1141
  103OSM    C2S10432   6.136   3.734  10.676 -0.1377  0.0144 -0.1234
  103OSM    H2S10433   6.231   3.680  10.692  0.5224  1.8515  2.7976
  103OSM    C3S10434   6.020   3.638  10.677 -0.0750  0.3899 -0.8013
  103OSM    H3S10435   5.920   3.686  10.677 -1.1858 -1.7502  0.7332
  103OSM     O310436   6.003   3.575  10.805  0.2767 -0.0301 -0.6348
  103OSM    HO310437   6.061   3.623  10.864 -0.6467  1.1945 -0.6955
  103OSM    C4S10438   6.026   3.532  10.568  0.1767  0.2710 -1.0457
  103OSM    H4S10439   6.005   3.573  10.468  0.9723  0.1453 -1.2732
  103OSM    C5S10440   6.074   3.408  10.582 -0.0837  1.1888 -0.1455
  103OSM    H5S10441   6.125   3.378  10.675  1.0063  0.7319 -0.8697
  103OSM    C6S10442   6.085   3.304  10.477 -0.3583 -0.1661  0.8017
  103OSM    H6S10443   6.015   3.220  10.497 -1.4213  0.5688  0.3052
  103OSM    H6T10444   6.189   3.264  10.472 -0.0818  0.1127  3.2864
  103OSM    C7S10445   6.055   3.360  10.328 -0.6692  0.3081 -0.7460
  103OSM    H7S10446   6.121   3.447  10.306  1.0664 -0.2800  1.6608
  103OSM    H7T10447   5.948   3.390  10.328 -0.2403  1.9251 -0.8276
  103OSM    C8S10448   6.070   3.255  10.220 -0.1092  0.0296  0.5247
  103OSM    H8S10449   6.025   3.162  10.259 -1.4672 -0.2800 -1.6179
  103OSM    H8T10450   6.179   3.239  10.210  0.0505  1.4187 -0.3090
  103OSM    C9S10451   6.017   3.288  10.080 -0.4586 -0.1060  0.4987
  103OSM    H9S10452   6.081   3.370  10.041 -1.2372  0.1696 -0.2340
  103OSM    H9T10453   5.917   3.327  10.110 -0.1531 -0.8045  2.6191
  103OSM   C10S10454   5.989   3.165   9.989  0.2900  0.1208 -0.1169
  103OSM   H10S10455   5.925   3.094  10.046  2.7562 -1.4642  0.8294
  103OSM   H10T10456   6.086   3.113   9.975 -0.5149 -1.5942  0.3882
  103OSM   C11S10457   5.942   3.181   9.847 -0.2482 -0.3673  0.2879
  103OSM   H11S10458   5.839   3.222   9.843 -0.8449 -1.8941 -0.3957
  103OSM   H11T10459   5.942   3.075   9.814 -0.6673 -0.0123 -0.9064
  103OSM   C12S10460   6.039   3.248   9.755  0.8393 -0.0723  0.0931
  103OSM   H12S10461   6.142   3.207   9.767  0.6378 -0.2483  1.3848
  103OSM   H12T10462   6.045   3.358   9.774 -0.4482 -0.2344  1.6986
  103OSM   C13S10463   5.997   3.237   9.611 -0.2737  0.0079 -0.3018
  103OSM   H13S10464   5.894   3.277   9.607 -0.3481 -0.2319 -3.4066
  103OSM   H13T10465   5.998   3.130   9.582 -0.0462  0.0936 -0.6120
  103OSM   C14S10466   6.087   3.322   9.523  0.8840 -0.4758  0.0589
  103OSM   H14S10467   6.191   3.284   9.533  0.6548 -0.8492  1.1205
  103OSM   H14T10468   6.089   3.427   9.560 -1.5079 -0.4107  0.1435
  103OSM   C15S10469   6.052   3.325   9.376 -0.2752 -0.3470  0.1072
  103OSM   H15S10470   6.106   3.415   9.340 -0.6685 -0.3159 -0.4282
  103OSM   H15T10471   5.946   3.358   9.363 -0.1610 -0.8777 -2.8009
  103OSM   C16S10472   6.090   3.201   9.294  0.7042 -1.0604  0.3562
  103OSM   H16S10473   6.018   3.121   9.323  0.0858 -0.6179  0.0536
  103OSM   H16T10474   6.199   3.180   9.306  0.9476  0.5502  1.2748
  103OSM   C17S10475   6.066   3.227   9.148  0.1044 -0.2590  0.7457
  103OSM   H17S10476   6.111   3.325   9.121  1.1089 -1.2755 -1.5988
  103OSM   H17T10477   5.963   3.255   9.116  0.4289  0.2266  0.0818
  103OSM   C18S10478   6.119   3.113   9.059  0.1752 -0.3983 -0.7124
  103OSM   H18S10479   6.095   3.141   8.954  0.6069  0.1597 -0.6662
  103OSM   H18T10480   6.068   3.020   9.090  0.9453 -0.7727 -0.5548
  103OSM   H18U10481   6.228   3.095   9.052  0.2190 -0.8425  0.7604
  103OSM    C1F10482   6.260   3.884  10.533 -0.4383  1.0971  0.3502
  103OSM     OF10483   6.357   3.873  10.607  0.0082  0.3165  0.2020
  103OSM    C2F10484   6.267   3.971  10.410  0.8801  0.2589 -0.3826
  103OSM    H2F10485   6.278   4.078  10.438 -2.0295  0.2244  1.2667
  103OSM    H2G10486   6.177   3.952  10.347 -0.1163 -1.0482  1.3648
  103OSM    C3F10487   6.391   3.925  10.329  0.2879  0.0469  0.4251
  103OSM    H3F10488   6.382   3.821  10.290 -0.3851  0.8806 -1.7460
  103OSM    H3G10489   6.481   3.948  10.390 -0.6069  1.2429  1.3349
  103OSM    C4F10490   6.410   4.026  10.214 -0.9112  0.0996  0.7576
  103OSM    H4F10491   6.440   4.125  10.256  1.0268  0.3261 -1.0161
  103OSM    H4G10492   6.317   4.042  10.155  0.4778  0.6000 -1.4178
  103OSM    C5F10493   6.528   3.989  10.117 -0.7347 -0.5756  0.7644
  103OSM    H5F10494   6.624   3.969  10.170 -0.8972 -4.9325 -0.2341
  103OSM    H5G10495   6.554   4.079  10.057  0.5562 -0.7014  1.0978
  103OSM    C6F10496   6.485   3.882  10.021  0.5641 -0.2764  0.4309
  103OSM    H6F10497   6.405   3.924   9.955 -0.2064 -1.6663  0.4345
  103OSM    H6G10498   6.444   3.788  10.064  0.1013 -1.2049 -1.8754
  103OSM    C7F10499   6.602   3.834   9.934 -0.1095  0.0345 -0.4936
  103OSM    H7F10500   6.586   3.734   9.889  1.6441 -1.1445  1.3146
  103OSM    H7G10501   6.692   3.809   9.993 -0.0556 -0.3728 -0.7402
  103OSM    C8F10502   6.649   3.940   9.828  0.4288  0.7096 -0.3539
  103OSM    H8F10503   6.741   3.896   9.782  1.3426  0.2922  1.7782
  103OSM    H8G10504   6.690   4.033   9.873  1.7958 -0.2098  0.3870
  103OSM    C9F10505   6.544   3.976   9.726 -0.8233 -0.6197  0.4285
  103OSM    H9F10506   6.477   4.060   9.748  0.4792  0.2897  1.0241
  103OSM   C10F10507   6.542   3.936   9.596  0.1691 -0.0794 -0.1159
  103OSM   H10F10508   6.442   3.938   9.550 -0.0061 -0.0336  0.2607
  103OSM   C11F10509   6.641   3.836   9.535 -0.2327 -0.2602  0.2494
  103OSM   H11F10510   6.598   3.776   9.451  0.1191  0.1937 -0.2564
  103OSM   H11G10511   6.663   3.769   9.620 -0.2931 -0.1889  0.3208
  103OSM   C12F10512   6.767   3.899   9.480  0.4519 -0.6742 -1.1744
  103OSM   H12F10513   6.828   3.811   9.453  1.8633 -1.2510  3.0558
  103OSM   H12G10514   6.834   3.945   9.557 -1.6051  2.1655 -0.8880
  103OSM   C13F10515   6.762   3.985   9.358  0.1401 -0.1973  0.2424
  103OSM   H13F10516   6.702   3.933   9.280  0.4567  1.6788 -1.3397
  103OSM   H13G10517   6.709   4.078   9.388  0.9441  0.5312 -0.5187
  103OSM   C14F10518   6.891   4.028   9.302 -0.2664  0.1285  0.1158
  103OSM   H14F10519   6.957   3.943   9.272 -1.3766 -0.5312 -0.4966
  103OSM   H14G10520   6.937   4.081   9.388 -0.0592 -0.4406  0.3610
  103OSM   C15F10521   6.886   4.126   9.189  0.5678  0.5319  0.8988
  103OSM   H15F10522   6.836   4.217   9.229  1.8003  1.0649  1.2795
  103OSM   H15G10523   6.829   4.092   9.100  1.3694  2.0094 -0.2222
  103OSM   C16F10524   7.020   4.158   9.123 -0.3159  0.3261 -0.2965
  103OSM   H16F10525   7.101   4.167   9.199  0.1305  3.8850 -1.0196
  103OSM   H16G10526   7.022   4.254   9.067  0.8728  0.5091  0.0365
  103OSM   C17F10527   7.071   4.041   9.040 -0.2616 -0.6110 -1.3404
  103OSM   H17F10528   7.080   3.956   9.111  0.8916  0.4326 -0.1877
  103OSM   H17G10529   7.174   4.067   9.006  1.2644  0.3758  3.3551
  103OSM   C18F10530   6.990   3.996   8.921  0.4321 -0.1830 -0.0989
  103OSM   H18F10531   6.896   3.951   8.961  1.1473 -0.2902  1.5547
  103OSM   H18G10532   7.050   3.925   8.860  3.3405  0.8095  1.4574
  103OSM   H18H10533   6.969   4.083   8.855  1.4272  0.5464  0.5324
  104OSM      N10534   4.098   2.331  10.881 -0.5982 -0.8415 -0.2942
  104OSM    C1510535   4.058   2.325  11.032 -0.3969  0.2462 -0.9486
  104OSM   H15A10536   4.120   2.248  11.076 -0.2001 -0.3786 -2.2690
  104OSM   H15B10537   3.956   2.291  11.039 -0.6241  1.1506  3.3763
  104OSM   H15C10538   4.057   2.416  11.091 -0.4891 -0.1858 -0.2641
  104OSM    C1410539   4.097   2.197  10.819  0.1555 -0.4510 -0.1068
  104OSM   H14A10540   4.013   2.131  10.832 -0.2931  0.0431 -0.4938
  104OSM   H14B10541   4.186   2.148  10.855  1.2092  0.4130 -1.4149
  104OSM   H14C10542   4.114   2.211  10.713  1.6698 -1.2974 -0.0047
  104OSM    C1310543   3.987   2.424  10.828 -0.3330 -0.1445 -0.1125
  104OSM   H13A10544   4.030   2.471  10.741  0.0467 -1.5125 -0.6900
  104OSM   H13B10545   3.961   2.497  10.903  0.2738  0.0384 -0.0834
  104OSM   H13C10546   3.895   2.374  10.800  0.3017 -0.5757 -1.5444
  104OSM    C1210547   4.235   2.390  10.871  0.2096  0.2949 -0.5508
  104OSM   H12A10548   4.230   2.484  10.923 -0.9280 -0.1331  0.1456
  104OSM   H12B10549   4.264   2.409  10.768  1.7788  1.6566  0.1003
  104OSM    C1110550   4.348   2.317  10.952  0.2489 -0.5155 -0.1822
  104OSM   H11A10551   4.300   2.262  11.035  0.3164 -2.0675 -1.1265
  104OSM   H11B10552   4.414   2.397  10.991  0.8470 -1.0568 -0.0643
  104OSM      P10553   4.568   2.263  10.831 -0.1788  0.2892  0.0015
  104OSM    O1310554   4.643   2.244  10.953 -0.3809  0.0403  0.1656
  104OSM    O1410555   4.612   2.172  10.721  0.0269  0.0892 -0.0552
  104OSM    O1110556   4.582   2.414  10.803  0.0537 -0.1921 -0.2013
  104OSM    O1210557   4.413   2.225  10.863  0.6049  0.0123 -0.8579
  104OSM    C1S10558   4.684   2.472  10.728 -0.5368 -0.1061 -0.0222
  104OSM    H1S10559   4.782   2.425  10.749  0.7662  1.6273 -1.8434
  104OSM    H1T10560   4.701   2.579  10.750  1.6083 -0.6189  1.0994
  104OSM     NF10561   4.780   2.529  10.521  0.0909 -0.0357 -0.1402
  104OSM    HNF10562   4.772   2.629  10.528 -0.2206 -0.1545  2.0268
  104OSM    C2S10563   4.665   2.462  10.571 -0.7370  0.5316 -0.1921
  104OSM    H2S10564   4.660   2.354  10.548 -0.3922  0.6165 -0.6922
  104OSM    C3S10565   4.533   2.534  10.527  0.1710 -0.3063  0.1068
  104OSM    H3S10566   4.545   2.644  10.542  2.6935 -0.2929 -1.4587
  104OSM     O310567   4.413   2.501  10.605 -0.4858  0.2101 -0.5265
  104OSM    HO310568   4.452   2.475  10.689 -1.4427  0.1720 -0.0782
  104OSM    C4S10569   4.506   2.515  10.376 -0.4795  0.4745  1.0343
  104OSM    H4S10570   4.561   2.572  10.300  1.0649 -1.3325  0.7160
  104OSM    C5S10571   4.418   2.425  10.328  0.1289 -0.2285  0.0197
  104OSM    H5S10572   4.370   2.364  10.406 -1.6313  1.3136  0.2302
  104OSM    C6S10573   4.380   2.398  10.188 -0.0026  0.7842  0.2138
  104OSM    H6S10574   4.271   2.420  10.183 -0.0425  0.3323 -1.1400
  104OSM    H6T10575   4.389   2.289  10.165  1.4216  1.0821 -0.7428
  104OSM    C7S10576   4.446   2.475  10.075  0.4117  0.7751 -0.0489
  104OSM    H7S10577   4.555   2.452  10.080  0.6945  1.8614 -0.8081
  104OSM    H7T10578   4.443   2.584  10.095 -0.3143  1.0409 -1.4610
  104OSM    C8S10579   4.404   2.436   9.928 -0.1534  0.4875 -0.3122
  104OSM    H8S10580   4.460   2.501   9.857 -3.4017  2.4964 -1.2540
  104OSM    H8T10581   4.298   2.461   9.904 -0.3210 -0.3078 -0.4318
  104OSM    C9S10582   4.431   2.286   9.896 -0.2744 -0.5343  1.2293
  104OSM    H9S10583   4.364   2.228   9.964 -1.3743  0.6887  1.2275
  104OSM    H9T10584   4.539   2.263   9.912  0.1441 -1.4355 -2.1669
  104OSM   C10S10585   4.405   2.251   9.751 -0.1173  0.5011  0.0624
  104OSM   H10S10586   4.306   2.292   9.720  0.0560  0.6534 -0.2977
  104OSM   H10T10587   4.411   2.141   9.738  1.7723  0.3835  1.5221
  104OSM   C11S10588   4.504   2.322   9.662 -0.4002  0.2817 -0.1612
  104OSM   H11S10589   4.604   2.322   9.709 -0.7149 -0.5852  0.5340
  104OSM   H11T10590   4.469   2.426   9.642 -1.6308 -0.1721 -0.4912
  104OSM   C12S10591   4.502   2.261   9.516 -0.6154 -0.2268  0.1891
  104OSM   H12S10592   4.399   2.279   9.479 -1.1937 -1.4120  1.1299
  104OSM   H12T10593   4.500   2.151   9.531 -0.8120 -0.3614 -0.7368
  104OSM   C13S10594   4.605   2.317   9.416  0.0643 -0.3265 -0.6069
  104OSM   H13S10595   4.706   2.305   9.459 -1.7651 -1.6797  3.9485
  104OSM   H13T10596   4.589   2.426   9.401 -2.0082 -0.2562  1.4722
  104OSM   C14S10597   4.590   2.239   9.284 -0.4102  0.6524  0.0694
  104OSM   H14S10598   4.484   2.246   9.252 -0.2107 -1.0491 -1.0998
  104OSM   H14T10599   4.608   2.129   9.291  0.8165  0.8547  0.4299
  104OSM   C15S10600   4.662   2.288   9.164  0.5020 -0.5866 -0.1693
  104OSM   H15S10601   4.652   2.212   9.083  0.7604 -0.8241  0.0208
  104OSM   H15T10602   4.771   2.287   9.181  0.5150  0.4870 -0.1114
  104OSM   C16S10603   4.617   2.429   9.114 -0.3127  0.0601 -0.2156
  104OSM   H16S10604   4.636   2.504   9.194 -1.0150  0.8069 -0.7218
  104OSM   H16T10605   4.507   2.420   9.126 -0.3028 -1.6333 -1.0686
  104OSM   C17S10606   4.664   2.467   8.973 -0.1941  0.6188  0.2881
  104OSM   H17S10607   4.635   2.571   8.946  2.2456  0.7498 -2.3915
  104OSM   H17T10608   4.613   2.399   8.900 -2.7430  0.6598  1.9039
  104OSM   C18S10609   4.802   2.449   8.923 -0.5616  0.0172 -0.1733
  104OSM   H18S10610   4.874   2.509   8.983  0.3854  0.3850 -1.6184
  104OSM   H18T10611   4.810   2.477   8.816 -1.5677 -0.7029 -0.4455
  104OSM   H18U10612   4.831   2.343   8.938  1.4484  0.7555  1.6966
  104OSM    C1F10613   4.907   2.479  10.523  0.8649  0.3132  0.6228
  104OSM     OF10614   4.919   2.362  10.553 -0.3098  0.3398 -0.3417
  104OSM    C2F10615   5.014   2.570  10.479  0.2516 -0.6287  0.4596
  104OSM    H2F10616   5.079   2.589  10.568  0.6158 -2.3228  0.5850
  104OSM    H2G10617   4.973   2.665  10.440 -1.1478 -0.6197  1.8373
  104OSM    C3F10618   5.118   2.514  10.374  0.0013 -0.2981 -0.5278
  104OSM    H3F10619   5.128   2.407  10.404 -1.7865 -0.0873  0.9762
  104OSM    H3G10620   5.205   2.583  10.374 -1.8569  2.2166 -1.4999
  104OSM    C4F10621   5.078   2.511  10.230  0.0511  0.6707 -0.1968
  104OSM    H4F10622   5.164   2.490  10.162  1.2574 -0.5118  1.6013
  104OSM    H4G10623   5.038   2.611  10.203 -0.6206  1.1535  2.3863
  104OSM    C5F10624   4.977   2.397  10.206  0.4185 -0.2667  0.3541
  104OSM    H5F10625   4.888   2.429  10.263  1.3927  1.1451  1.1317
  104OSM    H5G10626   5.011   2.302  10.252  1.0584 -0.1749  0.0870
  104OSM    C6F10627   4.955   2.385  10.051 -0.5517 -0.6017 -0.1255
  104OSM    H6F10628   5.052   2.382   9.998 -0.5122  1.3181 -0.2563
  104OSM    H6G10629   4.906   2.479  10.018 -0.8181 -0.7883 -0.2610
  104OSM    C7F10630   4.860   2.280  10.005 -0.1364 -0.4670  0.1477
  104OSM    H7F10631   4.753   2.301  10.028 -0.1910  1.4052 -1.6064
  104OSM    H7G10632   4.885   2.186  10.059 -2.5567  0.2360  2.7453
  104OSM    C8F10633   4.870   2.260   9.854 -0.1021  0.2896 -0.2450
  104OSM    H8F10634   4.858   2.354   9.796 -0.5831  1.4169  1.6132
  104OSM    H8G10635   4.784   2.195   9.825 -1.2165  1.5170  0.2212
  104OSM    C9F10636   4.997   2.199   9.807 -0.2238  0.4411  0.3481
  104OSM    H9F10637   5.031   2.128   9.884 -0.7073  0.8463  0.9399
  104OSM   C10F10638   5.077   2.227   9.705  0.4116 -0.0095  0.0525
  104OSM   H10F10639   5.175   2.178   9.703  1.0969  1.3463 -1.5967
  104OSM   C11F10640   5.050   2.335   9.613 -0.0647  0.2019  0.5441
  104OSM   H11F10641   5.080   2.430   9.663 -0.3120 -0.8194  2.7145
  104OSM   H11G10642   4.945   2.342   9.578 -0.2152  1.7376  1.1960
  104OSM   C12F10643   5.136   2.317   9.478  0.1338 -0.0325 -0.2667
  104OSM   H12F10644   5.231   2.276   9.518  0.2050  2.4758  2.5587
  104OSM   H12G10645   5.151   2.419   9.436  0.0919 -0.0353 -0.2888
  104OSM   C13F10646   5.054   2.234   9.381  0.0109 -0.7614 -0.5845
  104OSM   H13F10647   4.958   2.280   9.349 -0.1779  0.1778  1.2030
  104OSM   H13G10648   5.028   2.144   9.441  0.2477  0.8537  2.1279
  104OSM   C14F10649   5.138   2.205   9.256  0.8946 -0.2731 -0.7137
  104OSM   H14F10650   5.079   2.150   9.180 -0.2297  0.4671 -0.3949
  104OSM   H14G10651   5.236   2.162   9.287  0.1511 -0.2343  2.0141
  104OSM   C15F10652   5.172   2.333   9.172  0.0127 -0.0039  0.4572
  104OSM   H15F10653   5.223   2.416   9.226 -1.7169  1.3569  0.1146
  104OSM   H15G10654   5.074   2.375   9.140 -0.4852 -1.9297 -0.6648
  104OSM   C16F10655   5.259   2.302   9.045 -0.7093  1.3069 -0.1113
  104OSM   H16F10656   5.351   2.269   9.100 -0.9603  1.8045  0.6250
  104OSM   H16G10657   5.267   2.394   8.984 -1.2770  0.3670 -1.6515
  104OSM   C17F10658   5.219   2.182   8.952  0.5013 -0.7339 -0.8203
  104OSM   H17F10659   5.108   2.184   8.946  0.3879 -1.6631  0.4707
  104OSM   H17G10660   5.245   2.089   9.008  2.6539 -1.7513 -3.2964
  104OSM   C18F10661   5.289   2.176   8.818 -0.1847  0.7715 -0.0489
  104OSM   H18F10662   5.392   2.218   8.823  0.3358 -0.5459  0.8564
  104OSM   H18G10663   5.224   2.225   8.742  0.2627 -0.7758 -1.4962
  104OSM   H18H10664   5.302   2.070   8.785 -0.8127  0.3580  1.0055
  105OSM      N10665   3.277   1.552  11.231  0.3372 -0.0138 -0.5531
  105OSM    C1510666   3.274   1.686  11.168 -0.6807  0.1107  0.0616
  105OSM   H15A10667   3.368   1.738  11.186  0.1360 -1.0072 -0.8423
  105OSM   H15B10668   3.198   1.748  11.213 -1.4021 -0.2406 -0.6754
  105OSM   H15C10669   3.265   1.675  11.061 -0.4197  0.4264  0.0039
  105OSM    C1410670   3.288   1.569  11.384 -0.1457 -0.3619  0.3618
  105OSM   H14A10671   3.381   1.612  11.420 -1.3552  0.8437  2.2142
  105OSM   H14B10672   3.284   1.475  11.437  1.5332 -1.0627 -0.6544
  105OSM   H14C10673   3.200   1.620  11.420  1.1479  1.0265  1.7390
  105OSM    C1310674   3.138   1.492  11.222  0.0473  0.6764  0.2936
  105OSM   H13A10675   3.097   1.493  11.122 -1.3527  1.0797  0.8566
  105OSM   H13B10676   3.062   1.551  11.272 -0.7342  1.4072 -1.6543
  105OSM   H13C10677   3.144   1.393  11.264  0.7869 -0.0087 -1.3345
  105OSM    C1210678   3.386   1.456  11.179 -0.3117 -0.0235 -0.5968
  105OSM   H12A10679   3.377   1.373  11.247 -1.9832 -0.0030 -0.7664
  105OSM   H12B10680   3.484   1.499  11.198 -0.6678  0.2695  0.7071
  105OSM    C1110681   3.375   1.407  11.026  0.7741  0.3003 -0.1427
  105OSM   H11A10682   3.277   1.357  11.014  0.9559 -0.0342 -0.2491
  105OSM   H11B10683   3.462   1.339  11.012  1.1903  0.9809 -0.9861
  105OSM      P10684   3.516   1.600  10.902  0.2189 -0.2355  0.4395
  105OSM    O1310685   3.472   1.739  10.909  0.0706 -1.0736  0.2027
  105OSM    O1410686   3.629   1.555  10.984 -0.1856  0.6942  0.1337
  105OSM    O1110687   3.544   1.572  10.751  0.5486 -0.4658  0.4034
  105OSM    O1210688   3.386   1.509  10.920  0.3429 -0.1354  1.0289
  105OSM    C1S10689   3.474   1.474  10.675 -0.2507  0.5420  0.2228
  105OSM    H1S10690   3.364   1.489  10.676 -0.3045  0.1610  0.5753
  105OSM    H1T10691   3.492   1.369  10.709 -1.6600 -1.3307 -4.0461
  105OSM     NF10692   3.438   1.358  10.454  0.4769 -0.2790 -0.5509
  105OSM    HNF10693   3.479   1.267  10.451 -1.0697 -0.9776 -1.4508
  105OSM    C2S10694   3.516   1.461  10.526  0.0727  0.6572  0.5073
  105OSM    H2S10695   3.499   1.561  10.482  1.8781  0.2438 -1.2525
  105OSM    C3S10696   3.670   1.430  10.517  0.5786  0.3194  0.3481
  105OSM    H3S10697   3.683   1.328  10.559 -1.2381  0.1204  0.5182
  105OSM     O310698   3.751   1.514  10.598  0.0999  0.1611  0.2839
  105OSM    HO310699   3.684   1.556  10.652 -1.0591  0.5372 -1.3793
  105OSM    C4S10700   3.724   1.436  10.379 -0.0436  0.2199 -0.5136
  105OSM    H4S10701   3.679   1.507  10.307 -0.0122  0.3535 -0.4022
  105OSM    C5S10702   3.824   1.362  10.330  0.6805  0.6969  0.6479
  105OSM    H5S10703   3.870   1.287  10.396  0.5657  2.3098  2.6580
  105OSM    C6S10704   3.882   1.378  10.191 -0.0853 -0.3466  0.5234
  105OSM    H6S10705   3.926   1.284  10.152 -0.5709 -0.0541 -0.7592
  105OSM    H6T10706   3.967   1.448  10.208 -1.0336  1.0175 -0.2097
  105OSM    C7S10707   3.788   1.423  10.076 -0.1750  1.1428 -0.1732
  105OSM    H7S10708   3.767   1.531  10.089  2.0789  1.5161  0.9136
  105OSM    H7T10709   3.709   1.347  10.097  2.1881 -1.1098  1.1551
  105OSM    C8S10710   3.846   1.389   9.942 -0.0603  0.1008 -0.3490
  105OSM    H8S10711   3.881   1.284   9.930 -0.1426  0.1937 -1.4511
  105OSM    H8T10712   3.937   1.453   9.941  0.3309 -0.4510 -0.3952
  105OSM    C9S10713   3.760   1.439   9.817 -0.3778 -0.0232 -1.0187
  105OSM    H9S10714   3.716   1.537   9.845  0.2363 -0.4030  1.5572
  105OSM    H9T10715   3.677   1.368   9.800 -0.0789 -0.5903 -0.1940
  105OSM   C10S10716   3.825   1.461   9.681  0.5253  0.5071  0.0912
  105OSM   H10S10717   3.882   1.374   9.642  2.0331  0.6368  1.9154
  105OSM   H10T10718   3.909   1.533   9.693  0.8839 -0.1378  1.5382
  105OSM   C11S10719   3.729   1.500   9.565 -0.2011  0.2927 -0.6832
  105OSM   H11S10720   3.668   1.585   9.602 -0.6947 -0.8266  1.2013
  105OSM   H11T10721   3.658   1.418   9.541 -0.7324  0.9812 -1.5190
  105OSM   C12S10722   3.806   1.539   9.433  0.4299 -0.4877 -0.9806
  105OSM   H12S10723   3.883   1.462   9.409  0.1964 -0.1684 -2.9947
  105OSM   H12T10724   3.860   1.635   9.448  2.8602 -1.7844 -0.9187
  105OSM   C13S10725   3.710   1.559   9.322 -0.0458  0.4271 -0.2373
  105OSM   H13S10726   3.647   1.646   9.350 -0.9107  0.2332 -1.5225
  105OSM   H13T10727   3.638   1.475   9.320 -0.5057  0.7822  0.7280
  105OSM   C14S10728   3.781   1.591   9.185 -0.5029  0.0996 -0.0022
  105OSM   H14S10729   3.856   1.514   9.159  1.1327  1.9569 -1.1346
  105OSM   H14T10730   3.835   1.688   9.179  0.5072 -0.4196  0.5147
  105OSM   C15S10731   3.668   1.600   9.081 -0.5505  0.3652  0.1819
  105OSM   H15S10732   3.614   1.508   9.052 -1.5472  1.2549 -0.8850
  105OSM   H15T10733   3.710   1.611   8.978  1.8573 -2.2745  0.7597
  105OSM   C16S10734   3.588   1.732   9.093 -0.2360 -0.4853 -0.5982
  105OSM   H16S10735   3.665   1.804   9.128 -2.8066  1.6391  1.0304
  105OSM   H16T10736   3.523   1.725   9.183 -2.3787  0.5988 -1.9721
  105OSM   C17S10737   3.530   1.790   8.960  0.1483  0.1059  0.2891
  105OSM   H17S10738   3.607   1.777   8.880 -1.7436 -0.5506 -1.5000
  105OSM   H17T10739   3.526   1.900   8.964 -0.5416  0.1288 -0.6366
  105OSM   C18S10740   3.393   1.738   8.907  0.0462  0.4637 -0.2523
  105OSM   H18S10741   3.405   1.758   8.798 -0.7323 -0.5881 -0.5408
  105OSM   H18T10742   3.310   1.800   8.946 -0.6002 -0.0635 -0.7741
  105OSM   H18U10743   3.371   1.631   8.928  1.1500  0.2118 -0.3218
  105OSM    C1F10744   3.311   1.362  10.417 -0.1380 -0.6165  0.0005
  105OSM     OF10745   3.243   1.461  10.427  0.1019 -0.3438 -0.5088
  105OSM    C2F10746   3.260   1.231  10.360  0.0042 -0.9147  0.6052
  105OSM    H2F10747   3.204   1.189  10.446  0.1766 -2.2385  0.0930
  105OSM    H2G10748   3.342   1.159  10.340  0.7967 -0.4282  1.9547
  105OSM    C3F10749   3.162   1.250  10.244 -1.1527 -0.3922 -0.1973
  105OSM    H3F10750   3.074   1.314  10.265 -1.8896 -1.1336 -0.9118
  105OSM    H3G10751   3.125   1.150  10.212  0.1420 -0.4858 -1.5263
  105OSM    C4F10752   3.229   1.307  10.107  0.8620 -0.1848  0.0894
  105OSM    H4F10753   3.312   1.378  10.131  1.1749 -0.2778 -0.6904
  105OSM    H4G10754   3.151   1.366  10.054 -0.2341 -0.9507  0.8104
  105OSM    C5F10755   3.287   1.203  10.013 -0.1044 -0.4962  0.4450
  105OSM    H5F10756   3.214   1.129   9.973 -1.7528  1.9255 -1.3883
  105OSM    H5G10757   3.368   1.156  10.072  1.8233  1.3669 -0.5783
  105OSM    C6F10758   3.352   1.268   9.888  0.1362 -0.7027 -0.0988
  105OSM    H6F10759   3.444   1.315   9.927 -2.2710  1.7538  3.1656
  105OSM    H6G10760   3.286   1.347   9.846  0.1338 -0.1806  0.8750
  105OSM    C7F10761   3.380   1.171   9.774  0.2218  0.2954 -0.6150
  105OSM    H7F10762   3.279   1.160   9.730  0.3238  0.1535 -0.8170
  105OSM    H7G10763   3.412   1.074   9.818 -1.2370  0.0147 -0.1397
  105OSM    C8F10764   3.477   1.216   9.670  1.0034 -0.2385  0.8238
  105OSM    H8F10765   3.580   1.204   9.710  1.5207  2.6610  0.5339
  105OSM    H8G10766   3.464   1.325   9.656 -1.5457 -0.4182  1.2313
  105OSM    C9F10767   3.450   1.156   9.532  0.1126  0.1043 -0.5572
  105OSM    H9F10768   3.483   1.051   9.530  0.7349  0.2047  1.6453
  105OSM   C10F10769   3.398   1.215   9.422  0.2190 -0.6604 -0.8976
  105OSM   H10F10770   3.377   1.155   9.332  2.4813 -0.2498 -1.7377
  105OSM   C11F10771   3.352   1.364   9.419  0.3152 -0.3990  0.5561
  105OSM   H11F10772   3.394   1.422   9.334  1.2164  1.5225  2.2285
  105OSM   H11G10773   3.383   1.429   9.503 -2.6210  1.0704  0.6105
  105OSM   C12F10774   3.201   1.375   9.417 -0.0637 -0.3559 -0.5086
  105OSM   H12F10775   3.151   1.333   9.327 -1.1106  1.4777 -0.8388
  105OSM   H12G10776   3.183   1.484   9.403 -0.9024  0.3832  4.4966
  105OSM   C13F10777   3.136   1.321   9.538  0.0719  0.6694 -0.2688
  105OSM   H13F10778   3.149   1.375   9.635 -4.2803 -0.5660  1.2360
  105OSM   H13G10779   3.157   1.214   9.555  1.3029  1.0359  0.6373
  105OSM   C14F10780   2.979   1.330   9.519  0.6856  0.3852  0.3588
  105OSM   H14F10781   2.958   1.276   9.424  2.0418 -2.4381  1.5281
  105OSM   H14G10782   2.951   1.437   9.516  1.3992  0.5498 -1.2374
  105OSM   C15F10783   2.893   1.267   9.628 -1.0336 -0.0531  0.2385
  105OSM   H15F10784   2.955   1.184   9.668  1.7051  1.6033 -0.2877
  105OSM   H15G10785   2.799   1.225   9.586 -1.5675  0.1841  1.1655
  105OSM   C16F10786   2.852   1.372   9.735  0.7199 -0.3449  0.3463
  105OSM   H16F10787   2.788   1.451   9.690  1.1958  0.0955  0.4345
  105OSM   H16G10788   2.940   1.427   9.774 -0.1030  1.4989 -0.2480
  105OSM   C17F10789   2.780   1.306   9.854  0.4724 -0.0102 -0.4479
  105OSM   H17F10790   2.707   1.227   9.827  0.2756 -1.1349  2.8739
  105OSM   H17G10791   2.724   1.380   9.915  0.9133 -0.4459  0.5091
  105OSM   C18F10792   2.870   1.253   9.965  0.0308  0.9090 -0.7190
  105OSM   H18F10793   2.922   1.337  10.016 -1.3261  0.9831  0.6200
  105OSM   H18G10794   2.954   1.197   9.920 -0.0403 -1.0269  1.3700
  105OSM   H18H10795   2.822   1.184  10.038 -0.1649  2.4257  0.6302
  106OSM      N10796   5.142   0.083  10.632 -0.2014  0.0949 -0.2650
  106OSM    C1510797   5.245  -0.001  10.697  0.5852 -0.2499  0.3639
  106OSM   H15A10798   5.220  -0.012  10.801  0.3504  2.9863  0.7601
  106OSM   H15B10799   5.335   0.059  10.686  1.0753 -0.8948  0.8235
  106OSM   H15C10800   5.253  -0.091  10.638  0.2096  0.9381 -1.5931
  106OSM    C1410801   5.148   0.210  10.712  0.8580 -0.2826  1.2864
  106OSM   H14A10802   5.071   0.275  10.674 -0.2570 -1.2604  1.8227
  106OSM   H14B10803   5.248   0.251  10.700  1.2822 -1.0170  2.1847
  106OSM   H14C10804   5.124   0.192  10.816  1.6840 -0.2462  1.4894
  106OSM    C1310805   5.180   0.112  10.487  0.7804  0.0776  0.0046
  106OSM   H13A10806   5.107   0.183  10.452 -2.7718 -2.4426  1.6733
  106OSM   H13B10807   5.186   0.028  10.419  3.8766  0.4257 -0.2878
  106OSM   H13C10808   5.279   0.154  10.494  0.7761  0.0337  0.3386
  106OSM    C1210809   5.007   0.013  10.645 -0.2097 -0.2219 -0.3914
  106OSM   H12A10810   4.993  -0.025  10.745 -0.1678 -0.6425 -0.5401
  106OSM   H12B10811   5.018  -0.077  10.586 -0.4443 -0.5111  0.0028
  106OSM    C1110812   4.882   0.083  10.591 -0.0386  0.1909  0.2693
  106OSM   H11A10813   4.798   0.012  10.578  2.1155 -3.0693  2.3620
  106OSM   H11B10814   4.895   0.101  10.482  0.4011 -0.4365  0.2125
  106OSM      P10815   4.766   0.182  10.795 -0.4552 -0.0655  0.1088
  106OSM    O1310816   4.795   0.059  10.868  0.2197 -0.4031  0.3301
  106OSM    O1410817   4.771   0.308  10.875 -0.2826 -0.6544  0.2967
  106OSM    O1110818   4.626   0.172  10.733 -1.0075  0.5689  0.1227
  106OSM    O1210819   4.857   0.206  10.666  1.0443 -0.3101 -0.0718
  106OSM    C1S10820   4.543   0.278  10.682  0.7596 -0.1114  0.2544
  106OSM    H1S10821   4.554   0.366  10.749  1.2221 -0.1475  0.2293
  106OSM    H1T10822   4.433   0.262  10.689  0.2970  2.0454 -1.2612
  106OSM     NF10823   4.527   0.440  10.493 -0.0446  0.7059  0.5127
  106OSM    HNF10824   4.443   0.425  10.442  0.7612 -0.0112 -0.6614
  106OSM    C2S10825   4.576   0.315  10.537 -0.1409 -0.3587  0.2018
  106OSM    H2S10826   4.687   0.311  10.539 -0.1351 -0.4710  2.0408
  106OSM    C3S10827   4.534   0.199  10.442  0.3144  0.2110  0.3344
  106OSM    H3S10828   4.424   0.214  10.428 -0.0210 -1.8018  0.4955
  106OSM     O310829   4.552   0.063  10.492 -0.3376  0.0994 -0.1469
  106OSM    HO310830   4.583   0.085  10.580  0.1448 -3.1008  0.5853
  106OSM    C4S10831   4.596   0.213  10.301  0.0080  1.1827 -0.3655
  106OSM    H4S10832   4.544   0.298  10.253 -0.8993  0.3125 -0.9451
  106OSM    C5S10833   4.680   0.137  10.226  0.4323 -0.5077  0.6041
  106OSM    H5S10834   4.722   0.047  10.274 -2.9363 -2.0457  0.9962
  106OSM    C6S10835   4.706   0.182  10.083 -0.1340  0.1216 -0.0967
  106OSM    H6S10836   4.800   0.241  10.087  0.1895 -0.4161  0.3286
  106OSM    H6T10837   4.635   0.264  10.057 -0.9355 -0.1236  1.2429
  106OSM    C7S10838   4.707   0.072   9.973  0.0144 -0.3705  0.0525
  106OSM    H7S10839   4.608   0.029   9.946 -0.4625 -0.3909  1.7237
  106OSM    H7T10840   4.772  -0.016   9.994  2.2848  1.3662  0.7713
  106OSM    C8S10841   4.757   0.137   9.843  0.0690 -0.1438 -0.0079
  106OSM    H8S10842   4.868   0.137   9.850  0.1942 -0.4944 -1.6223
  106OSM    H8T10843   4.717   0.239   9.825  0.6532  0.0380 -0.2986
  106OSM    C9S10844   4.722   0.050   9.719  0.3487  0.0021  0.2181
  106OSM    H9S10845   4.620   0.005   9.721  0.2324  0.2040 -0.9153
  106OSM    H9T10846   4.799  -0.029   9.735 -0.0907 -0.2355  1.2335
  106OSM   C10S10847   4.737   0.125   9.583 -0.2125 -0.1099  0.2799
  106OSM   H10S10848   4.834   0.178   9.580 -0.9855  1.3900  0.3870
  106OSM   H10T10849   4.669   0.213   9.584  1.2035  1.0481  2.5205
  106OSM   C11S10850   4.723   0.031   9.463 -0.6814 -0.3892  0.2318
  106OSM   H11S10851   4.630  -0.029   9.479 -1.3567 -0.2925 -2.7078
  106OSM   H11T10852   4.806  -0.041   9.479 -0.5018 -0.0102  1.0510
  106OSM   C12S10853   4.741   0.091   9.319 -0.1227 -0.1781 -0.4771
  106OSM   H12S10854   4.830   0.158   9.312 -2.1376  2.7987  0.4692
  106OSM   H12T10855   4.656   0.160   9.300 -0.5298 -1.0020 -1.7387
  106OSM   C13S10856   4.739  -0.016   9.209 -0.4532  0.4195 -0.1150
  106OSM   H13S10857   4.641  -0.064   9.188  0.6376 -1.5602 -0.9039
  106OSM   H13T10858   4.804  -0.096   9.251 -1.2108 -0.0160  0.2497
  106OSM   C14S10859   4.778   0.053   9.076 -0.4262 -0.5060  0.2612
  106OSM   H14S10860   4.887   0.071   9.081 -0.0201 -2.6126 -0.1466
  106OSM   H14T10861   4.719   0.147   9.072 -0.8750 -0.8140 -0.7630
  106OSM   C15S10862   4.762  -0.034   8.955  0.3810 -0.2248  0.3146
  106OSM   H15S10863   4.658  -0.048   8.919  0.8248  0.8338 -1.5216
  106OSM   H15T10864   4.808  -0.131   8.981  1.1143  0.6612  2.5447
  106OSM   C16S10865   4.838   0.016   8.833 -0.2540 -0.7318 -0.0613
  106OSM   H16S10866   4.810  -0.054   8.751 -3.5488  0.3305  0.0235
  106OSM   H16T10867   4.948   0.019   8.847 -0.4099  0.7187  1.0603
  106OSM   C17S10868   4.778   0.148   8.786  0.2028  0.1756  0.5224
  106OSM   H17S10869   4.814   0.229   8.854 -1.1690  3.1990 -2.1017
  106OSM   H17T10870   4.669   0.128   8.776  0.3814 -0.2289 -0.8264
  106OSM   C18S10871   4.818   0.192   8.643 -0.5010 -0.0006 -0.4088
  106OSM   H18S10872   4.790   0.296   8.616 -0.4756 -0.7356 -3.6902
  106OSM   H18T10873   4.776   0.116   8.575  1.6364 -0.9359 -0.7834
  106OSM   H18U10874   4.929   0.197   8.641 -0.3493  1.3039  3.2334
  106OSM    C1F10875   4.572   0.553  10.540  0.3927 -0.4622 -0.3992
  106OSM     OF10876   4.679   0.561  10.599  0.3888 -0.2236  0.5127
  106OSM    C2F10877   4.477   0.664  10.529 -0.3691 -0.5916  0.6675
  106OSM    H2F10878   4.440   0.692  10.631 -0.1142 -1.3232  0.9626
  106OSM    H2G10879   4.394   0.635  10.461  0.4779  1.9456 -1.6404
  106OSM    C3F10880   4.554   0.792  10.478  0.3570  0.3204 -0.8184
  106OSM    H3F10881   4.600   0.758  10.382 -0.2550  0.6543 -1.2341
  106OSM    H3G10882   4.618   0.824  10.562 -0.1139 -2.2025  0.6177
  106OSM    C4F10883   4.462   0.902  10.437 -0.1813 -0.1858  0.5910
  106OSM    H4F10884   4.408   0.937  10.527  2.8777 -0.5202  2.7108
  106OSM    H4G10885   4.378   0.878  10.369  0.5778 -0.5276 -0.2427
  106OSM    C5F10886   4.530   1.030  10.383 -0.3646 -0.4735 -0.9166
  106OSM    H5F10887   4.605   1.067  10.457 -0.1489 -1.1305 -0.8039
  106OSM    H5G10888   4.457   1.113  10.368  1.2275  0.5922 -3.6839
  106OSM    C6F10889   4.595   0.997  10.249  0.3844 -0.2950 -0.0878
  106OSM    H6F10890   4.514   0.968  10.178 -0.9089 -0.7046  1.4950
  106OSM    H6G10891   4.669   0.915  10.258 -0.8787 -1.4182  0.2401
  106OSM    C7F10892   4.656   1.124  10.189 -0.3912 -0.7564 -0.1055
  106OSM    H7F10893   4.720   1.153  10.275 -1.2364 -1.9463  0.9633
  106OSM    H7G10894   4.578   1.203  10.180  0.2693  0.1695  1.7213
  106OSM    C8F10895   4.738   1.112  10.061 -0.3228  0.7564  0.4966
  106OSM    H8F10896   4.827   1.050  10.082 -0.1453  1.3282  1.5462
  106OSM    H8G10897   4.780   1.213  10.040  0.2795  0.2620 -0.7594
  106OSM    C9F10898   4.659   1.051   9.942 -0.5310 -0.1346 -0.5961
  106OSM    H9F10899   4.550   1.064   9.950 -0.3835  0.1311  3.1824
  106OSM   C10F10900   4.714   0.985   9.834 -0.1743 -0.3264 -0.4899
  106OSM   H10F10901   4.650   0.948   9.752 -0.7441 -1.9106  0.6194
  106OSM   C11F10902   4.865   0.967   9.817  0.1990  0.0341  0.7476
  106OSM   H11F10903   4.906   0.867   9.840  2.1675  0.4630 -0.5910
  106OSM   H11G10904   4.911   1.029   9.896 -1.2100  1.0223  0.8437
  106OSM   C12F10905   4.914   1.034   9.681  0.0283  0.0473 -0.1970
  106OSM   H12F10906   5.024   1.035   9.673  0.1424 -2.8754  0.0557
  106OSM   H12G10907   4.859   1.130   9.671 -2.3961 -0.6821  3.7553
  106OSM   C13F10908   4.872   0.945   9.562  0.2894  0.6283  0.2444
  106OSM   H13F10909   4.762   0.954   9.556  0.0824 -0.0730  2.1417
  106OSM   H13G10910   4.913   0.843   9.581  0.7066  0.7178 -0.1544
  106OSM   C14F10911   4.914   0.999   9.424 -0.5013  0.1136 -0.2935
  106OSM   H14F10912   5.024   1.014   9.427 -0.7848  2.5047 -0.0386
  106OSM   H14G10913   4.870   1.101   9.417  0.5984  1.1496  4.4504
  106OSM   C15F10914   4.862   0.898   9.315 -0.2476  0.8338 -0.2990
  106OSM   H15F10915   4.752   0.890   9.302 -0.1316 -2.1832 -0.2351
  106OSM   H15G10916   4.899   0.800   9.351  2.0697  1.0784 -1.7920
  106OSM   C16F10917   4.916   0.929   9.170 -0.0005  0.1370 -0.2228
  106OSM   H16F10918   5.021   0.967   9.175  0.3829 -0.0130 -4.1581
  106OSM   H16G10919   4.846   1.006   9.132 -2.0426  0.0874  3.0755
  106OSM   C17F10920   4.919   0.813   9.070  0.0349 -0.0550  0.0787
  106OSM   H17F10921   4.819   0.766   9.057  0.7746 -1.6579  0.0516
  106OSM   H17G10922   4.988   0.741   9.119 -0.0108  1.6525  2.8760
  106OSM   C18F10923   4.956   0.835   8.924  0.3919  0.3310  0.0629
  106OSM   H18F10924   5.067   0.826   8.920  0.4962  0.2319  2.1170
  106OSM   H18G10925   4.924   0.934   8.887 -0.3294  1.5297  3.4654
  106OSM   H18H10926   4.907   0.753   8.867 -0.7523  0.2904  1.0537
  107OSM      N10927   0.969   4.108  11.431 -0.2376  0.1137  0.0546
  107OSM    C1510928   0.982   4.200  11.547 -0.3855  0.3588  0.3230
  107OSM   H15A10929   0.920   4.165  11.628 -1.4681  0.5235 -0.4114
  107OSM   H15B10930   0.939   4.298  11.532 -1.7179  0.1292  2.2736
  107OSM   H15C10931   1.082   4.216  11.584 -1.2154  2.3387  1.8927
  107OSM    C1410932   1.055   4.153  11.311 -0.8450  0.0887 -0.0060
  107OSM   H14A10933   1.158   4.150  11.343  0.0107 -3.0551 -2.5470
  107OSM   H14B10934   1.027   4.253  11.282 -2.3396 -0.2977  0.0199
  107OSM   H14C10935   1.045   4.093  11.222 -0.5995  0.3507 -0.2079
  107OSM    C1310936   1.006   3.979  11.478  0.3731 -0.2569 -0.3597
  107OSM   H13A10937   1.005   3.916  11.391  2.5460  1.7659 -1.9950
  107OSM   H13B10938   0.948   3.942  11.561 -2.4898  2.0747 -1.1142
  107OSM   H13C10939   1.112   3.983  11.498  0.2302 -2.5798  1.2434
  107OSM    C1210940   0.821   4.105  11.381  0.5800 -0.2090 -0.2449
  107OSM   H12A10941   0.760   4.071  11.463  0.4124 -0.5508 -0.5093
  107OSM   H12B10942   0.834   4.028  11.306  0.3415 -0.7811  0.2945
  107OSM    C1110943   0.753   4.223  11.306 -0.9999  0.8114  0.7495
  107OSM   H11A10944   0.724   4.293  11.387 -0.7408  0.1903  1.3892
  107OSM   H11B10945   0.663   4.177  11.261 -1.1881  1.9439 -0.0668
  107OSM      P10946   0.804   4.228  11.050  0.1378 -0.2652 -0.0513
  107OSM    O1310947   0.884   4.315  10.963  0.0399 -0.7292 -0.0614
  107OSM    O1410948   0.818   4.083  11.039 -0.1731  0.0842 -0.3566
  107OSM    O1110949   0.657   4.263  11.013  0.1195 -0.1587 -1.1078
  107OSM    O1210950   0.826   4.284  11.201  0.6114  0.6895  0.2326
  107OSM    C1S10951   0.624   4.329  10.893  0.1034  0.1034 -0.7820
  107OSM    H1S10952   0.703   4.347  10.818  0.1116 -0.4025 -0.8984
  107OSM    H1T10953   0.596   4.432  10.924  0.9401 -0.2188  1.2074
  107OSM     NF10954   0.481   4.303  10.696 -0.1389  0.5359 -0.0218
  107OSM    HNF10955   0.418   4.378  10.679  0.5382  0.7496 -1.8481
  107OSM    C2S10956   0.498   4.262  10.831  0.2842  0.2090 -0.0759
  107OSM    H2S10957   0.519   4.153  10.832 -3.3562 -0.6007 -0.3036
  107OSM    C3S10958   0.370   4.289  10.921  0.9353  0.1075  0.9432
  107OSM    H3S10959   0.340   4.396  10.927 -0.3758  0.0090 -2.0182
  107OSM     O310960   0.386   4.257  11.062  0.0109  0.4453 -0.7919
  107OSM    HO310961   0.481   4.247  11.076 -0.1748 -0.6466 -0.1967
  107OSM    C4S10962   0.244   4.216  10.869 -0.0465 -0.5998  0.2550
  107OSM    H4S10963   0.155   4.279  10.857 -0.2609 -0.6721  1.4052
  107OSM    C5S10964   0.227   4.081  10.861 -0.1174  0.2673  0.6858
  107OSM    H5S10965   0.310   4.014  10.886  1.2230  1.5710 -0.1575
  107OSM    C6S10966   0.110   4.006  10.805  0.3303 -0.0027  0.2914
  107OSM    H6S10967   0.024   4.074  10.787 -1.1353 -1.7467  0.3376
  107OSM    H6T10968   0.044   3.950  10.875 -0.8742  0.0035 -0.7913
  107OSM    C7S10969   0.140   3.930  10.674  0.0267 -0.6705  0.0333
  107OSM    H7S10970   0.047   3.880  10.642 -0.4663  0.4598 -0.3527
  107OSM    H7T10971   0.218   3.851  10.683  0.1867 -0.7738 -1.7876
  107OSM    C8S10972   0.174   4.034  10.562  0.2777 -0.8585  0.8775
  107OSM    H8S10973   0.277   4.073  10.582  0.4328 -0.8160  0.0252
  107OSM    H8T10974   0.107   4.121  10.579  0.2503 -0.4294 -1.2121
  107OSM    C9S10975   0.163   3.966  10.424  0.2130 -0.1220  0.4024
  107OSM    H9S10976   0.061   3.927  10.405  0.1297 -0.0715  0.7398
  107OSM    H9T10977   0.233   3.880  10.427  2.5756  1.6841  2.8476
  107OSM   C10S10978   0.216   4.053  10.312  0.3072  0.3632 -0.1073
  107OSM   H10S10979   0.313   4.099  10.340 -0.4332  0.8113  1.9523
  107OSM   H10T10980   0.143   4.136  10.298  1.5232  1.2203 -1.6809
  107OSM   C11S10981   0.229   3.991  10.179  0.1492 -0.2415  0.3541
  107OSM   H11S10982   0.137   3.935  10.149 -1.4367  1.0475  2.5360
  107OSM   H11T10983   0.318   3.925  10.189 -0.9403 -1.7291  0.6776
  107OSM   C12S10984   0.271   4.088  10.059 -0.6978  0.2614 -0.2434
  107OSM   H12S10985   0.366   4.136  10.094  0.0977 -1.6006  0.2673
  107OSM   H12T10986   0.198   4.172  10.063 -1.5464 -0.4467 -0.5168
  107OSM   C13S10987   0.289   4.023   9.925 -0.2294 -0.8044  1.0332
  107OSM   H13S10988   0.195   3.981   9.882  0.3285 -2.0602  1.0072
  107OSM   H13T10989   0.363   3.941   9.927  0.0458 -0.6273 -0.4181
  107OSM   C14S10990   0.347   4.121   9.812 -0.2169  0.5087 -0.5543
  107OSM   H14S10991   0.340   4.079   9.709  0.9684 -2.3498  0.4332
  107OSM   H14T10992   0.456   4.136   9.824  0.0878 -0.4589 -1.8625
  107OSM   C15S10993   0.254   4.245   9.802  0.3119 -0.2198  0.2064
  107OSM   H15S10994   0.249   4.301   9.898 -1.4710 -0.8832  0.5496
  107OSM   H15T10995   0.149   4.216   9.780  1.2053 -2.4074 -1.4806
  107OSM   C16S10996   0.298   4.339   9.692 -0.3101 -0.2855 -0.2062
  107OSM   H16S10997   0.310   4.294   9.591  1.6029  0.1692 -0.2241
  107OSM   H16T10998   0.400   4.378   9.710 -1.0987  2.5218 -1.2476
  107OSM   C17S10999   0.202   4.465   9.684  0.0198 -0.1648 -0.6745
  107OSM   H17S11000   0.112   4.442   9.744 -0.1620  0.4195 -0.7120
  107OSM   H17T11001   0.163   4.487   9.582  2.0104  1.4655 -1.1581
  107OSM   C18S11002   0.258   4.597   9.734  0.2467 -0.1704  0.5471
  107OSM   H18S11003   0.327   4.641   9.658  0.1782  0.2319  0.7201
  107OSM   H18T11004   0.326   4.581   9.820 -0.8769  0.7120  1.6236
  107OSM   H18U11005   0.173   4.664   9.757  0.9358  0.1886  2.1806
  107OSM    C1F11006   0.555   4.272  10.597  0.2033 -0.3678  0.5956
  107OSM     OF11007   0.649   4.197  10.611  0.3090 -0.7747  0.4908
  107OSM    C2F11008   0.523   4.340  10.468 -0.2714  0.0141 -0.0739
  107OSM    H2F11009   0.492   4.445  10.490  0.8985  0.2394  0.5673
  107OSM    H2G11010   0.436   4.283  10.429  0.7761 -2.8301  1.4886
  107OSM    C3F11011   0.638   4.334  10.368 -0.5931  0.4024  0.3494
  107OSM    H3F11012   0.686   4.234  10.366  1.3393  1.2862  0.8087
  107OSM    H3G11013   0.722   4.405  10.381  1.8799 -2.1146 -0.8201
  107OSM    C4F11014   0.595   4.357  10.226 -0.1148  0.0720 -0.3497
  107OSM    H4F11015   0.531   4.447  10.221 -0.2004 -0.0337 -1.2538
  107OSM    H4G11016   0.539   4.265  10.198  1.7523 -1.1901 -0.1808
  107OSM    C5F11017   0.715   4.361  10.134 -0.1955  0.0860  0.1657
  107OSM    H5F11018   0.756   4.259  10.115 -0.0483  0.2011 -0.1288
  107OSM    H5G11019   0.797   4.419  10.181  1.0084 -2.0263  0.8042
  107OSM    C6F11020   0.673   4.411   9.997 -0.2613  0.3087 -0.3003
  107OSM    H6F11021   0.643   4.517  10.012 -2.3881 -0.4072  0.8630
  107OSM    H6G11022   0.580   4.362   9.960 -1.0126  2.3186 -1.2328
  107OSM    C7F11023   0.779   4.390   9.890 -0.4019 -0.2602  0.7452
  107OSM    H7F11024   0.793   4.279   9.890 -0.9169 -0.3309  0.4599
  107OSM    H7G11025   0.877   4.427   9.926 -0.8657  1.6797  0.0819
  107OSM    C8F11026   0.735   4.449   9.754  0.6316 -0.1843  0.7429
  107OSM    H8F11027   0.727   4.560   9.758 -0.7957 -0.2618  0.7698
  107OSM    H8G11028   0.631   4.418   9.729  0.0266  2.5615 -0.5883
  107OSM    C9F11029   0.842   4.419   9.657  0.6808  1.1341 -0.6852
  107OSM    H9F11030   0.945   4.454   9.674  0.8889  0.7904 -1.2285
  107OSM   C10F11031   0.833   4.354   9.542  0.0826  0.6553  0.6766
  107OSM   H10F11032   0.923   4.340   9.481  0.3129 -2.0137  1.5087
  107OSM   C11F11033   0.706   4.301   9.487  0.1666 -0.1644  0.1446
  107OSM   H11F11034   0.624   4.310   9.562  1.9070 -0.0336  2.1140
  107OSM   H11G11035   0.721   4.200   9.443  2.6611  0.7039 -1.2074
  107OSM   C12F11036   0.646   4.386   9.371 -0.6076 -0.3417 -0.0256
  107OSM   H12F11037   0.556   4.327   9.346  0.1662 -1.8546  0.6561
  107OSM   H12G11038   0.730   4.384   9.299  1.7954 -0.5794  2.6008
  107OSM   C13F11039   0.618   4.530   9.405 -0.4250 -0.1423  0.5748
  107OSM   H13F11040   0.718   4.575   9.419  1.2493 -3.8811  1.8259
  107OSM   H13G11041   0.564   4.531   9.502 -0.1975  0.0079  0.7015
  107OSM   C14F11042   0.536   4.604   9.296 -0.0981 -0.2268  0.2037
  107OSM   H14F11043   0.572   4.582   9.193  0.5312 -2.8564  0.9052
  107OSM   H14G11044   0.531   4.713   9.319  0.3271 -0.4947  1.6777
  107OSM   C15F11045   0.384   4.557   9.288 -0.3228  0.4241 -0.3183
  107OSM   H15F11046   0.355   4.570   9.394  2.5239  2.2926  0.3251
  107OSM   H15G11047   0.385   4.448   9.266 -0.7237  0.4120 -0.2775
  107OSM   C16F11048   0.306   4.629   9.180 -0.2523 -0.4236 -0.4908
  107OSM   H16F11049   0.367   4.629   9.087 -0.1274  2.7212 -0.5074
  107OSM   H16G11050   0.292   4.734   9.211 -0.3934 -0.6517  0.2353
  107OSM   C17F11051   0.170   4.578   9.149  0.2260  0.0380  0.5278
  107OSM   H17F11052   0.094   4.602   9.226 -1.5319 -1.2901 -0.7185
  107OSM   H17G11053   0.174   4.467   9.143  1.6687  0.1536 -2.2644
  107OSM   C18F11054   0.129   4.620   9.008  0.5757 -1.0163  0.1841
  107OSM   H18F11055   0.130   4.730   8.994  0.3514 -1.0356  0.0136
  107OSM   H18G11056   0.026   4.584   8.990  0.2271  0.5206 -1.0898
  107OSM   H18H11057   0.202   4.574   8.937 -0.8937 -2.9908 -0.1497
  108OSM      N11058   2.548   1.670  11.275  0.2097 -0.2297  0.2340
  108OSM    C1511059   2.658   1.772  11.288 -0.3847 -0.1178 -0.0324
  108OSM   H15A11060   2.732   1.752  11.213 -1.0984  0.3781 -0.8816
  108OSM   H15B11061   2.706   1.770  11.385  0.6805  0.8615 -0.5077
  108OSM   H15C11062   2.630   1.875  11.273  0.6532  0.4018  1.3112
  108OSM    C1411063   2.590   1.529  11.286 -0.1012  0.8946  0.0653
  108OSM   H14A11064   2.507   1.460  11.276 -1.6355  2.4662  1.4726
  108OSM   H14B11065   2.641   1.504  11.378  0.4965 -0.1890 -0.5361
  108OSM   H14C11066   2.656   1.509  11.203 -0.5632 -1.5517  0.2073
  108OSM    C1311067   2.449   1.699  11.385 -0.1542  0.2654  0.0942
  108OSM   H13A11068   2.351   1.662  11.356 -0.1221 -0.0555  0.3843
  108OSM   H13B11069   2.441   1.805  11.403 -3.0731  0.3880 -1.2197
  108OSM   H13C11070   2.473   1.650  11.478 -0.0213  0.7696  0.3306
  108OSM    C1211071   2.475   1.697  11.141 -0.0230  0.7638 -0.2408
  108OSM   H12A11072   2.440   1.798  11.131  1.1337  1.2896  0.8204
  108OSM   H12B11073   2.395   1.626  11.130 -0.2126  0.6970  1.3657
  108OSM    C1111074   2.557   1.656  11.018 -0.8918  0.3489  0.4109
  108OSM   H11A11075   2.661   1.695  11.022 -0.3379 -1.0164 -0.1858
  108OSM   H11B11076   2.514   1.702  10.927 -1.4121  0.1067  0.5328
  108OSM      P11077   2.462   1.431  10.950  0.2887 -0.0260  0.0537
  108OSM    O1311078   2.477   1.289  10.986 -0.3009 -0.2654 -0.7529
  108OSM    O1411079   2.328   1.493  10.985  0.1681  0.6865 -0.0065
  108OSM    O1111080   2.482   1.438  10.798 -0.1445  0.4695 -0.3244
  108OSM    O1211081   2.580   1.513  11.011  0.2864 -0.2126 -0.1499
  108OSM    C1S11082   2.587   1.364  10.735 -0.4854 -0.3702  0.1529
  108OSM    H1S11083   2.578   1.254  10.748 -2.2487 -0.4496 -1.3593
  108OSM    H1T11084   2.686   1.404  10.768 -0.1025  1.5459 -2.9039
  108OSM     NF11085   2.696   1.329  10.515 -0.2647 -0.5550 -0.4270
  108OSM    HNF11086   2.777   1.383  10.493 -1.0915  1.9996  2.0837
  108OSM    C2S11087   2.583   1.398  10.577  0.1668  1.0117 -0.6614
  108OSM    H2S11088   2.488   1.347  10.550  0.8829 -0.2487 -0.8827
  108OSM    C3S11089   2.574   1.550  10.547  0.1088  0.0378  0.7158
  108OSM    H3S11090   2.667   1.601  10.578  0.7320  0.0286 -1.0322
  108OSM     O311091   2.459   1.619  10.594 -0.3915 -1.0269  0.1157
  108OSM    HO311092   2.462   1.593  10.687  2.4306  2.5910  1.3078
  108OSM    C4S11093   2.565   1.568  10.398  0.2029 -0.6123  0.2623
  108OSM    H4S11094   2.470   1.530  10.359  0.6267 -2.2153  0.7051
  108OSM    C5S11095   2.633   1.650  10.314  0.7599  0.7388  0.5723
  108OSM    H5S11096   2.727   1.703  10.339  0.8964  0.5478  0.4648
  108OSM    C6S11097   2.593   1.656  10.168 -0.4280 -0.3854  0.3988
  108OSM    H6S11098   2.524   1.743  10.157 -1.0479 -0.8800  0.2924
  108OSM    H6T11099   2.532   1.567  10.141 -0.1032 -0.7718  0.9275
  108OSM    C7S11100   2.728   1.670  10.086 -0.2839 -0.3700  0.0920
  108OSM    H7S11101   2.781   1.573  10.074  1.0028  0.0777  1.7531
  108OSM    H7T11102   2.788   1.758  10.118 -0.8537 -0.1888  0.6833
  108OSM    C8S11103   2.702   1.706   9.933 -0.6608  0.0629 -0.3597
  108OSM    H8S11104   2.621   1.781   9.937 -0.2604  0.5426 -1.0829
  108OSM    H8T11105   2.657   1.615   9.888  2.4444 -1.2360 -1.0980
  108OSM    C9S11106   2.830   1.753   9.865 -0.9416  0.2595 -0.7665
  108OSM    H9S11107   2.916   1.684   9.870 -1.1134 -0.0565 -1.9680
  108OSM    H9T11108   2.874   1.845   9.910 -1.1846  0.8538 -1.7257
  108OSM   C10S11109   2.796   1.789   9.722  0.3710 -0.4331 -0.9084
  108OSM   H10S11110   2.719   1.868   9.719  0.0051 -0.7490 -0.0411
  108OSM   H10T11111   2.746   1.704   9.671 -1.2246 -1.2123  1.7890
  108OSM   C11S11112   2.911   1.838   9.638  0.4460 -0.3861  0.5946
  108OSM   H11S11113   2.989   1.760   9.650  0.2581 -0.6186  0.3234
  108OSM   H11T11114   2.948   1.928   9.691  2.5151 -0.6424 -0.3399
  108OSM   C12S11115   2.868   1.887   9.498 -0.2596  0.1501  0.2321
  108OSM   H12S11116   2.944   1.956   9.457 -1.1167  2.5557  2.4085
  108OSM   H12T11117   2.776   1.948   9.494  0.0884  0.6098 -2.5981
  108OSM   C13S11118   2.849   1.765   9.405 -0.1559  0.2438  0.2735
  108OSM   H13S11119   2.781   1.795   9.323 -0.8714  1.7191  1.3465
  108OSM   H13T11120   2.791   1.691   9.464  1.3322  0.9280  2.7894
  108OSM   C14S11121   2.982   1.695   9.358 -0.5674  0.3513 -0.2563
  108OSM   H14S11122   3.012   1.619   9.433  0.8414  0.3995 -0.7543
  108OSM   H14T11123   3.064   1.769   9.347 -0.3736  0.1629 -0.0571
  108OSM   C15S11124   2.948   1.618   9.226 -0.1077  0.9695  0.3042
  108OSM   H15S11125   2.870   1.540   9.235 -0.8819  1.4839 -1.4294
  108OSM   H15T11126   3.036   1.556   9.199  0.0527  0.8180  1.1562
  108OSM   C16S11127   2.905   1.706   9.102 -0.0888 -0.0202 -0.3466
  108OSM   H16S11128   2.807   1.751   9.128 -0.3581 -1.1146  0.5865
  108OSM   H16T11129   2.910   1.639   9.014  1.4968 -0.8064  0.3023
  108OSM   C17S11130   3.008   1.819   9.077 -0.3584  0.4987 -0.5833
  108OSM   H17S11131   3.107   1.790   9.117 -0.6400  2.2894  1.6148
  108OSM   H17T11132   2.971   1.893   9.151 -1.6634 -1.6637  1.0206
  108OSM   C18S11133   3.006   1.874   8.937 -0.2521 -0.6006  0.4690
  108OSM   H18S11134   3.040   1.806   8.857 -1.3066 -1.0651  0.4118
  108OSM   H18T11135   3.065   1.969   8.942 -4.0586  2.0244  0.0640
  108OSM   H18U11136   2.911   1.912   8.895 -0.4384 -0.6970  0.7986
  108OSM    C1F11137   2.705   1.195  10.505 -0.3474  0.4713 -0.5455
  108OSM     OF11138   2.606   1.117  10.514 -0.2282 -0.3113 -0.0066
  108OSM    C2F11139   2.841   1.139  10.477  0.5497  0.1171 -0.2878
  108OSM    H2F11140   2.895   1.136  10.575 -0.0430 -1.7289  0.0217
  108OSM    H2G11141   2.898   1.210  10.415 -3.1042  1.8440 -1.9184
  108OSM    C3F11142   2.835   0.997  10.406  0.3135  0.0456  0.5931
  108OSM    H3F11143   2.779   0.920  10.463 -0.2725  0.2493  0.3054
  108OSM    H3G11144   2.939   0.964  10.384 -0.0944  1.2129 -4.2653
  108OSM    C4F11145   2.772   1.012  10.267 -0.3054 -0.0877 -0.3639
  108OSM    H4F11146   2.817   1.100  10.216 -0.2200  0.4339  0.5844
  108OSM    H4G11147   2.667   1.047  10.277  0.5660  2.6250  0.2960
  108OSM    C5F11148   2.786   0.885  10.185  0.2971  0.3887  0.0097
  108OSM    H5F11149   2.750   0.796  10.241 -2.0050 -0.8288 -3.1209
  108OSM    H5G11150   2.894   0.876  10.161  0.2234 -0.2372 -0.1133
  108OSM    C6F11151   2.698   0.870  10.062  0.1559  0.4571  0.0404
  108OSM    H6F11152   2.720   0.957   9.996  0.2163 -0.0241 -0.5770
  108OSM    H6G11153   2.592   0.872  10.093  0.2693  1.4501  0.4171
  108OSM    C7F11154   2.724   0.743   9.983  0.2589 -0.1999 -0.2070
  108OSM    H7F11155   2.716   0.650  10.043 -4.0473  0.5210  0.6335
  108OSM    H7G11156   2.833   0.746   9.961  0.1842 -2.9637 -1.3183
  108OSM    C8F11157   2.653   0.729   9.841 -0.4658  0.1094 -1.1143
  108OSM    H8F11158   2.547   0.735   9.874 -0.6100  0.2372 -1.6044
  108OSM    H8G11159   2.662   0.626   9.801  1.1767  0.1841 -0.9821
  108OSM    C9F11160   2.700   0.840   9.755 -0.3150 -0.4549  1.2476
  108OSM    H9F11161   2.803   0.875   9.769 -0.5903  1.5880 -1.1298
  108OSM   C10F11162   2.620   0.905   9.668 -0.6108 -0.7356  0.5196
  108OSM   H10F11163   2.664   0.995   9.621  0.8790 -0.8616  1.5947
  108OSM   C11F11164   2.476   0.877   9.648  0.4419 -0.5050 -0.1278
  108OSM   H11F11165   2.431   0.973   9.613 -1.7228 -1.3504  0.1867
  108OSM   H11G11166   2.415   0.837   9.732 -1.0541  0.6971 -0.6005
  108OSM   C12F11167   2.455   0.792   9.523  0.9525  0.4330 -0.2695
  108OSM   H12F11168   2.526   0.707   9.525  0.8150  0.3262  0.0477
  108OSM   H12G11169   2.479   0.859   9.437 -2.9225 -0.6459 -2.4102
  108OSM   C13F11170   2.310   0.750   9.512 -0.1887  0.4596 -0.3645
  108OSM   H13F11171   2.248   0.842   9.519  2.3865  2.1396  1.9885
  108OSM   H13G11172   2.281   0.680   9.594  1.1015  0.5874  0.2154
  108OSM   C14F11173   2.283   0.692   9.373  0.0975  0.3462  0.0284
  108OSM   H14F11174   2.349   0.605   9.354 -1.0327 -0.4167 -0.5035
  108OSM   H14G11175   2.298   0.777   9.303 -1.3752 -0.8388 -1.8240
  108OSM   C15F11176   2.131   0.663   9.360 -0.1071 -0.3138 -1.1794
  108OSM   H15F11177   2.068   0.736   9.415 -2.4028 -1.8177 -1.7037
  108OSM   H15G11178   2.110   0.569   9.415 -0.4796  0.5011  0.1059
  108OSM   C16F11179   2.081   0.639   9.220 -0.5556  1.0827 -0.0479
  108OSM   H16F11180   2.074   0.735   9.164 -0.2955  1.8834  1.2495
  108OSM   H16G11181   1.980   0.593   9.224  0.6586 -1.9951 -1.8751
  108OSM   C17F11182   2.167   0.534   9.147  0.9936 -0.0794  0.3789
  108OSM   H17F11183   2.210   0.460   9.217 -1.4667 -3.6200 -1.5747
  108OSM   H17G11184   2.255   0.592   9.111  0.1185  0.8978 -0.2845
  108OSM   C18F11185   2.109   0.476   9.020 -0.2538 -0.3536 -0.0918
  108OSM   H18F11186   2.060   0.564   8.971  0.4356  1.0947  1.6942
  108OSM   H18G11187   2.031   0.399   9.036 -1.6102  0.8130 -0.8496
  108OSM   H18H11188   2.192   0.447   8.952  2.1211 -0.1672  2.5404
  109OSM      N11189   4.479   3.003  11.280  0.3368  0.6283  0.0529
  109OSM    C1511190   4.542   3.098  11.381  0.4846 -0.1255 -0.5783
  109OSM   H15A11191   4.466   3.138  11.447  0.2340  0.6598 -1.3167
  109OSM   H15B11192   4.567   3.194  11.338 -1.7651  0.0030 -1.7677
  109OSM   H15C11193   4.618   3.049  11.439  1.2642 -1.3538 -2.5157
  109OSM    C1411194   4.430   2.885  11.361 -0.8538 -0.7404  0.3544
  109OSM   H14A11195   4.505   2.824  11.408 -1.9895 -1.7598  0.8824
  109OSM   H14B11196   4.372   2.821  11.296  1.2671 -2.0081 -0.3819
  109OSM   H14C11197   4.370   2.913  11.447 -0.7264 -2.4552  1.0345
  109OSM    C1311198   4.367   3.080  11.219 -0.1188 -0.3948 -0.5431
  109OSM   H13A11199   4.286   3.099  11.287 -0.8660  1.5753 -1.8946
  109OSM   H13B11200   4.319   3.028  11.137  2.3567 -0.5359 -2.0126
  109OSM   H13C11201   4.399   3.177  11.185 -0.1250 -0.4684 -0.7632
  109OSM    C1211202   4.584   2.959  11.173 -0.0088  0.5894  0.1646
  109OSM   H12A11203   4.549   2.869  11.125 -0.7832  1.1760 -0.4043
  109OSM   H12B11204   4.670   2.922  11.226 -0.6279 -1.5452 -0.2182
  109OSM    C1111205   4.625   3.050  11.055 -0.1430  0.2872 -0.1256
  109OSM   H11A11206   4.727   3.023  11.022 -0.2715 -0.3687 -0.0035
  109OSM   H11B11207   4.630   3.150  11.104 -1.8841  0.6577 -0.6310
  109OSM      P11208   4.523   2.936  10.846 -0.4207 -0.1772  0.3812
  109OSM    O1311209   4.616   2.965  10.739 -0.2592  0.2433  0.1607
  109OSM    O1411210   4.541   2.806  10.918 -0.1428 -0.0415 -0.0329
  109OSM    O1111211   4.375   2.962  10.804  0.6049  0.6484  0.0288
  109OSM    O1211212   4.535   3.057  10.946 -0.0412  0.2770  0.5455
  109OSM    C1S11213   4.333   3.066  10.710  0.1805  1.0831 -0.1292
  109OSM    H1S11214   4.403   3.152  10.718  0.4229  0.8392  0.4159
  109OSM    H1T11215   4.227   3.091  10.735 -0.0760 -1.1042  1.2855
  109OSM     NF11216   4.291   3.131  10.466  0.0222  0.3337 -0.5184
  109OSM    HNF11217   4.198   3.146  10.432 -0.2453  1.2479  0.5397
  109OSM    C2S11218   4.320   3.024  10.556 -1.0824  0.1671 -0.9526
  109OSM    H2S11219   4.418   2.983  10.523 -1.4020 -1.3165 -0.1550
  109OSM    C3S11220   4.207   2.906  10.541 -0.4466 -0.5552 -0.0428
  109OSM    H3S11221   4.111   2.943  10.583 -0.3619 -0.4125  0.0251
  109OSM     O311222   4.231   2.799  10.630  0.1617  0.2065  0.0157
  109OSM    HO311223   4.286   2.840  10.697  0.0992  0.3032  0.0084
  109OSM    C4S11224   4.180   2.868  10.399 -0.0090  0.0509 -0.7881
  109OSM    H4S11225   4.099   2.931  10.358 -2.2664 -1.7745  0.5845
  109OSM    C5S11226   4.220   2.752  10.335 -0.4029 -0.5768 -0.2243
  109OSM    H5S11227   4.279   2.681  10.395  0.6087 -0.6053 -1.2205
  109OSM    C6S11228   4.189   2.704  10.195 -0.1665 -0.2855  0.7479
  109OSM    H6S11229   4.164   2.596  10.192  0.6239 -0.4716 -1.9444
  109OSM    H6T11230   4.282   2.711  10.134  0.0038  3.2181  1.1868
  109OSM    C7S11231   4.082   2.779  10.109  0.8160  0.5753  0.7941
  109OSM    H7S11232   4.121   2.875  10.070 -1.9823  2.0991  1.4711
  109OSM    H7T11233   3.997   2.803  10.177 -0.4428 -0.4602 -0.3312
  109OSM    C8S11234   4.039   2.705   9.973  0.2786  0.9055  0.0994
  109OSM    H8S11235   3.987   2.608   9.989 -1.1022  1.3805 -1.2464
  109OSM    H8T11236   4.128   2.675   9.915  0.5366 -0.6918  1.2537
  109OSM    C9S11237   3.943   2.797   9.897 -0.2122  0.1387  0.6382
  109OSM    H9S11238   3.986   2.898   9.910 -0.2407 -0.0047  2.0983
  109OSM    H9T11239   3.850   2.800   9.958 -0.1745  0.7178  0.6723
  109OSM   C10S11240   3.921   2.749   9.751  0.5107 -0.2222 -0.7546
  109OSM   H10S11241   3.857   2.824   9.700  0.3404  0.7230  0.7882
  109OSM   H10T11242   3.854   2.661   9.758  2.3185 -1.5553  1.0795
  109OSM   C11S11243   4.043   2.727   9.665 -0.1375  0.1011  0.7974
  109OSM   H11S11244   4.100   2.640   9.704  1.4008  0.8035  0.1845
  109OSM   H11T11245   4.116   2.809   9.683  1.3980 -1.0634  0.1117
  109OSM   C12S11246   3.999   2.715   9.515  0.2766 -0.1695 -0.5393
  109OSM   H12S11247   3.944   2.809   9.491 -0.7132 -0.4036  0.7577
  109OSM   H12T11248   3.943   2.621   9.500  1.6069 -0.8674 -1.3163
  109OSM   C13S11249   4.122   2.722   9.428  0.5980 -0.0614  0.7281
  109OSM   H13S11250   4.188   2.639   9.461  3.0150  2.0841  1.6338
  109OSM   H13T11251   4.173   2.820   9.445 -0.1561  0.4543  0.0867
  109OSM   C14S11252   4.099   2.687   9.271 -0.2342  0.0924  0.7645
  109OSM   H14S11253   4.019   2.752   9.232  0.0843 -0.3863 -0.7760
  109OSM   H14T11254   4.056   2.584   9.262  1.5941 -0.6489 -0.0601
  109OSM   C15S11255   4.232   2.703   9.191  0.7581  0.2470 -0.2392
  109OSM   H15S11256   4.314   2.652   9.246  1.1222 -0.1970 -1.1862
  109OSM   H15T11257   4.263   2.809   9.198  0.7700  0.1851  0.9884
  109OSM   C16S11258   4.226   2.656   9.035 -0.3921  1.0787 -0.4683
  109OSM   H16S11259   4.132   2.693   8.989 -0.1016  1.1666 -1.0013
  109OSM   H16T11260   4.232   2.545   9.034 -1.1360  1.0311 -0.7374
  109OSM   C17S11261   4.325   2.718   8.945  0.2399 -0.9123 -0.9913
  109OSM   H17S11262   4.424   2.717   8.995 -0.4278 -1.1208  0.3955
  109OSM   H17T11263   4.305   2.824   8.919  1.5236 -0.8936 -1.9450
  109OSM   C18S11264   4.329   2.638   8.818 -0.0040 -0.3970  0.3140
  109OSM   H18S11265   4.228   2.623   8.775  1.2367 -1.3399 -2.5029
  109OSM   H18T11266   4.381   2.540   8.830  0.7030 -0.2808 -1.5691
  109OSM   H18U11267   4.382   2.699   8.742  0.4706 -2.7422 -1.3704
  109OSM    C1F11268   4.380   3.221  10.442  0.3913 -0.5261  0.1676
  109OSM     OF11269   4.501   3.220  10.471 -0.2645 -0.0152  0.3875
  109OSM    C2F11270   4.340   3.344  10.388  0.0436 -0.2948  0.0891
  109OSM    H2F11271   4.376   3.429  10.450  0.2700 -0.8481  0.7286
  109OSM    H2G11272   4.229   3.356  10.384  0.2182  1.1821 -1.8809
  109OSM    C3F11273   4.386   3.374  10.240 -0.1974  0.2207 -0.9289
  109OSM    H3F11274   4.379   3.286  10.173 -1.3959 -0.8213  0.5084
  109OSM    H3G11275   4.496   3.392  10.240 -0.3165  1.6572  2.0303
  109OSM    C4F11276   4.314   3.491  10.176 -0.2615  0.3247  0.3769
  109OSM    H4F11277   4.207   3.469  10.156  0.5238 -1.7364 -2.3314
  109OSM    H4G11278   4.349   3.497  10.070 -2.6250 -0.8408 -0.5514
  109OSM    C5F11279   4.327   3.625  10.255  0.5213  0.3796 -0.0693
  109OSM    H5F11280   4.422   3.626  10.314  1.0407 -0.2550 -0.8637
  109OSM    H5G11281   4.250   3.619  10.335  1.9111 -1.7780  1.2253
  109OSM    C6F11282   4.317   3.743  10.162 -0.8405 -0.2719  0.0229
  109OSM    H6F11283   4.231   3.748  10.092 -0.0883  2.8566 -0.8607
  109OSM    H6G11284   4.401   3.727  10.091 -0.9648  1.8729 -0.6766
  109OSM    C7F11285   4.333   3.881  10.227 -0.3719  0.4637  0.0259
  109OSM    H7F11286   4.427   3.880  10.287  1.2543  0.7537 -2.3477
  109OSM    H7G11287   4.259   3.897  10.307  0.2548 -0.9917  0.9453
  109OSM    C8F11288   4.340   3.993  10.128 -0.1444 -0.5228  0.9873
  109OSM    H8F11289   4.335   4.089  10.184 -1.1434 -0.6012  1.0425
  109OSM    H8G11290   4.251   3.994  10.061 -0.6889 -1.4713  1.6881
  109OSM    C9F11291   4.465   3.999  10.041 -0.6276  0.4482 -0.0957
  109OSM    H9F11292   4.557   4.012  10.101 -1.6565  0.7942  1.4533
  109OSM   C10F11293   4.479   3.981   9.907  0.2580 -0.1587  0.6382
  109OSM   H10F11294   4.583   3.987   9.872  0.8344 -0.5423  2.1787
  109OSM   C11F11295   4.364   3.970   9.815  0.1175 -0.2220  1.0304
  109OSM   H11F11296   4.366   4.054   9.742  1.0220 -0.1540  1.1216
  109OSM   H11G11297   4.267   3.968   9.868 -1.0750 -0.7601 -1.0554
  109OSM   C12F11298   4.353   3.838   9.738  0.2962 -0.9465 -0.2849
  109OSM   H12F11299   4.443   3.846   9.674 -0.1872 -0.2262 -0.8820
  109OSM   H12G11300   4.263   3.831   9.673 -0.2791  1.4963  0.1507
  109OSM   C13F11301   4.359   3.700   9.806 -0.1901  0.1397 -0.4230
  109OSM   H13F11302   4.258   3.690   9.852 -0.1221  1.6799  0.0972
  109OSM   H13G11303   4.433   3.701   9.888 -2.5430  1.2668  1.8270
  109OSM   C14F11304   4.348   3.586   9.700  0.0627 -0.0157 -0.2608
  109OSM   H14F11305   4.444   3.588   9.644  0.9690 -0.0479  1.2495
  109OSM   H14G11306   4.268   3.624   9.633  0.7196  2.7186  0.4079
  109OSM   C15F11307   4.307   3.450   9.763 -0.2773 -0.1171 -0.6132
  109OSM   H15F11308   4.210   3.469   9.814  0.9872  0.8548  1.6057
  109OSM   H15G11309   4.376   3.441   9.850  0.9978  2.8379 -1.2157
  109OSM   C16F11310   4.310   3.324   9.680  0.0791 -0.0039  0.1300
  109OSM   H16F11311   4.411   3.291   9.648 -1.7254 -2.6317 -3.6772
  109OSM   H16G11312   4.245   3.331   9.590  1.3894  1.1634 -0.7555
  109OSM   C17F11313   4.259   3.197   9.754  0.3246  0.1428 -0.0995
  109OSM   H17F11314   4.306   3.109   9.705  0.6337 -0.6682  1.5974
  109OSM   H17G11315   4.149   3.194   9.737  0.2593 -1.0117  0.4465
  109OSM   C18F11316   4.296   3.183   9.901 -0.0866  0.4519 -0.2649
  109OSM   H18F11317   4.405   3.183   9.920 -0.4026 -2.5104  2.2093
  109OSM   H18G11318   4.255   3.092   9.949 -0.5910  1.3670  1.1049
  109OSM   H18H11319   4.255   3.277   9.944  2.7160  1.0646  1.2841
  110OSM      N11320   3.950   1.322  10.901  0.0945  0.0732  0.3053
  110OSM    C1511321   3.979   1.230  11.016 -0.2064  0.9792 -0.8791
  110OSM   H15A11322   4.003   1.131  10.982  1.2578  1.2617 -0.7375
  110OSM   H15B11323   3.888   1.233  11.075 -0.2629  1.8141 -0.9980
  110OSM   H15C11324   4.063   1.254  11.080 -0.7144  0.6231 -0.0719
  110OSM    C1411325   3.900   1.456  10.952 -0.2497 -0.0272 -0.0396
  110OSM   H14A11326   3.979   1.509  11.003 -0.9122  1.1080 -0.1677
  110OSM   H14B11327   3.819   1.443  11.023  0.0478  0.8179  0.4681
  110OSM   H14C11328   3.868   1.523  10.874  0.7686 -0.1495 -0.5794
  110OSM    C1311329   4.072   1.339  10.818  0.0942 -0.7999  0.7636
  110OSM   H13A11330   4.154   1.371  10.879  1.0425 -1.1624 -0.2799
  110OSM   H13B11331   4.069   1.404  10.732  2.9028 -2.1412 -0.4852
  110OSM   H13C11332   4.106   1.242  10.783 -1.9135 -0.8869 -1.2047
  110OSM    C1211333   3.835   1.269  10.823 -0.0880  0.4728  0.7631
  110OSM   H12A11334   3.802   1.349  10.758  2.2940  0.9788  0.0659
  110OSM   H12B11335   3.748   1.247  10.884 -1.0339  1.3034 -0.2468
  110OSM    C1111336   3.864   1.141  10.734  0.4613 -0.4076 -0.2373
  110OSM   H11A11337   3.935   1.178  10.658  0.2757  1.8160  0.6084
  110OSM   H11B11338   3.773   1.117  10.674  0.8082 -1.6075 -0.3088
  110OSM      P11339   4.025   0.940  10.739  0.0523  0.1755  0.3302
  110OSM    O1311340   4.149   1.021  10.752  0.5767 -0.4523  0.1405
  110OSM    O1411341   4.034   0.809  10.801  0.4869 -0.1675  0.3431
  110OSM    O1111342   3.980   0.923  10.588 -0.0753 -0.0331 -0.3390
  110OSM    O1211343   3.904   1.020  10.805 -0.2219 -0.1177  0.0610
  110OSM    C1S11344   4.078   0.915  10.483  0.4309 -0.4097 -0.0113
  110OSM    H1S11345   4.147   0.833  10.513 -1.2927 -1.7700  0.3748
  110OSM    H1T11346   4.127   1.015  10.479 -0.9331  0.2635 -0.4949
  110OSM     NF11347   4.119   0.863  10.248  0.2281 -0.7365 -0.3227
  110OSM    HNF11348   4.134   0.943  10.190  1.0244  0.6017  1.5769
  110OSM    C2S11349   4.016   0.885  10.345 -0.9242  0.0510  0.2911
  110OSM    H2S11350   3.958   0.791  10.363 -1.6795  0.4139 -0.1800
  110OSM    C3S11351   3.913   1.002  10.307 -0.7134  0.3362 -0.0882
  110OSM    H3S11352   3.960   1.102  10.302  1.5699 -0.5401  1.7518
  110OSM     O311353   3.816   1.028  10.412 -0.2627  0.0878 -0.0870
  110OSM    HO311354   3.847   0.976  10.486 -4.8079  1.3799  3.1580
  110OSM    C4S11355   3.851   0.985  10.172 -0.1799 -0.5612  0.4325
  110OSM    H4S11356   3.914   1.033  10.095 -0.1748 -0.2370  0.6368
  110OSM    C5S11357   3.729   0.941  10.141  0.1465 -0.2651 -0.2257
  110OSM    H5S11358   3.669   0.906  10.226  1.0021  1.6516  1.2372
  110OSM    C6S11359   3.673   0.932  10.003  0.0315 -0.0686  0.2185
  110OSM    H6S11360   3.582   0.994   9.992 -0.0945 -0.2944 -0.0418
  110OSM    H6T11361   3.639   0.827   9.988 -0.4320 -0.3061  2.5716
  110OSM    C7S11362   3.773   0.968   9.895 -0.2759 -0.4161 -0.2204
  110OSM    H7S11363   3.864   0.910   9.923  0.6712  0.8897 -0.5266
  110OSM    H7T11364   3.805   1.074   9.892  1.7607 -0.9866 -0.3553
  110OSM    C8S11365   3.734   0.940   9.751  0.8309  0.1000  0.2978
  110OSM    H8S11366   3.641   0.992   9.721  2.2596  1.4440 -2.1133
  110OSM    H8T11367   3.718   0.830   9.744  1.3313  0.0548 -0.2180
  110OSM    C9S11368   3.835   0.995   9.654 -0.2465 -0.4793  0.6440
  110OSM    H9S11369   3.942   0.973   9.676  0.5022  3.2784  1.4677
  110OSM    H9T11370   3.833   1.105   9.675 -1.1931 -0.8851  2.9718
  110OSM   C10S11371   3.794   0.981   9.510  0.2136 -0.1791 -0.3849
  110OSM   H10S11372   3.683   0.985   9.505  0.0412 -2.3857  0.5439
  110OSM   H10T11373   3.823   0.887   9.457 -2.5519 -1.5829  0.3877
  110OSM   C11S11374   3.864   1.094   9.427  0.6610 -0.3161 -0.6664
  110OSM   H11S11375   3.972   1.076   9.440  0.6533 -0.4257 -0.7482
  110OSM   H11T11376   3.837   1.192   9.471 -1.1377 -0.3810 -1.5012
  110OSM   C12S11377   3.832   1.094   9.281 -0.4124 -0.5193 -0.5040
  110OSM   H12S11378   3.734   1.143   9.266 -0.8764 -0.6960  1.6664
  110OSM   H12T11379   3.829   0.993   9.235  1.0775 -1.4021  1.1919
  110OSM   C13S11380   3.939   1.185   9.209  0.2190 -0.4817  0.0290
  110OSM   H13S11381   4.037   1.144   9.242  0.4694  1.5526  2.1372
  110OSM   H13T11382   3.935   1.289   9.248 -2.4135 -0.7621  0.6573
  110OSM   C14S11383   3.924   1.168   9.056  0.6129 -1.0644 -0.3452
  110OSM   H14S11384   3.905   1.063   9.027 -0.0676 -0.6016 -1.6817
  110OSM   H14T11385   4.010   1.217   9.004 -1.0596  0.6723 -1.6386
  110OSM   C15S11386   3.817   1.259   8.992  1.2008  0.7128  0.1768
  110OSM   H15S11387   3.837   1.364   9.025 -0.1224  0.2904  2.5198
  110OSM   H15T11388   3.718   1.229   9.031  2.1870  0.1923  2.4592
  110OSM   C16S11389   3.812   1.258   8.837 -0.2020 -0.2250 -0.0190
  110OSM   H16S11390   3.797   1.151   8.813 -2.2646  0.0799 -0.2842
  110OSM   H16T11391   3.911   1.289   8.796 -0.8448 -0.7782 -2.0704
  110OSM   C17S11392   3.699   1.348   8.790 -0.7571  0.7943  0.0717
  110OSM   H17S11393   3.708   1.451   8.832  0.7774  0.3686  0.8853
  110OSM   H17T11394   3.605   1.298   8.821  0.0982 -1.4237 -0.6812
  110OSM   C18S11395   3.693   1.364   8.636 -0.5313 -0.3416 -0.0476
  110OSM   H18S11396   3.609   1.426   8.598 -2.4930 -2.1557  1.0519
  110OSM   H18T11397   3.691   1.268   8.580  0.1185 -1.0175  1.0353
  110OSM   H18U11398   3.790   1.406   8.601 -0.5185  1.0542  1.5348
  110OSM    C1F11399   4.187   0.756  10.243  0.3219 -0.1316 -0.2870
  110OSM     OF11400   4.165   0.672  10.328  0.0722 -0.0305 -0.4372
  110OSM    C2F11401   4.280   0.741  10.129  0.1556  0.0386 -0.0324
  110OSM    H2F11402   4.345   0.831  10.127  1.9324 -1.1672 -1.8479
  110OSM    H2G11403   4.209   0.744  10.044 -1.8446 -0.2312  1.5698
  110OSM    C3F11404   4.382   0.621  10.128 -0.5600  0.0190  0.4404
  110OSM    H3F11405   4.337   0.522  10.106  0.8258 -0.0608 -2.6198
  110OSM    H3G11406   4.425   0.626  10.230  0.1037 -0.1499  0.1759
  110OSM    C4F11407   4.506   0.634  10.028 -0.4261 -0.5848  0.7749
  110OSM    H4F11408   4.580   0.555  10.051  2.1235  1.4403 -0.0198
  110OSM    H4G11409   4.562   0.728  10.047  2.3423 -1.7689 -1.0058
  110OSM    C5F11410   4.466   0.620   9.878  0.3292  0.3891 -0.9889
  110OSM    H5F11411   4.397   0.706   9.862 -0.7330  0.1713  1.8490
  110OSM    H5G11412   4.400   0.533   9.857  2.4700 -1.2712 -1.0848
  110OSM    C6F11413   4.593   0.615   9.792  0.5765  0.1436 -0.0354
  110OSM    H6F11414   4.642   0.516   9.786  4.8784  1.9433  1.3622
  110OSM    H6G11415   4.671   0.678   9.839 -0.5054  1.2322  0.3612
  110OSM    C7F11416   4.557   0.680   9.651 -0.8742 -0.0814 -0.4258
  110OSM    H7F11417   4.653   0.697   9.598 -0.4145 -1.6984 -0.1520
  110OSM    H7G11418   4.498   0.772   9.674 -2.0437 -0.8846 -0.1070
  110OSM    C8F11419   4.472   0.587   9.568  0.5270  0.3564 -0.0047
  110OSM    H8F11420   4.439   0.650   9.483 -1.5990 -0.9779 -0.2478
  110OSM    H8G11421   4.379   0.545   9.613  2.5483 -3.7136  0.8369
  110OSM    C9F11422   4.539   0.462   9.511 -0.3454 -0.7804  1.3072
  110OSM    H9F11423   4.540   0.373   9.576  0.9814 -1.9159 -0.1709
  110OSM   C10F11424   4.603   0.446   9.391 -0.0724 -1.0752  0.2118
  110OSM   H10F11425   4.660   0.355   9.369  2.4272  0.5942 -0.7079
  110OSM   C11F11426   4.616   0.556   9.285  0.1589  0.1180 -0.3581
  110OSM   H11F11427   4.713   0.542   9.232  0.1017 -0.6507 -0.2646
  110OSM   H11G11428   4.630   0.657   9.331 -0.0145  1.1187 -2.4019
  110OSM   C12F11429   4.495   0.569   9.197 -0.0735 -0.2302 -0.3523
  110OSM   H12F11430   4.425   0.625   9.263 -1.2395 -0.6117 -1.2318
  110OSM   H12G11431   4.443   0.474   9.173  1.1903 -1.7020  2.3238
  110OSM   C13F11432   4.525   0.628   9.066 -0.1454  0.1042  0.6945
  110OSM   H13F11433   4.597   0.711   9.085 -0.5764  0.4085  1.0029
  110OSM   H13G11434   4.432   0.665   9.019 -0.6220 -1.0307  0.7073
  110OSM   C14F11435   4.571   0.515   8.960  0.1172 -0.5422 -0.0276
  110OSM   H14F11436   4.485   0.445   8.949  0.8155 -1.0469 -3.4687
  110OSM   H14G11437   4.663   0.459   8.987  0.4788  0.3060  0.5594
  110OSM   C15F11438   4.575   0.561   8.814  0.4213  0.7670 -0.1620
  110OSM   H15F11439   4.481   0.607   8.775 -0.0041 -0.9601 -1.2935
  110OSM   H15G11440   4.582   0.470   8.750 -1.0848  0.5494 -0.0541
  110OSM   C16F11441   4.703   0.645   8.780  0.7489  0.7248  0.7003
  110OSM   H16F11442   4.792   0.579   8.781  2.1802  2.5850  2.0469
  110OSM   H16G11443   4.721   0.727   8.852  3.3811 -0.8915  2.0289
  110OSM   C17F11444   4.688   0.722   8.646  0.2201  0.3600 -0.5104
  110OSM   H17F11445   4.793   0.748   8.623  1.4066 -2.6935  0.8052
  110OSM   H17G11446   4.625   0.810   8.669 -1.5405 -1.2890  1.4391
  110OSM   C18F11447   4.635   0.645   8.523  0.8198 -0.1832  0.2896
  110OSM   H18F11448   4.533   0.615   8.554  0.7544  0.2886  0.5363
  110OSM   H18G11449   4.697   0.559   8.490  0.4617 -1.1359  1.9755
  110OSM   H18H11450   4.632   0.700   8.426  0.7773 -2.2483 -0.9283
  111OSM      N11451   0.316   6.579  11.290  0.0298 -0.1417 -0.7970
  111OSM    C1511452   0.196   6.671  11.320 -0.2839  0.4029 -0.0135
  111OSM   H15A11453   0.100   6.622  11.313  0.4092 -0.8505 -1.5680
  111OSM   H15B11454   0.196   6.763  11.265  1.2805  1.4244  1.6091
  111OSM   H15C11455   0.203   6.704  11.422 -0.6879  2.2455 -0.5439
  111OSM    C1411456   0.300   6.442  11.352 -0.3850  0.6943  0.0598
  111OSM   H14A11457   0.387   6.380  11.345 -0.9384 -0.3676  1.7855
  111OSM   H14B11458   0.216   6.397  11.301  0.4393 -1.2906  0.3629
  111OSM   H14C11459   0.262   6.455  11.453  0.3085  2.4008  0.1318
  111OSM    C1311460   0.323   6.553  11.143 -0.1817 -0.3059 -0.9013
  111OSM   H13A11461   0.403   6.483  11.126  1.2605  0.6801  1.3022
  111OSM   H13B11462   0.344   6.647  11.095 -1.2971  1.7260  2.2570
  111OSM   H13C11463   0.231   6.514  11.102 -1.2474  0.4612  0.6181
  111OSM    C1211464   0.446   6.647  11.330 -0.1096  0.3920 -0.1609
  111OSM   H12A11465   0.518   6.573  11.359 -0.6637 -0.5544 -1.1363
  111OSM   H12B11466   0.425   6.710  11.416  1.2927  0.6889 -0.0117
  111OSM    C1111467   0.519   6.744  11.228 -0.2899 -0.5279  0.6097
  111OSM   H11A11468   0.558   6.685  11.142  0.1974  1.0110 -0.2683
  111OSM   H11B11469   0.609   6.795  11.268 -1.4586  1.2337  1.0959
  111OSM      P11470   0.432   6.922  11.041  0.3753  0.0505  0.3413
  111OSM    O1311471   0.316   7.013  11.023 -0.2574 -0.2439 -0.7709
  111OSM    O1411472   0.566   6.975  11.015 -0.0508  0.4946 -0.3295
  111OSM    O1111473   0.416   6.803  10.943 -0.1468  0.3057  0.3944
  111OSM    O1211474   0.425   6.838  11.177 -1.1663  0.2036  0.0481
  111OSM    C1S11475   0.312   6.787  10.847 -0.2948 -0.1738  0.3430
  111OSM    H1S11476   0.223   6.846  10.878  0.1121  2.1677 -2.5080
  111OSM    H1T11477   0.290   6.679  10.840 -0.9546 -0.2617  2.7445
  111OSM     NF11478   0.230   6.797  10.617 -0.3541  0.2848 -0.0811
  111OSM    HNF11479   0.223   6.714  10.563  0.2785  1.5362 -2.2259
  111OSM    C2S11480   0.345   6.827  10.702  0.1328 -0.5493 -0.5524
  111OSM    H2S11481   0.361   6.937  10.706 -0.9652 -0.4187  2.0377
  111OSM    C3S11482   0.488   6.771  10.655 -1.1431  1.1503 -0.3995
  111OSM    H3S11483   0.473   6.662  10.670  1.4263  0.9148  1.0074
  111OSM     O311484   0.610   6.785  10.738  0.3648 -0.8521  0.1731
  111OSM    HO311485   0.579   6.817  10.823  3.2417  0.7538  0.7364
  111OSM    C4S11486   0.517   6.805  10.509  0.6000 -0.1512 -0.2511
  111OSM    H4S11487   0.482   6.725  10.441  2.3732  0.4652 -2.0147
  111OSM    C5S11488   0.576   6.923  10.460 -0.6071  0.0664 -0.0797
  111OSM    H5S11489   0.613   6.996  10.533  1.0095  0.5979 -1.3841
  111OSM    C6S11490   0.596   6.943  10.310  0.2639  0.0746  0.7581
  111OSM    H6S11491   0.693   6.897  10.283  0.0126 -0.0496  0.0459
  111OSM    H6T11492   0.605   7.051  10.287 -0.3020  0.3462  1.7178
  111OSM    C7S11493   0.494   6.875  10.206 -0.0331  0.7912 -0.5923
  111OSM    H7S11494   0.394   6.921  10.223  0.7465  2.4159 -0.1739
  111OSM    H7T11495   0.469   6.767  10.214  0.2971  0.5451 -2.5679
  111OSM    C8S11496   0.548   6.898  10.063  0.1211  0.0150 -0.2755
  111OSM    H8S11497   0.636   6.832  10.048  0.5088  0.2508  0.8189
  111OSM    H8T11498   0.589   7.002  10.060  1.0400 -0.2929  0.7614
  111OSM    C9S11499   0.455   6.867   9.946 -0.4125  0.1426  0.1547
  111OSM    H9S11500   0.361   6.925   9.962 -0.7037 -0.0738 -0.7513
  111OSM    H9T11501   0.427   6.760   9.947  3.0826 -0.8834 -0.1942
  111OSM   C10S11502   0.519   6.901   9.805 -0.2095 -0.1962 -0.4041
  111OSM   H10S11503   0.611   6.846   9.775  0.9181  2.3365 -1.8648
  111OSM   H10T11504   0.564   7.002   9.812 -2.0474  0.5161  2.8849
  111OSM   C11S11505   0.403   6.893   9.702 -0.5842  0.8511  1.2849
  111OSM   H11S11506   0.320   6.961   9.732 -1.4073  0.0568  0.8657
  111OSM   H11T11507   0.353   6.795   9.690 -2.3741  1.7306  1.2213
  111OSM   C12S11508   0.452   6.938   9.559  0.5118 -0.5303  0.3901
  111OSM   H12S11509   0.533   6.870   9.526 -0.4792 -1.1591 -0.8610
  111OSM   H12T11510   0.495   7.040   9.553 -1.4723  0.3157 -0.3905
  111OSM   C13S11511   0.340   6.918   9.453  0.1397 -0.4105  0.7711
  111OSM   H13S11512   0.264   6.999   9.450 -0.1112 -0.6048  1.4635
  111OSM   H13T11513   0.290   6.819   9.465  0.7584 -1.2207 -2.4074
  111OSM   C14S11514   0.411   6.921   9.313 -0.2916  0.8233 -0.5018
  111OSM   H14S11515   0.495   6.849   9.325 -1.3628 -0.1614  1.5080
  111OSM   H14T11516   0.447   7.026   9.300 -0.8728  1.2383  1.0262
  111OSM   C15S11517   0.319   6.892   9.200  0.1772  0.8168  0.3128
  111OSM   H15S11518   0.243   6.973   9.190 -1.3087 -0.5304  0.3694
  111OSM   H15T11519   0.254   6.805   9.221  0.1369  1.1002  1.4358
  111OSM   C16S11520   0.399   6.872   9.069 -0.2623 -0.2900  0.4969
  111OSM   H16S11521   0.492   6.817   9.095 -0.5376 -1.8143 -1.4652
  111OSM   H16T11522   0.421   6.973   9.028  1.4901 -0.9835 -0.3688
  111OSM   C17S11523   0.324   6.787   8.968  0.6744  0.6375 -0.4871
  111OSM   H17S11524   0.311   6.683   9.005 -0.1193  0.5585 -0.9691
  111OSM   H17T11525   0.372   6.782   8.868 -0.3688  1.9015 -1.0841
  111OSM   C18S11526   0.183   6.838   8.924  0.3466 -0.1134  0.4653
  111OSM   H18S11527   0.154   6.776   8.837  0.9943 -0.7937  0.7273
  111OSM   H18T11528   0.196   6.943   8.888 -1.5941 -0.1752 -0.5233
  111OSM   H18U11529   0.114   6.840   9.011  0.5869 -0.1270  0.6579
  111OSM    C1F11530   0.121   6.873  10.634  0.3443  0.1996 -0.4386
  111OSM     OF11531   0.127   6.978  10.695 -0.8107 -0.4213 -0.4267
  111OSM    C2F11532  -0.007   6.814  10.581 -0.3763 -0.6923  0.6808
  111OSM    H2F11533  -0.060   6.761  10.663  0.2808 -2.2585  0.1448
  111OSM    H2G11534   0.018   6.727  10.516  2.7763 -2.0745  3.4293
  111OSM    C3F11535  -0.091   6.920  10.505  0.1579  0.1158  0.3002
  111OSM    H3F11536  -0.112   6.992  10.586 -2.2628  0.4843 -0.5563
  111OSM    H3G11537  -0.190   6.885  10.469  0.8071  0.8656 -2.4500
  111OSM    C4F11538  -0.024   6.990  10.387  0.3931  0.2111 -0.0433
  111OSM    H4F11539   0.077   7.031  10.407 -0.3274  1.8690  0.3782
  111OSM    H4G11540  -0.087   7.078  10.364 -1.7012 -0.8136  1.4152
  111OSM    C5F11541  -0.028   6.903  10.258 -0.2711 -0.2467 -0.0765
  111OSM    H5F11542  -0.127   6.894  10.209  0.4932 -1.3427 -1.4722
  111OSM    H5G11543   0.000   6.804  10.300  0.5617 -0.1804 -0.4674
  111OSM    C6F11544   0.061   6.943  10.142 -0.2606 -0.3182  0.0417
  111OSM    H6F11545   0.163   6.962  10.183 -1.0618  2.6435  0.9109
  111OSM    H6G11546   0.029   7.041  10.102  2.0570  0.8469  0.8507
  111OSM    C7F11547   0.065   6.830  10.028  0.3315 -0.3523 -0.2898
  111OSM    H7F11548   0.085   6.743  10.093 -3.7869 -0.8629  0.5923
  111OSM    H7G11549   0.152   6.853   9.962  0.5825 -0.5798 -0.0405
  111OSM    C8F11550  -0.069   6.810   9.945  0.3784 -0.9966 -0.0567
  111OSM    H8F11551  -0.156   6.805  10.014 -1.6959  1.6129 -2.2274
  111OSM    H8G11552  -0.066   6.714   9.891 -0.0162 -1.7038  1.1423
  111OSM    C9F11553  -0.092   6.929   9.853 -0.7557 -0.0365 -0.7497
  111OSM    H9F11554  -0.132   7.019   9.902 -1.7249 -0.0083 -1.5740
  111OSM   C10F11555  -0.066   6.940   9.720 -0.5293 -0.0511  0.0707
  111OSM   H10F11556  -0.096   7.035   9.674  0.6782 -0.2954 -1.2689
  111OSM   C11F11557  -0.008   6.839   9.626  0.3082  0.7776  0.0631
  111OSM   H11F11558   0.002   6.740   9.676  1.8184  1.0787  0.4058
  111OSM   H11G11559   0.090   6.870   9.583  0.9577 -1.1187  0.0909
  111OSM   C12F11560  -0.099   6.805   9.506 -0.4841 -0.3969  0.2729
  111OSM   H12F11561  -0.204   6.801   9.544 -0.2926  4.3120  2.0923
  111OSM   H12G11562  -0.077   6.704   9.468 -0.2414 -0.0881 -0.4133
  111OSM   C13F11563  -0.082   6.912   9.404  0.5537  0.3766  0.4265
  111OSM   H13F11564   0.025   6.938   9.390  0.2162  1.0510 -1.0811
  111OSM   H13G11565  -0.123   7.009   9.440  4.5869  3.2820 -1.9574
  111OSM   C14F11566  -0.146   6.878   9.262 -0.0368 -0.5838  0.4912
  111OSM   H14F11567  -0.255   6.858   9.275 -0.5767  2.7169  1.9613
  111OSM   H14G11568  -0.091   6.790   9.222 -0.4232 -0.0882 -1.2340
  111OSM   C15F11569  -0.128   6.992   9.161 -0.0107  0.2714 -0.2971
  111OSM   H15F11570  -0.022   7.023   9.151  0.0004 -0.0794 -1.4639
  111OSM   H15G11571  -0.178   7.080   9.206 -0.4545  1.4169 -2.8532
  111OSM   C16F11572  -0.204   6.961   9.023  0.2753  0.2162  1.0880
  111OSM   H16F11573  -0.310   6.937   9.043 -0.3465 -0.7232 -2.5891
  111OSM   H16G11574  -0.172   6.866   8.976 -2.5791  0.3821 -1.5112
  111OSM   C17F11575  -0.197   7.075   8.918 -0.1802 -0.2682 -0.0881
  111OSM   H17F11576  -0.091   7.100   8.899 -0.3767  1.1055  0.5120
  111OSM   H17G11577  -0.239   7.170   8.958  1.9302 -0.1826  2.1823
  111OSM   C18F11578  -0.260   7.040   8.786  0.2386  0.2681 -0.0111
  111OSM   H18F11579  -0.369   7.017   8.788  0.7347 -2.3951 -0.4834
  111OSM   H18G11580  -0.220   6.948   8.738  0.5600 -0.0901  0.9275
  111OSM   H18H11581  -0.262   7.130   8.720  1.8318  0.3803  0.0556
  112OSM      N11582   5.137   3.450  11.647 -0.4132  0.8181  0.6143
  112OSM    C1511583   5.126   3.495  11.507 -0.8944 -0.1827  0.1583
  112OSM   H15A11584   5.149   3.420  11.433  0.2424  2.1581 -2.0287
  112OSM   H15B11585   5.185   3.585  11.492 -0.2771 -0.8352 -1.6990
  112OSM   H15C11586   5.026   3.528  11.483 -0.1991  2.3087  0.3861
  112OSM    C1411587   5.287   3.458  11.687 -0.4296  0.9502  0.1874
  112OSM   H14A11588   5.335   3.554  11.675 -0.5224  0.6540 -3.5154
  112OSM   H14B11589   5.344   3.385  11.631 -1.0612  0.1262  0.6004
  112OSM   H14C11590   5.300   3.431  11.791  0.2211  2.8690  0.6408
  112OSM    C1311591   5.064   3.542  11.732 -0.9898  0.6565  0.6082
  112OSM   H13A11592   4.960   3.554  11.704 -0.7623  3.6993  0.6728
  112OSM   H13B11593   5.109   3.640  11.725  1.8501 -0.5019  1.1952
  112OSM   H13C11594   5.069   3.521  11.838  0.8103 -0.3333  0.3668
  112OSM    C1211595   5.083   3.313  11.663  0.0930 -0.0735  0.5907
  112OSM   H12A11596   4.975   3.309  11.660  0.0109  0.9032  1.4857
  112OSM   H12B11597   5.108   3.278  11.763 -0.0100 -1.6068  0.1050
  112OSM    C1111598   5.136   3.197  11.569  0.2696 -0.1777  0.9068
  112OSM   H11A11599   5.078   3.119  11.624  0.0207  0.9830  2.3696
  112OSM   H11B11600   5.244   3.180  11.587  0.0573 -0.4546  2.0577
  112OSM      P11601   5.083   3.096  11.330  0.1954  0.1351  0.0758
  112OSM    O1311602   5.217   3.039  11.307 -0.4191 -0.1260  0.0373
  112OSM    O1411603   4.973   3.006  11.373  0.4110 -0.0440 -0.8141
  112OSM    O1111604   5.037   3.169  11.201 -0.8963  0.5682 -0.2897
  112OSM    O1211605   5.107   3.221  11.434  0.6079 -0.8375 -0.7242
  112OSM    C1S11606   5.116   3.249  11.115  0.0776 -0.3186 -0.1800
  112OSM    H1S11607   5.204   3.292  11.167  0.3364 -1.5674  0.4552
  112OSM    H1T11608   5.057   3.336  11.078 -1.2245 -0.1154  2.1432
  112OSM     NF11609   5.241   3.253  10.889 -0.1587  0.8073 -0.0535
  112OSM    HNF11610   5.205   3.275  10.799  0.1395 -1.4632 -0.7982
  112OSM    C2S11611   5.166   3.171  10.986  0.0154  0.6435  0.2131
  112OSM    H2S11612   5.233   3.093  11.028 -1.3403 -2.1690 -2.3829
  112OSM    C3S11613   5.049   3.101  10.916 -1.1719 -0.2881  0.2515
  112OSM    H3S11614   4.974   3.175  10.882 -2.4584 -1.5097  0.3184
  112OSM     O311615   4.977   3.005  10.996  0.2339  0.4702 -0.4939
  112OSM    HO311616   5.011   3.022  11.084  1.2979  1.5431 -1.0857
  112OSM    C4S11617   5.093   3.035  10.784  0.3758  0.0483 -0.2564
  112OSM    H4S11618   5.051   3.089  10.699 -1.3262  2.7557  2.1057
  112OSM    C5S11619   5.172   2.927  10.769 -0.4423 -0.0783 -0.3293
  112OSM    H5S11620   5.228   2.886  10.855  1.3927  0.0717 -1.3906
  112OSM    C6S11621   5.221   2.870  10.637  0.1476  0.6479 -0.0391
  112OSM    H6S11622   5.201   2.761  10.640  2.1895  0.2628  2.1462
  112OSM    H6T11623   5.331   2.883  10.634  0.4721 -1.6524  0.4331
  112OSM    C7S11624   5.185   2.935  10.505  0.4018 -0.2200 -0.0342
  112OSM    H7S11625   5.175   3.046  10.507  0.1224 -0.2478  2.2628
  112OSM    H7T11626   5.077   2.911  10.491  0.2477  0.8661 -0.8275
  112OSM    C8S11627   5.259   2.879  10.381 -1.1249 -0.1192 -0.1833
  112OSM    H8S11628   5.284   2.773  10.402 -3.3852 -0.7473 -0.3962
  112OSM    H8T11629   5.354   2.934  10.360 -1.3548  0.1873 -0.4487
  112OSM    C9S11630   5.180   2.881  10.253  0.3694 -0.2840 -0.2492
  112OSM    H9S11631   5.182   2.982  10.206  0.9569 -0.2649 -0.1965
  112OSM    H9T11632   5.076   2.844  10.263  0.6647 -1.0135  0.1851
  112OSM   C10S11633   5.255   2.794  10.150  0.4301 -0.1681 -0.4656
  112OSM   H10S11634   5.293   2.695  10.183 -0.3954 -1.3839 -2.9075
  112OSM   H10T11635   5.350   2.851  10.139 -0.2090  0.9273 -0.4422
  112OSM   C11S11636   5.189   2.787  10.018 -0.1774 -0.8231 -0.3838
  112OSM   H11S11637   5.160   2.889   9.983 -1.9016 -0.6147  1.4313
  112OSM   H11T11638   5.092   2.733  10.016 -0.2615 -0.6638 -0.5999
  112OSM   C12S11639   5.284   2.729   9.917  0.1961  0.3234  0.4327
  112OSM   H12S11640   5.295   2.621   9.944  0.2484  0.2685  0.1951
  112OSM   H12T11641   5.381   2.781   9.930  0.2197  0.1844  0.8215
  112OSM   C13S11642   5.238   2.746   9.777  0.2249  0.5691  0.4267
  112OSM   H13S11643   5.237   2.852   9.745  0.9543  0.7147  0.8708
  112OSM   H13T11644   5.131   2.716   9.768  0.9023 -1.5098 -1.9101
  112OSM   C14S11645   5.321   2.675   9.673 -0.0967 -0.5772 -0.1370
  112OSM   H14S11646   5.322   2.568   9.702 -1.0567 -0.5998 -0.1542
  112OSM   H14T11647   5.425   2.714   9.678  0.0535 -0.8485 -1.0549
  112OSM   C15S11648   5.256   2.696   9.535 -0.5035 -0.1216  0.2939
  112OSM   H15S11649   5.232   2.802   9.513 -1.1252  0.1855  2.2435
  112OSM   H15T11650   5.158   2.644   9.520 -0.3539 -0.4178  0.3291
  112OSM   C16S11651   5.359   2.661   9.427 -0.0317 -1.0033 -0.2410
  112OSM   H16S11652   5.373   2.551   9.425 -3.1891 -1.4805 -0.7348
  112OSM   H16T11653   5.454   2.715   9.448  0.4542 -2.9550  3.2732
  112OSM   C17S11654   5.307   2.684   9.285 -0.2797 -0.2408  0.1870
  112OSM   H17S11655   5.269   2.788   9.288 -0.6359 -0.3726  0.3748
  112OSM   H17T11656   5.216   2.621   9.272 -0.0665 -0.8073  1.3017
  112OSM   C18S11657   5.408   2.680   9.175 -0.3053 -0.1902  0.0869
  112OSM   H18S11658   5.466   2.586   9.165  1.4323  0.8241  0.1822
  112OSM   H18T11659   5.492   2.752   9.188  0.2055  0.1823 -4.0802
  112OSM   H18U11660   5.371   2.706   9.074 -0.8393  1.6765  0.7211
  112OSM    C1F11661   5.352   3.314  10.928  0.1853  0.3093  0.4095
  112OSM     OF11662   5.400   3.289  11.039 -0.4040 -0.0397  0.1060
  112OSM    C2F11663   5.414   3.410  10.831  0.0489 -0.2940 -0.0537
  112OSM    H2F11664   5.491   3.476  10.877 -1.6347  0.7282  1.4117
  112OSM    H2G11665   5.332   3.480  10.805 -0.4071 -1.0305 -0.6192
  112OSM    C3F11666   5.469   3.328  10.703  0.5879 -0.3619 -0.4127
  112OSM    H3F11667   5.390   3.313  10.625 -3.7943 -3.0387  3.9401
  112OSM    H3G11668   5.485   3.226  10.744 -0.9284 -0.6143 -0.3974
  112OSM    C4F11669   5.592   3.393  10.636 -0.1028 -0.3950  0.2396
  112OSM    H4F11670   5.622   3.325  10.554 -1.7943 -1.1213  0.1805
  112OSM    H4G11671   5.681   3.423  10.695  1.0010  0.0464 -1.5978
  112OSM    C5F11672   5.553   3.518  10.569  0.0003 -0.4599 -0.1154
  112OSM    H5F11673   5.552   3.603  10.641  1.3860 -1.0208  0.5983
  112OSM    H5G11674   5.449   3.526  10.530  0.3647  0.0054 -1.0105
  112OSM    C6F11675   5.655   3.558  10.461  0.0368  0.2336 -0.3174
  112OSM    H6F11676   5.754   3.566  10.510  0.1615  2.2309 -0.8017
  112OSM    H6G11677   5.637   3.663  10.426 -0.7754  0.3603  0.4442
  112OSM    C7F11678   5.652   3.461  10.341  0.2062 -0.3141  0.0416
  112OSM    H7F11679   5.560   3.408  10.307  0.5083 -0.7310 -0.1288
  112OSM    H7G11680   5.724   3.383  10.373 -0.0080 -0.8815 -0.8354
  112OSM    C8F11681   5.717   3.522  10.218 -0.2662 -0.0642  0.0078
  112OSM    H8F11682   5.757   3.443  10.152 -0.4812  0.7617 -1.1381
  112OSM    H8G11683   5.803   3.583  10.252  0.1779  0.3150 -1.7302
  112OSM    C9F11684   5.613   3.614  10.156 -0.1120 -0.2078 -0.2682
  112OSM    H9F11685   5.580   3.689  10.229 -1.4853  1.5636 -2.5816
  112OSM   C10F11686   5.574   3.621  10.028  0.2091  0.2217 -0.3716
  112OSM   H10F11687   5.493   3.692  10.008 -0.0030 -0.7955 -3.6570
  112OSM   C11F11688   5.628   3.548   9.910  0.4737  0.3265 -0.5120
  112OSM   H11F11689   5.564   3.465   9.874  0.1217 -0.0416  0.9018
  112OSM   H11G11690   5.721   3.490   9.929 -0.3240 -0.7765  0.1038
  112OSM   C12F11691   5.652   3.655   9.790 -0.9205  0.3188 -0.0796
  112OSM   H12F11692   5.685   3.749   9.838  0.2173 -1.2504  2.4262
  112OSM   H12G11693   5.554   3.687   9.750 -0.0825  2.5954 -0.4619
  112OSM   C13F11694   5.742   3.598   9.678 -0.3890  0.1328 -0.2263
  112OSM   H13F11695   5.687   3.508   9.644  0.8446 -1.1489  0.9897
  112OSM   H13G11696   5.836   3.560   9.724 -1.7287 -2.5525  0.4845
  112OSM   C14F11697   5.754   3.688   9.559 -0.2692 -0.2250 -0.1251
  112OSM   H14F11698   5.806   3.783   9.584  2.4135 -1.8627  1.0114
  112OSM   H14G11699   5.653   3.699   9.515  0.1769 -0.9593 -1.3949
  112OSM   C15F11700   5.850   3.636   9.444 -0.8927 -0.9769  1.0271
  112OSM   H15F11701   5.814   3.544   9.392 -0.9900 -0.5369  0.2953
  112OSM   H15G11702   5.944   3.609   9.496 -0.2710 -1.1251 -0.1370
  112OSM   C16F11703   5.873   3.742   9.329 -0.8239 -0.0604 -0.5257
  112OSM   H16F11704   5.949   3.699   9.260  0.0675 -1.5768  1.3002
  112OSM   H16G11705   5.908   3.831   9.386 -0.5150 -0.3202 -0.3089
  112OSM   C17F11706   5.741   3.771   9.257  0.0171  0.0527  0.5770
  112OSM   H17F11707   5.765   3.851   9.184  1.6348 -1.3529 -0.5199
  112OSM   H17G11708   5.664   3.809   9.328 -1.0068  1.7885 -1.3471
  112OSM   C18F11709   5.691   3.653   9.181  0.0899  0.2593 -0.3330
  112OSM   H18F11710   5.601   3.680   9.123  0.1779 -0.4244 -0.7983
  112OSM   H18G11711   5.653   3.579   9.255  0.3657 -3.0865 -3.2343
  112OSM   H18H11712   5.767   3.596   9.123  0.8522 -0.3185  1.1847
  113OSM      N11713   2.548   6.501  10.990 -0.7720  0.4051 -0.4584
  113OSM    C1511714   2.606   6.627  10.964 -0.3745 -0.6653 -0.1802
  113OSM   H15A11715   2.605   6.684  11.056  1.9648 -0.5646 -0.1655
  113OSM   H15B11716   2.553   6.681  10.887  0.8171  0.5396 -0.1873
  113OSM   H15C11717   2.711   6.613  10.942  0.8343  1.3983  3.4276
  113OSM    C1411718   2.428   6.519  11.086  0.5889 -0.6087 -0.1347
  113OSM   H14A11719   2.373   6.597  11.035  1.7585 -0.3934 -1.1228
  113OSM   H14B11720   2.459   6.556  11.183  1.5875 -0.5293 -0.4691
  113OSM   H14C11721   2.377   6.424  11.090  3.2444 -2.2602 -2.1696
  113OSM    C1311722   2.495   6.433  10.870  0.3055 -0.2490 -0.1116
  113OSM   H13A11723   2.423   6.499  10.824  1.4662  0.5205 -0.9054
  113OSM   H13B11724   2.454   6.337  10.897  1.9952 -0.8016  0.6401
  113OSM   H13C11725   2.573   6.415  10.797 -1.2644 -0.8828 -1.7102
  113OSM    C1211726   2.643   6.407  11.063  0.0191  0.4954 -0.7286
  113OSM   H12A11727   2.590   6.314  11.078 -0.7214  1.0553  0.2610
  113OSM   H12B11728   2.668   6.443  11.162 -0.8133 -0.8378 -0.0024
  113OSM    C1111729   2.781   6.372  10.998  0.5139  0.0513  0.1262
  113OSM   H11A11730   2.762   6.333  10.896 -0.2819  2.8442 -0.9042
  113OSM   H11B11731   2.831   6.295  11.060  0.3432 -2.4057 -2.5895
  113OSM      P11732   2.981   6.529  10.891  0.2032 -0.1854  0.1960
  113OSM    O1311733   2.996   6.675  10.882  0.0343 -0.3097 -0.5169
  113OSM    O1411734   3.099   6.446  10.923  0.1092  0.1738  0.3240
  113OSM    O1111735   2.910   6.492  10.755  0.2803  0.0296  0.2052
  113OSM    O1211736   2.866   6.489  10.994  0.1856 -0.4293 -0.3164
  113OSM    C1S11737   2.974   6.484  10.630  0.3775 -0.3604 -0.6336
  113OSM    H1S11738   3.013   6.381  10.618  1.3840  0.0036 -0.6230
  113OSM    H1T11739   3.059   6.555  10.640 -1.5366  1.9283  0.5623
  113OSM     NF11740   2.966   6.555  10.402  0.1668  0.8117  0.1921
  113OSM    HNF11741   3.012   6.644  10.406  1.8826 -0.0670  0.9541
  113OSM    C2S11742   2.880   6.531  10.515 -0.0838  0.0441 -0.2283
  113OSM    H2S11743   2.808   6.451  10.485 -1.5437  1.1480  0.2123
  113OSM    C3S11744   2.791   6.651  10.546  0.2463 -0.0289  0.1665
  113OSM    H3S11745   2.865   6.732  10.566  0.8828 -0.4014 -0.6594
  113OSM     O311746   2.712   6.639  10.663  0.3428  0.0037 -0.2741
  113OSM    HO311747   2.752   6.564  10.708  1.8006 -0.1306 -1.6718
  113OSM    C4S11748   2.702   6.691  10.430 -0.5281 -0.4168  0.2078
  113OSM    H4S11749   2.723   6.792  10.392  2.2044 -0.8391  0.4316
  113OSM    C5S11750   2.600   6.623  10.383 -0.2849  0.3812  0.1754
  113OSM    H5S11751   2.561   6.542  10.446 -1.2222 -1.6880 -2.8701
  113OSM    C6S11752   2.512   6.678  10.276 -0.5377  0.2432  0.9724
  113OSM    H6S11753   2.559   6.775  10.246  0.1088  0.0653  1.3969
  113OSM    H6T11754   2.409   6.699  10.311 -0.7599  0.6698  0.0868
  113OSM    C7S11755   2.500   6.576  10.161 -0.2713 -0.3998  0.4637
  113OSM    H7S11756   2.426   6.500  10.192 -1.9733  1.8632  2.3677
  113OSM    H7T11757   2.601   6.534  10.143  0.8616  2.6019 -0.8781
  113OSM    C8S11758   2.441   6.639  10.029 -0.3946 -0.0938 -0.3323
  113OSM    H8S11759   2.469   6.747  10.031 -0.6406 -0.0355  1.3225
  113OSM    H8T11760   2.330   6.631  10.035 -0.4446 -0.8033 -1.7485
  113OSM    C9S11761   2.481   6.554   9.910  0.1283  0.8784  0.3923
  113OSM    H9S11762   2.429   6.457   9.924  2.0271 -0.2652 -0.1278
  113OSM    H9T11763   2.591   6.547   9.901  0.0486  0.0213 -0.0737
  113OSM   C10S11764   2.435   6.612   9.772  0.0704  0.0073 -0.3785
  113OSM   H10S11765   2.445   6.723   9.765 -2.2627  0.2330 -1.1087
  113OSM   H10T11766   2.325   6.597   9.773 -0.5607  3.5597  2.0876
  113OSM   C11S11767   2.493   6.532   9.649 -0.5507 -0.1755  0.5234
  113OSM   H11S11768   2.460   6.427   9.633  1.0475 -0.6558  0.1845
  113OSM   H11T11769   2.604   6.524   9.656 -0.3037  0.7007 -1.7301
  113OSM   C12S11770   2.471   6.604   9.515  0.3469 -0.3455  0.4280
  113OSM   H12S11771   2.522   6.545   9.436  3.8590  2.1941  0.6115
  113OSM   H12T11772   2.507   6.708   9.526  0.4548 -0.1376 -1.5959
  113OSM   C13S11773   2.326   6.621   9.464  0.4640 -0.3954 -0.1989
  113OSM   H13S11774   2.276   6.682   9.542  1.0264  1.0225 -0.9159
  113OSM   H13T11775   2.290   6.516   9.455 -1.6168  0.2201  0.5417
  113OSM   C14S11776   2.314   6.684   9.330 -0.7980  0.2870 -0.7136
  113OSM   H14S11777   2.380   6.629   9.259  1.1236  0.7523  0.6318
  113OSM   H14T11778   2.345   6.790   9.322 -4.0368  1.5650  1.4593
  113OSM   C15S11779   2.166   6.687   9.288 -0.2628 -0.1500  0.5988
  113OSM   H15S11780   2.120   6.735   9.377  2.6659 -0.2023  2.2761
  113OSM   H15T11781   2.128   6.584   9.277 -0.9328  0.1146  0.3810
  113OSM   C16S11782   2.146   6.771   9.159 -0.0906 -0.2122 -0.3312
  113OSM   H16S11783   2.225   6.751   9.082  2.0987  1.7241  1.2699
  113OSM   H16T11784   2.159   6.879   9.183  4.7213 -0.1578 -2.0403
  113OSM   C17S11785   2.005   6.751   9.101  0.5190 -0.3327  0.2074
  113OSM   H17S11786   1.927   6.771   9.178 -0.2810  0.6474 -0.8210
  113OSM   H17T11787   1.996   6.643   9.078  2.1194  0.0067 -2.4352
  113OSM   C18S11788   1.980   6.830   8.975  0.3713 -0.3305  0.9095
  113OSM   H18S11789   2.053   6.806   8.895 -1.1697  0.5002 -0.8137
  113OSM   H18T11790   1.992   6.939   8.993  0.6744 -0.1128 -0.4968
  113OSM   H18U11791   1.882   6.797   8.935  0.3940 -3.2021  2.9014
  113OSM    C1F11792   3.018   6.462  10.326  0.3274  0.0143 -0.0383
  113OSM     OF11793   2.981   6.345  10.334  0.9081  0.9404  0.0888
  113OSM    C2F11794   3.120   6.501  10.230  0.2616 -0.2415  0.9334
  113OSM    H2F11795   3.225   6.484  10.261 -0.2416 -2.6023  1.5253
  113OSM    H2G11796   3.099   6.607  10.205  1.9186 -0.1997 -0.4835
  113OSM    C3F11797   3.102   6.422  10.098  0.9736  0.2836  0.0029
  113OSM    H3F11798   2.996   6.419  10.065  1.1302 -0.3486 -0.4598
  113OSM    H3G11799   3.128   6.315  10.111  0.2111  0.2484  1.4618
  113OSM    C4F11800   3.179   6.475   9.979 -0.9101  0.6161  0.7435
  113OSM    H4F11801   3.272   6.508  10.029 -0.2043  0.9643 -0.7331
  113OSM    H4G11802   3.127   6.562   9.932  0.6278  0.8397 -0.6505
  113OSM    C5F11803   3.210   6.357   9.871 -0.2398  0.0749  0.4611
  113OSM    H5F11804   3.112   6.306   9.861  0.4155 -1.0583 -0.4653
  113OSM    H5G11805   3.277   6.286   9.925  0.3287  0.1750 -0.1065
  113OSM    C6F11806   3.279   6.408   9.743 -0.3413  0.0503 -0.8434
  113OSM    H6F11807   3.380   6.451   9.761 -0.6964  1.2509 -1.6258
  113OSM    H6G11808   3.212   6.484   9.696 -0.7813  1.6490  2.1140
  113OSM    C7F11809   3.289   6.301   9.631 -0.3426 -0.0675  0.0785
  113OSM    H7F11810   3.208   6.225   9.626 -0.3295 -0.3968  3.0929
  113OSM    H7G11811   3.378   6.244   9.663 -0.7478  0.3298  2.0283
  113OSM    C8F11812   3.323   6.353   9.490  0.4107  0.3831  0.3078
  113OSM    H8F11813   3.381   6.268   9.447  2.3932  1.5850  0.5010
  113OSM    H8G11814   3.381   6.447   9.496 -1.3463  1.4136  2.7771
  113OSM    C9F11815   3.202   6.379   9.407 -0.0176 -0.2132  0.2690
  113OSM    H9F11816   3.108   6.401   9.461 -2.5852 -1.8138 -3.1446
  113OSM   C10F11817   3.205   6.389   9.273  0.3294 -0.7855  0.1436
  113OSM   H10F11818   3.113   6.429   9.228  0.6682 -0.3350 -0.1609
  113OSM   C11F11819   3.326   6.367   9.194  0.5589  0.2481  0.8162
  113OSM   H11F11820   3.294   6.324   9.097  1.1586 -0.6668  1.0106
  113OSM   H11G11821   3.395   6.291   9.236  0.0677 -0.8034 -0.2315
  113OSM   C12F11822   3.397   6.492   9.141  0.3073 -0.3108 -0.5652
  113OSM   H12F11823   3.473   6.451   9.071 -1.2655 -2.9181 -0.8512
  113OSM   H12G11824   3.455   6.534   9.226 -2.0101  0.0835  0.9233
  113OSM   C13F11825   3.304   6.596   9.080 -0.0209  0.9874  0.2202
  113OSM   H13F11826   3.269   6.656   9.166 -2.2460 -0.4338  0.3779
  113OSM   H13G11827   3.211   6.549   9.041 -0.0791  1.3157 -0.0426
  113OSM   C14F11828   3.354   6.706   8.992 -0.3950  0.4911  0.0652
  113OSM   H14F11829   3.416   6.670   8.907  0.1122  0.5671  0.3945
  113OSM   H14G11830   3.422   6.768   9.055 -2.3085  1.0610  1.6745
  113OSM   C15F11831   3.245   6.794   8.951  0.1362 -0.2773  0.2544
  113OSM   H15F11832   3.190   6.816   9.045 -0.7040 -0.3510 -0.2109
  113OSM   H15G11833   3.179   6.762   8.868  0.5148  2.9726 -1.4897
  113OSM   C16F11834   3.296   6.934   8.903 -0.0884 -0.9259  0.2638
  113OSM   H16F11835   3.323   7.000   8.989  0.0949 -0.6473 -0.0050
  113OSM   H16G11836   3.207   6.991   8.869  0.4612 -1.1028 -1.5691
  113OSM   C17F11837   3.402   6.946   8.795 -0.4198 -0.2518  0.5125
  113OSM   H17F11838   3.380   6.903   8.695 -0.7419  2.6676 -0.7528
  113OSM   H17G11839   3.494   6.900   8.838 -1.9868 -2.3163  1.8714
  113OSM   C18F11840   3.435   7.092   8.762  0.1568  0.3101  0.5767
  113OSM   H18F11841   3.453   7.147   8.858  0.5999 -2.4012  2.1424
  113OSM   H18G11842   3.359   7.144   8.701  2.0314  2.6283  0.0663
  113OSM   H18H11843   3.532   7.084   8.708  0.3912  0.8407  0.9075
  114OSM      N11844   5.493   2.010  11.386 -0.0609  0.3437  0.3311
  114OSM    C1511845   5.552   2.132  11.449  0.9807 -0.5900 -0.2583
  114OSM   H15A11846   5.570   2.126  11.555 -0.6148 -2.6808 -0.0445
  114OSM   H15B11847   5.473   2.203  11.431  0.6469 -1.4010 -2.2993
  114OSM   H15C11848   5.640   2.164  11.394  1.0112  1.0488  0.6590
  114OSM    C1411849   5.591   1.902  11.400 -0.4326  0.6580 -0.2304
  114OSM   H14A11850   5.635   1.904  11.499 -0.9952 -0.1300  0.0449
  114OSM   H14B11851   5.675   1.916  11.334 -0.2387  1.3997  0.1666
  114OSM   H14C11852   5.549   1.804  11.382  0.4308  0.1797  0.2677
  114OSM    C1311853   5.379   1.977  11.473 -0.1160  0.1147 -0.6270
  114OSM   H13A11854   5.324   1.893  11.434 -1.8194  1.1637 -0.6018
  114OSM   H13B11855   5.300   2.050  11.479  0.3527  0.5056  2.4287
  114OSM   H13C11856   5.419   1.967  11.573 -0.5912 -2.2038 -0.6133
  114OSM    C1211857   5.439   2.035  11.248 -0.7467  1.2179  0.0297
  114OSM   H12A11858   5.402   1.942  11.207  2.8980 -0.7652  0.7871
  114OSM   H12B11859   5.516   2.057  11.176  0.8376  0.5082  1.4355
  114OSM    C1111860   5.328   2.145  11.230  0.0927 -0.4367 -0.4718
  114OSM   H11A11861   5.240   2.117  11.291 -1.2975  3.7783 -0.2330
  114OSM   H11B11862   5.299   2.160  11.124 -2.5445 -0.2469  0.2117
  114OSM      P11863   5.478   2.363  11.186  0.1443  0.1912 -0.2541
  114OSM    O1311864   5.435   2.509  11.187  0.1283  0.4048  0.1476
  114OSM    O1411865   5.617   2.343  11.234  0.4532 -0.0498  0.3033
  114OSM    O1111866   5.465   2.308  11.039  0.4136  0.5137 -0.1245
  114OSM    O1211867   5.382   2.277  11.277  0.1952  0.1271  0.5219
  114OSM    C1S11868   5.575   2.329  10.954 -0.7238 -0.0291 -0.2243
  114OSM    H1S11869   5.673   2.287  10.987 -1.0647 -0.5859  0.0879
  114OSM    H1T11870   5.591   2.438  10.939  0.4112  0.0186  1.0899
  114OSM     NF11871   5.671   2.282  10.736  0.0139 -0.4363 -0.2299
  114OSM    HNF11872   5.688   2.359  10.675 -2.3390 -1.0546 -1.7735
  114OSM    C2S11873   5.545   2.279  10.807 -0.2535 -0.1272 -0.8840
  114OSM    H2S11874   5.504   2.176  10.809 -1.1194  0.2087  1.5943
  114OSM    C3S11875   5.427   2.357  10.743  0.3922 -0.3675 -0.7717
  114OSM    H3S11876   5.455   2.464  10.742  1.5940 -0.6556  0.2295
  114OSM     O311877   5.304   2.342  10.811  0.5696  0.0717  0.5583
  114OSM    HO311878   5.338   2.293  10.886 -1.1390 -0.2924  1.1490
  114OSM    C4S11879   5.404   2.330  10.598  0.6455 -0.2703  0.2562
  114OSM    H4S11880   5.450   2.398  10.525 -1.6876  0.1758 -0.8909
  114OSM    C5S11881   5.331   2.230  10.545 -0.4406  0.7400 -0.4129
  114OSM    H5S11882   5.285   2.150  10.604  0.3817  0.8532  0.4022
  114OSM    C6S11883   5.309   2.213  10.399 -0.6996 -0.3369  0.4726
  114OSM    H6S11884   5.198   2.213  10.388 -0.8593  3.9283  0.0810
  114OSM    H6T11885   5.330   2.107  10.373 -1.2000  0.1435 -2.1923
  114OSM    C7S11886   5.380   2.297  10.284  0.3767  0.3413  0.4191
  114OSM    H7S11887   5.489   2.308  10.302  0.6446  1.8215 -1.6990
  114OSM    H7T11888   5.332   2.397  10.281  1.5944  0.9266 -1.1869
  114OSM    C8S11889   5.349   2.218  10.156 -0.8252  0.2751 -1.0446
  114OSM    H8S11890   5.242   2.192  10.162 -0.4807 -0.7953  1.3359
  114OSM    H8T11891   5.406   2.123  10.162 -0.8776  0.2029 -1.6223
  114OSM    C9S11892   5.395   2.286  10.031  0.0730 -0.2196 -0.3825
  114OSM    H9S11893   5.376   2.395  10.042 -1.3002 -0.3913 -0.7705
  114OSM    H9T11894   5.328   2.260   9.945  1.6189  1.1772 -2.1024
  114OSM   C10S11895   5.539   2.256   9.993 -0.2798 -0.7620 -1.0715
  114OSM   H10S11896   5.547   2.146   9.980  1.7945 -0.9652  1.1188
  114OSM   H10T11897   5.609   2.294  10.071 -0.9442 -1.0562 -0.3052
  114OSM   C11S11898   5.571   2.303   9.849 -0.0658 -0.0182 -0.3060
  114OSM   H11S11899   5.682   2.298   9.838 -0.1772 -1.3248 -1.0859
  114OSM   H11T11900   5.543   2.409   9.834 -0.7687 -0.0741  0.5177
  114OSM   C12S11901   5.523   2.212   9.737  0.1400  0.5773  0.0297
  114OSM   H12S11902   5.413   2.199   9.730  0.2562 -1.0474  0.7731
  114OSM   H12T11903   5.576   2.116   9.753 -1.4863 -0.6856 -1.7125
  114OSM   C13S11904   5.569   2.263   9.598  0.4442  0.0899 -0.5290
  114OSM   H13S11905   5.672   2.303   9.604  0.2390  0.5487  0.0086
  114OSM   H13T11906   5.513   2.354   9.569 -2.1717 -1.1931  0.2038
  114OSM   C14S11907   5.560   2.158   9.483  0.4694 -0.5741  0.2226
  114OSM   H14S11908   5.451   2.148   9.464  0.2850 -1.5994  1.6304
  114OSM   H14T11909   5.609   2.062   9.511  1.0144 -0.9718 -1.9326
  114OSM   C15S11910   5.628   2.198   9.348  0.1275  0.3974  0.2095
  114OSM   H15S11911   5.735   2.222   9.365  0.4552 -1.1319  0.4859
  114OSM   H15T11912   5.577   2.291   9.316  0.4758  0.2687 -0.7448
  114OSM   C16S11913   5.614   2.098   9.237 -0.4154 -0.4092  0.1933
  114OSM   H16S11914   5.508   2.067   9.218 -0.5199 -0.3790  0.7044
  114OSM   H16T11915   5.672   2.009   9.269  1.9160  1.8880  2.8858
  114OSM   C17S11916   5.676   2.159   9.109 -0.2447  0.3431  1.1978
  114OSM   H17S11917   5.783   2.178   9.133 -0.6149  4.3555  0.4349
  114OSM   H17T11918   5.627   2.255   9.082  0.4443 -0.1192 -2.2206
  114OSM   C18S11919   5.663   2.071   8.991 -0.0680 -0.0101 -0.4107
  114OSM   H18S11920   5.716   1.975   9.008 -0.7907 -0.2399  0.6562
  114OSM   H18T11921   5.710   2.124   8.905  0.6610 -1.7658 -1.1302
  114OSM   H18U11922   5.555   2.054   8.972 -0.3885  0.8366  0.5707
  114OSM    C1F11923   5.778   2.198  10.761  0.1418 -0.4851  0.4646
  114OSM     OF11924   5.777   2.114  10.849  0.0571  0.7290 -0.2626
  114OSM    C2F11925   5.900   2.219  10.674 -0.2956  1.1234  0.6117
  114OSM    H2F11926   5.967   2.246  10.759 -1.6807  0.4681  1.9679
  114OSM    H2G11927   5.879   2.312  10.617 -0.7273 -0.3741 -1.7764
  114OSM    C3F11928   5.951   2.092  10.600  1.1623  0.5910  0.1378
  114OSM    H3F11929   5.973   2.003  10.663  0.7458  1.3890  1.4542
  114OSM    H3G11930   6.053   2.119  10.565  0.9913  3.3525  1.4944
  114OSM    C4F11931   5.859   2.048  10.484 -0.6057  0.0466 -0.8054
  114OSM    H4F11932   5.763   2.023  10.535  0.2193 -1.8811 -0.0829
  114OSM    H4G11933   5.903   1.954  10.445 -0.2112  0.1215 -0.5506
  114OSM    C5F11934   5.856   2.162  10.380 -0.0236  0.3677 -0.2606
  114OSM    H5F11935   5.957   2.198  10.349 -0.0909  0.3498 -0.5057
  114OSM    H5G11936   5.798   2.246  10.425  1.0715  0.1918  1.5602
  114OSM    C6F11937   5.791   2.131  10.241 -0.9606 -0.3961  0.0186
  114OSM    H6F11938   5.773   2.219  10.176  0.5691  0.1458  0.2875
  114OSM    H6G11939   5.693   2.083  10.264 -0.0444 -2.3720  0.0257
  114OSM    C7F11940   5.878   2.033  10.156  0.3476  0.1013 -0.8102
  114OSM    H7F11941   5.845   1.932  10.189 -1.9947  1.2366  0.5814
  114OSM    H7G11942   5.986   2.046  10.181 -0.0619  0.8712  0.6788
  114OSM    C8F11943   5.865   2.058  10.009 -0.3467 -0.1694 -0.3954
  114OSM    H8F11944   5.898   2.162   9.990  2.2609 -1.1256 -1.5243
  114OSM    H8G11945   5.762   2.064   9.966  0.0802 -0.9745 -1.5876
  114OSM    C9F11946   5.939   1.948   9.936  0.1979  0.5286 -0.6301
  114OSM    H9F11947   5.949   1.859   9.999  0.3581  1.2455  0.3746
  114OSM   C10F11948   6.016   1.962   9.822  0.9441  0.2159 -0.6155
  114OSM   H10F11949   6.085   1.878   9.802  1.8856  0.9451 -0.4525
  114OSM   C11F11950   6.035   2.084   9.737  0.0329 -0.2627 -0.0275
  114OSM   H11F11951   6.142   2.113   9.737 -0.5427  2.3846 -2.9863
  114OSM   H11G11952   5.971   2.169   9.769  0.7549  0.0134  0.7344
  114OSM   C12F11953   6.006   2.043   9.596 -0.5802  0.1722 -0.4926
  114OSM   H12F11954   5.898   2.018   9.585 -0.3146 -1.6873  0.5458
  114OSM   H12G11955   6.036   1.938   9.573 -0.8126  0.1453 -0.6893
  114OSM   C13F11956   6.037   2.154   9.493 -0.6865 -0.7900  1.1098
  114OSM   H13F11957   6.138   2.196   9.510 -1.5182  0.6004  3.0320
  114OSM   H13G11958   5.959   2.232   9.504  0.5484  0.9371 -1.4096
  114OSM   C14F11959   6.027   2.090   9.354  0.5172  0.5765 -0.2149
  114OSM   H14F11960   5.924   2.051   9.341  0.4884 -1.8954  4.9582
  114OSM   H14G11961   6.085   1.996   9.352 -0.4307 -0.0418  0.6807
  114OSM   C15F11962   6.065   2.192   9.239 -0.6383 -0.3386 -0.2625
  114OSM   H15F11963   6.146   2.265   9.262 -0.1990  0.4369 -3.7317
  114OSM   H15G11964   5.978   2.254   9.211 -0.0803 -0.1802 -1.7150
  114OSM   C16F11965   6.110   2.128   9.112 -0.3964 -0.2002  0.6875
  114OSM   H16F11966   6.088   2.019   9.108  0.1512 -0.4698  3.2104
  114OSM   H16G11967   6.220   2.139   9.098 -0.9862  1.8637 -5.4116
  114OSM   C17F11968   6.041   2.187   8.990  0.0841 -0.2981  0.1504
  114OSM   H17F11969   6.046   2.298   8.992 -2.0816 -0.1585  1.6892
  114OSM   H17G11970   5.932   2.169   9.001  0.0591  0.2560  0.9025
  114OSM   C18F11971   6.095   2.141   8.859 -0.3808 -0.2507 -0.2888
  114OSM   H18F11972   6.094   2.030   8.855  1.9545 -0.2748 -1.6342
  114OSM   H18G11973   6.199   2.175   8.847 -0.8919  1.2022 -0.7303
  114OSM   H18H11974   6.046   2.193   8.775 -0.2728  0.6021  0.1659
  115OSM      N11975   0.612   2.858  11.369 -0.1136 -0.3081 -0.3082
  115OSM    C1511976   0.751   2.805  11.386 -0.3175 -0.3921  0.5157
  115OSM   H15A11977   0.767   2.727  11.313 -1.2325 -0.9272  0.8741
  115OSM   H15B11978   0.772   2.763  11.483  2.4533  0.9317  0.6167
  115OSM   H15C11979   0.822   2.886  11.375  0.3791 -1.1163 -0.5480
  115OSM    C1411980   0.513   2.753  11.412 -1.0161  0.6258  0.3703
  115OSM   H14A11981   0.519   2.668  11.345  1.5179  0.0014  1.3058
  115OSM   H14B11982   0.415   2.795  11.390 -0.9763  1.5105  1.7752
  115OSM   H14C11983   0.518   2.719  11.514 -0.2128  0.7744  0.3885
  115OSM    C1311984   0.605   2.980  11.455 -0.9697  0.2849  0.0515
  115OSM   H13A11985   0.646   2.957  11.553 -1.6295  1.0832  0.5273
  115OSM   H13B11986   0.504   3.017  11.461 -0.8381  0.7171 -0.4109
  115OSM   H13C11987   0.660   3.060  11.409 -1.2574  0.2821 -0.2994
  115OSM    C1211988   0.589   2.893  11.223  0.4556  0.1199  0.5138
  115OSM   H12A11989   0.492   2.938  11.212  0.5033 -0.1283 -1.0339
  115OSM   H12B11990   0.576   2.807  11.160  0.3797 -0.0686  0.7871
  115OSM    C1111991   0.696   2.985  11.156  0.1070  0.0250  0.4788
  115OSM   H11A11992   0.659   2.984  11.051  0.1216 -0.2678  0.4756
  115OSM   H11B11993   0.799   2.942  11.165  0.7334  1.5235  0.8062
  115OSM      P11994   0.813   3.211  11.221 -0.2280  0.1856 -0.3793
  115OSM    O1311995   0.782   3.312  11.326 -1.0288  0.3834 -0.6313
  115OSM    O1411996   0.938   3.132  11.224  0.4074  0.5494 -0.1073
  115OSM    O1111997   0.810   3.280  11.078 -0.0757 -0.0976  0.5001
  115OSM    O1211998   0.690   3.120  11.206 -0.2921 -0.2148 -0.5484
  115OSM    C1S11999   0.690   3.353  11.053 -0.1782 -0.3327 -0.1387
  115OSM    H1S12000   0.695   3.446  11.112  1.8701 -0.1473 -0.5116
  115OSM    H1T12001   0.594   3.304  11.081 -0.6526  1.2315  1.0817
  115OSM     NF12002   0.609   3.516  10.898  0.7940 -0.2542  0.1195
  115OSM    HNF12003   0.521   3.490  10.861  0.1238  2.7397 -0.6459
  115OSM    C2S12004   0.703   3.405  10.911 -0.0147 -0.6473 -0.0009
  115OSM    H2S12005   0.804   3.445  10.886 -0.3219 -1.6561 -3.4271
  115OSM    C3S12006   0.682   3.294  10.811 -0.6629  0.5629  0.3842
  115OSM    H3S12007   0.580   3.258  10.837 -1.1264  0.6844 -1.1350
  115OSM     O312008   0.779   3.184  10.823 -0.1176  0.5711 -0.9148
  115OSM    HO312009   0.809   3.185  10.914  2.9265 -4.6766 -1.4741
  115OSM    C4S12010   0.678   3.340  10.665 -0.0083  0.6886  0.9354
  115OSM    H4S12011   0.579   3.370  10.628 -0.2703 -0.4183  0.7053
  115OSM    C5S12012   0.783   3.346  10.583  0.1761  0.0025 -0.8502
  115OSM    H5S12013   0.881   3.321  10.626 -0.3624  0.7543  0.8973
  115OSM    C6S12014   0.784   3.398  10.445  0.4819 -0.2952 -0.1075
  115OSM    H6S12015   0.851   3.339  10.379 -0.3265 -1.1777 -0.1587
  115OSM    H6T12016   0.828   3.500  10.449 -1.5599  0.8045 -2.6585
  115OSM    C7S12017   0.644   3.407  10.377 -0.3647  0.2151  0.1530
  115OSM    H7S12018   0.576   3.453  10.452  0.3771 -0.2643  1.1379
  115OSM    H7T12019   0.619   3.299  10.363  1.2487 -0.0601 -0.8465
  115OSM    C8S12020   0.643   3.478  10.244  0.0326 -0.6808 -0.2296
  115OSM    H8S12021   0.704   3.567  10.270  0.5715 -1.5275  1.5796
  115OSM    H8T12022   0.535   3.498  10.224 -0.5948 -3.9476 -0.6448
  115OSM    C9S12023   0.702   3.399  10.132 -0.4605 -0.0399  0.4177
  115OSM    H9S12024   0.653   3.300  10.118  1.1708 -1.0737  1.6648
  115OSM    H9T12025   0.809   3.385  10.156  0.3218 -0.7867 -2.9570
  115OSM   C10S12026   0.688   3.471   9.993  1.1347 -0.3464 -0.4942
  115OSM   H10S12027   0.724   3.573  10.015  1.1975 -1.1553  4.0586
  115OSM   H10T12028   0.578   3.469   9.978  0.9721  0.2069  0.5474
  115OSM   C11S12029   0.752   3.410   9.875  0.0403 -0.3658  0.5464
  115OSM   H11S12030   0.732   3.303   9.855  1.4927 -0.5861  0.1515
  115OSM   H11T12031   0.862   3.419   9.875 -0.0609  1.8299 -1.3079
  115OSM   C12S12032   0.696   3.484   9.748 -0.2291  0.7724  0.0133
  115OSM   H12S12033   0.701   3.595   9.762 -0.1383  1.0272 -1.7698
  115OSM   H12T12034   0.594   3.451   9.724 -0.5110  0.7028  1.2269
  115OSM   C13S12035   0.778   3.454   9.622  0.1299 -0.2931  1.0935
  115OSM   H13S12036   0.721   3.373   9.572 -0.7533  0.9262  0.0367
  115OSM   H13T12037   0.879   3.418   9.650  0.8248  0.5594 -0.1699
  115OSM   C14S12038   0.792   3.572   9.526  0.4799  0.3231 -0.1519
  115OSM   H14S12039   0.894   3.581   9.483  0.5120  2.0242  0.1997
  115OSM   H14T12040   0.772   3.666   9.582 -0.3423 -0.6228  1.2133
  115OSM   C15S12041   0.688   3.570   9.415  0.0862  0.2371  0.9339
  115OSM   H15S12042   0.581   3.574   9.446 -0.5077  1.6487 -1.1223
  115OSM   H15T12043   0.703   3.480   9.352  0.6023  0.7927  0.2518
  115OSM   C16S12044   0.704   3.696   9.330  0.3569  0.0538  0.1952
  115OSM   H16S12045   0.809   3.712   9.297  0.0657  2.0033  0.1105
  115OSM   H16T12046   0.668   3.781   9.391  0.9673  1.1955 -0.9876
  115OSM   C17S12047   0.608   3.689   9.212 -0.0977 -0.2194  0.2882
  115OSM   H17S12048   0.506   3.663   9.249 -0.8883  0.5619 -1.2340
  115OSM   H17T12049   0.650   3.613   9.143 -0.9320  0.8917 -1.5283
  115OSM   C18S12050   0.597   3.828   9.146 -0.8541  1.0727 -0.3477
  115OSM   H18S12051   0.533   3.899   9.202  0.8920  1.9700  0.5855
  115OSM   H18T12052   0.564   3.807   9.042 -0.5273 -0.7735 -0.1274
  115OSM   H18U12053   0.704   3.860   9.139 -1.3867  2.8204 -0.9328
  115OSM    C1F12054   0.634   3.642  10.937  0.3847  0.2025 -0.1865
  115OSM     OF12055   0.734   3.675  10.997  0.9286 -1.0521 -0.0231
  115OSM    C2F12056   0.510   3.734  10.932  0.2759 -0.1939 -0.2386
  115OSM    H2F12057   0.487   3.799  11.019 -0.0630  1.5508 -1.5705
  115OSM    H2G12058   0.418   3.684  10.895  0.3649 -1.0225  0.6150
  115OSM    C3F12059   0.544   3.839  10.821  0.3563  0.1717 -0.4645
  115OSM    H3F12060   0.614   3.918  10.855 -1.9674  2.7629 -1.3334
  115OSM    H3G12061   0.455   3.899  10.792 -0.0358 -0.6225 -0.9491
  115OSM    C4F12062   0.590   3.774  10.689  0.3022 -0.7200 -0.3465
  115OSM    H4F12063   0.511   3.702  10.658 -1.3901  1.2395 -0.8590
  115OSM    H4G12064   0.692   3.732  10.700  0.6174  0.5200  2.5827
  115OSM    C5F12065   0.593   3.871  10.572  0.4760 -0.0155 -0.4243
  115OSM    H5F12066   0.664   3.952  10.598  1.0091 -0.2745 -1.0431
  115OSM    H5G12067   0.499   3.930  10.575  0.7086  0.3777  2.6200
  115OSM    C6F12068   0.628   3.815  10.433  0.6283  0.2724  0.1990
  115OSM    H6F12069   0.556   3.742  10.389  0.0226  1.3206 -0.5750
  115OSM    H6G12070   0.723   3.758  10.433  0.1767 -0.5080 -1.0454
  115OSM    C7F12071   0.632   3.929  10.329 -0.2774 -0.2710 -0.1711
  115OSM    H7F12072   0.732   3.978  10.337 -1.1897  1.5261  0.9772
  115OSM    H7G12073   0.556   4.004  10.357 -1.7266 -1.6674 -0.2572
  115OSM    C8F12074   0.614   3.878  10.182  0.0021  0.1289 -0.5022
  115OSM    H8F12075   0.517   3.825  10.167 -1.2560  2.9622 -3.9477
  115OSM    H8G12076   0.692   3.803  10.159 -1.3825 -1.1061 -1.4091
  115OSM    C9F12077   0.626   3.998  10.088  0.5486  0.2808 -0.2784
  115OSM    H9F12078   0.595   4.093  10.137  0.9665 -1.0245  2.7614
  115OSM   C10F12079   0.661   4.001   9.952 -0.3514  0.2452 -0.3614
  115OSM   H10F12080   0.667   4.100   9.905  0.2907  0.4471  0.1412
  115OSM   C11F12081   0.694   3.879   9.866 -0.0068 -0.1996 -0.3624
  115OSM   H11F12082   0.629   3.846   9.781  0.9665 -2.7696 -0.1857
  115OSM   H11G12083   0.709   3.783   9.920 -1.7546  1.0280  2.5355
  115OSM   C12F12084   0.825   3.917   9.794 -0.3656 -0.2568  0.7518
  115OSM   H12F12085   0.863   3.816   9.768  0.2625 -0.1196  1.1339
  115OSM   H12G12086   0.903   3.961   9.858  1.5231  0.6611 -1.9813
  115OSM   C13F12087   0.806   4.007   9.672 -0.4550  0.1122 -0.8502
  115OSM   H13F12088   0.772   4.108   9.704 -0.2947  0.5678 -2.0425
  115OSM   H13G12089   0.732   3.950   9.611  0.8371 -1.5271 -0.9467
  115OSM   C14F12090   0.927   4.016   9.583 -1.0069  0.6322 -0.4865
  115OSM   H14F12091   0.882   4.067   9.495 -2.0793 -0.8100 -0.8122
  115OSM   H14G12092   0.961   3.913   9.559 -1.1205  0.5452 -0.2749
  115OSM   C15F12093   1.055   4.087   9.638 -0.8414 -0.2658 -0.5074
  115OSM   H15F12094   1.093   4.025   9.722 -2.3382  0.5073  0.7974
  115OSM   H15G12095   1.028   4.187   9.679 -0.6844 -0.0130 -1.0129
  115OSM   C16F12096   1.157   4.119   9.522  0.3315  0.0309 -0.1956
  115OSM   H16F12097   1.247   4.157   9.574 -1.6645  1.2391  2.6005
  115OSM   H16G12098   1.129   4.205   9.458 -1.1783  0.2985  0.7695
  115OSM   C17F12099   1.194   4.000   9.438  0.3599  0.3214  0.3480
  115OSM   H17F12100   1.100   3.960   9.395  1.5528  0.3692 -2.5240
  115OSM   H17G12101   1.239   3.921   9.502 -0.7660 -0.6811 -0.0574
  115OSM   C18F12102   1.298   4.038   9.332 -0.3206  0.1608 -0.0141
  115OSM   H18F12103   1.384   4.089   9.382 -1.0265  2.5244 -1.0936
  115OSM   H18G12104   1.260   4.118   9.267  0.7214  0.7077  0.0212
  115OSM   H18H12105   1.336   3.951   9.274 -2.5094 -0.3372 -0.7950
  116OSM      N12106   5.242   5.263  11.057 -0.0477 -0.1990 -0.3461
  116OSM    C1512107   5.358   5.252  10.968 -0.0222  0.5573 -0.5455
  116OSM   H15A12108   5.335   5.257  10.863 -0.0401 -1.5862 -0.6879
  116OSM   H15B12109   5.403   5.154  10.979 -1.7621 -0.0722  2.0584
  116OSM   H15C12110   5.441   5.317  10.993  2.1897 -1.8665 -1.0614
  116OSM    C1412111   5.293   5.269  11.201 -0.7574 -0.0969 -0.1922
  116OSM   H14A12112   5.218   5.287  11.276 -1.0879  3.0693 -1.1402
  116OSM   H14B12113   5.362   5.351  11.210 -1.6426  0.4130  2.8197
  116OSM   H14C12114   5.352   5.183  11.227 -0.2546  0.5301  0.7704
  116OSM    C1312115   5.170   5.382  11.027  0.5228  0.4652  0.6930
  116OSM   H13A12116   5.123   5.382  10.930  0.2746  1.0029  0.8082
  116OSM   H13B12117   5.234   5.467  11.011  0.3071  0.4927 -0.0681
  116OSM   H13C12118   5.089   5.405  11.095 -0.4665  1.7752 -0.8591
  116OSM    C1212119   5.148   5.146  11.052 -0.4632  0.1668  0.0185
  116OSM   H12A12120   5.206   5.059  11.080 -0.1615  1.0774  2.5099
  116OSM   H12B12121   5.120   5.133  10.949  2.9231  1.9205 -1.2715
  116OSM    C1112122   5.019   5.136  11.137 -0.8256 -0.1226 -0.1333
  116OSM   H11A12123   5.045   5.135  11.246  1.6457 -1.0253 -0.6599
  116OSM   H11B12124   4.974   5.036  11.121 -5.0677  1.8667 -2.3795
  116OSM      P12125   4.831   5.227  10.985 -0.1936 -0.2464 -0.0395
  116OSM    O1312126   4.717   5.143  11.035 -0.0087 -0.1196  0.3506
  116OSM    O1412127   4.795   5.365  10.939  0.0694  0.2845 -0.3315
  116OSM    O1112128   4.901   5.145  10.870  0.0058 -0.2433 -0.0336
  116OSM    O1212129   4.925   5.239  11.110  0.3007  0.7256  0.0885
  116OSM    C1S12130   4.855   5.172  10.740  0.0502  0.1344  0.0984
  116OSM    H1S12131   4.887   5.275  10.712 -1.4759  0.6005 -0.0004
  116OSM    H1T12132   4.746   5.153  10.729 -0.0074 -1.5932  2.7620
  116OSM     NF12133   4.883   5.128  10.503 -0.0692  0.0722 -0.3819
  116OSM    HNF12134   4.814   5.088  10.443 -1.0174  3.4743 -1.8052
  116OSM    C2S12135   4.911   5.073  10.637  0.5706  0.0968 -0.5035
  116OSM    H2S12136   5.019   5.063  10.661  0.3257 -2.7164 -0.3061
  116OSM    C3S12137   4.844   4.927  10.660 -0.5559 -0.3411 -0.6627
  116OSM    H3S12138   4.733   4.917  10.657 -0.4129 -2.4797 -0.8276
  116OSM     O312139   4.878   4.869  10.786  0.2279  0.2624 -0.3047
  116OSM    HO312140   4.918   4.939  10.839 -3.6441  0.2388  3.1768
  116OSM    C4S12141   4.895   4.839  10.552  0.5707  0.2039  0.6485
  116OSM    H4S12142   5.002   4.863  10.537  1.1229 -0.3616  3.1710
  116OSM    C5S12143   4.828   4.748  10.478  0.8446 -0.2356  0.3066
  116OSM    H5S12144   4.718   4.741  10.479  0.7984  0.1326 -0.7110
  116OSM    C6S12145   4.895   4.669  10.370  0.1347  0.3421  0.8869
  116OSM    H6S12146   4.842   4.573  10.351 -1.6021  1.2110  1.1073
  116OSM    H6T12147   4.999   4.647  10.401  0.0628 -0.5064  0.5533
  116OSM    C7S12148   4.905   4.758  10.233  0.0565 -0.6427 -0.3129
  116OSM    H7S12149   4.957   4.854  10.253  1.5008 -1.7820  1.6692
  116OSM    H7T12150   4.800   4.782  10.203  0.2490  4.2206  1.9239
  116OSM    C8S12151   4.976   4.691  10.118 -0.6847 -0.3197 -0.9592
  116OSM    H8S12152   5.042   4.613  10.162 -1.1034  0.6186  1.4603
  116OSM    H8T12153   5.041   4.758  10.059  0.3860 -1.1665 -0.7793
  116OSM    C9S12154   4.882   4.623  10.015  0.9086 -0.2262 -0.4156
  116OSM    H9S12155   4.835   4.709   9.962  0.0195 -0.2554  0.3045
  116OSM    H9T12156   4.797   4.564  10.057  0.7160 -0.1986 -0.7594
  116OSM   C10S12157   4.965   4.538   9.912 -0.2974 -0.2647  0.2524
  116OSM   H10S12158   5.003   4.448   9.965  0.1027  0.7233  1.7039
  116OSM   H10T12159   5.045   4.608   9.878  0.0083 -1.6915 -2.1990
  116OSM   C11S12160   4.890   4.506   9.781  0.6739 -1.1724 -0.1653
  116OSM   H11S12161   4.855   4.600   9.732  0.2064 -1.3717 -0.2172
  116OSM   H11T12162   4.804   4.446   9.818  0.0645  0.7875  1.8149
  116OSM   C12S12163   4.975   4.431   9.668  0.7426 -0.1106 -0.6010
  116OSM   H12S12164   4.962   4.327   9.705 -1.6934  0.4771  0.3972
  116OSM   H12T12165   5.077   4.474   9.657  0.7431  0.4006  1.0544
  116OSM   C13S12166   4.908   4.440   9.527 -0.2503  0.5006 -0.4547
  116OSM   H13S12167   4.932   4.540   9.486  0.5492  0.0307 -1.1735
  116OSM   H13T12168   4.798   4.431   9.536 -0.2610  1.6079  0.8014
  116OSM   C14S12169   4.958   4.326   9.429  0.0000  0.5359  0.4230
  116OSM   H14S12170   4.952   4.227   9.481 -0.8398  1.8825  3.0908
  116OSM   H14T12171   5.063   4.353   9.406  0.0091  0.5654  0.5015
  116OSM   C15S12172   4.890   4.328   9.291 -0.4930  0.0597  0.1185
  116OSM   H15S12173   4.909   4.421   9.232  1.5783  0.3571  1.1929
  116OSM   H15T12174   4.780   4.312   9.301 -0.2752  0.2496  4.1399
  116OSM   C16S12175   4.951   4.206   9.200  0.3287  0.4210 -0.2213
  116OSM   H16S12176   4.927   4.105   9.239 -1.0649  1.8152  2.8451
  116OSM   H16T12177   5.061   4.223   9.205  0.4409 -0.6500  2.1064
  116OSM   C17S12178   4.914   4.215   9.054  0.4724 -0.7239  0.3548
  116OSM   H17S12179   4.914   4.321   9.020  0.6168 -0.1288  2.0943
  116OSM   H17T12180   4.810   4.176   9.051  0.6400 -1.2330  0.9402
  116OSM   C18S12181   5.012   4.138   8.977 -0.4433  0.1650 -0.2152
  116OSM   H18S12182   5.108   4.191   8.993 -1.5709  2.4243 -0.5358
  116OSM   H18T12183   4.998   4.150   8.868  2.0408 -0.9754 -0.7182
  116OSM   H18U12184   5.012   4.033   9.014  0.0877  0.8509  1.8734
  116OSM    C1F12185   4.944   5.229  10.460  0.4794  0.2844  0.8768
  116OSM     OF12186   5.038   5.279  10.518  0.5386  0.2541  0.1613
  116OSM    C2F12187   4.887   5.289  10.333  0.0056  0.1304  0.2587
  116OSM    H2F12188   4.825   5.380  10.350  0.7955  0.3768  2.0678
  116OSM    H2G12189   4.820   5.220  10.277 -2.7103  1.2200  1.9536
  116OSM    C3F12190   5.005   5.332  10.228  0.6242  0.3863  0.8896
  116OSM    H3F12191   5.080   5.252  10.211 -0.6483 -0.3131 -2.0225
  116OSM    H3G12192   5.053   5.428  10.253 -0.8955  1.8160 -1.3448
  116OSM    C4F12193   4.934   5.357  10.092 -0.0509 -0.0508 -0.1568
  116OSM    H4F12194   4.879   5.453  10.090 -0.4685 -0.2943 -0.4467
  116OSM    H4G12195   4.855   5.281  10.076  0.8593 -1.3915  1.3840
  116OSM    C5F12196   5.028   5.364   9.969  0.0604  0.4291 -0.2841
  116OSM    H5F12197   5.100   5.447   9.977 -2.3801  2.5618  1.1340
  116OSM    H5G12198   4.965   5.396   9.883  1.4587  3.3282 -0.3469
  116OSM    C6F12199   5.106   5.235   9.939  0.2251  0.0215 -0.6571
  116OSM    H6F12200   5.150   5.182  10.026  1.1003  1.2022 -0.3525
  116OSM    H6G12201   5.201   5.259   9.887  0.6051  0.3646  0.1855
  116OSM    C7F12202   5.025   5.133   9.864  0.2594  0.1189  0.0503
  116OSM    H7F12203   4.968   5.175   9.779  2.0163  0.2436 -1.1361
  116OSM    H7G12204   4.948   5.088   9.929  0.9300  2.2969  2.5062
  116OSM    C8F12205   5.109   5.006   9.827 -0.9665  0.3448  0.0428
  116OSM    H8F12206   5.162   4.962   9.914 -0.3992  1.1145  0.0918
  116OSM    H8G12207   5.188   5.034   9.754 -1.1396 -0.6254 -0.5298
  116OSM    C9F12208   5.024   4.892   9.776 -0.2355 -0.7607  0.6154
  116OSM    H9F12209   4.973   4.829   9.850 -1.6526  0.9467  1.1723
  116OSM   C10F12210   5.009   4.863   9.645 -0.1008  0.2043 -0.0929
  116OSM   H10F12211   4.945   4.779   9.615 -0.5250  1.2853 -2.5237
  116OSM   C11F12212   5.075   4.936   9.534 -0.5083 -0.0458 -0.3070
  116OSM   H11F12213   5.092   4.861   9.454 -0.5714  0.3240 -0.6698
  116OSM   H11G12214   5.176   4.976   9.555 -0.0912 -1.7343  1.1290
  116OSM   C12F12215   4.980   5.044   9.486  0.4816 -0.1184  0.1205
  116OSM   H12F12216   4.973   5.119   9.567 -0.2639  3.5416 -3.0405
  116OSM   H12G12217   4.878   5.002   9.471  0.8722 -0.9275 -0.3359
  116OSM   C13F12218   5.012   5.134   9.370 -0.0371 -0.5571 -0.1708
  116OSM   H13F12219   5.122   5.146   9.360 -0.2675  0.1013 -2.5997
  116OSM   H13G12220   4.977   5.240   9.380  0.5190 -0.3601 -0.2991
  116OSM   C14F12221   4.941   5.084   9.249 -0.5211  0.4343  0.5217
  116OSM   H14F12222   4.832   5.100   9.266 -0.1857  0.6569  2.7274
  116OSM   H14G12223   4.958   4.974   9.243  1.5287  0.7652 -0.6103
  116OSM   C15F12224   4.988   5.151   9.121  0.3190  0.0307 -0.2370
  116OSM   H15F12225   5.096   5.125   9.116  0.8366  1.5085  1.7807
  116OSM   H15G12226   4.984   5.260   9.143  3.0758 -0.2746  2.5937
  116OSM   C16F12227   4.907   5.100   8.998 -0.7315 -0.2333 -0.0072
  116OSM   H16F12228   4.804   5.143   9.002 -1.0754 -0.7170 -2.2999
  116OSM   H16G12229   4.891   4.993   9.022 -2.8446  0.4615  2.0857
  116OSM   C17F12230   4.990   5.104   8.869 -0.9365 -0.4529  0.0977
  116OSM   H17F12231   5.071   5.028   8.867  1.6291  2.0648  1.4411
  116OSM   H17G12232   5.044   5.201   8.877 -0.7225 -0.2371 -2.8627
  116OSM   C18F12233   4.909   5.104   8.743 -0.1475  0.3482  0.7527
  116OSM   H18F12234   4.861   5.004   8.738 -0.8524  0.7087 -0.0486
  116OSM   H18G12235   4.969   5.126   8.653  3.1246 -1.9530  2.1778
  116OSM   H18H12236   4.830   5.182   8.739 -3.0509 -2.3649  0.6596
  117OSM      N12237   2.503   5.669  11.082 -0.2287  1.0081  0.7022
  117OSM    C1512238   2.438   5.536  11.106  0.1035 -0.1907 -0.8375
  117OSM   H15A12239   2.367   5.506  11.031  0.0375 -3.0049  0.2157
  117OSM   H15B12240   2.400   5.529  11.207  2.4823 -2.7517  0.0047
  117OSM   H15C12241   2.516   5.462  11.096  1.6524  1.4674 -1.6341
  117OSM    C1412242   2.416   5.777  11.131 -0.5465  0.7174  0.6210
  117OSM   H14A12243   2.398   5.769  11.237  0.9686 -1.6533  0.7724
  117OSM   H14B12244   2.317   5.769  11.089  0.1350  2.8889 -1.6608
  117OSM   H14C12245   2.456   5.873  11.102  0.2260 -0.2250 -1.6347
  117OSM    C1312246   2.633   5.674  11.153  0.3836 -0.2556 -0.0245
  117OSM   H13A12247   2.616   5.684  11.260 -2.0176  0.0441 -0.3788
  117OSM   H13B12248   2.692   5.759  11.121  0.4555 -0.4658 -0.4529
  117OSM   H13C12249   2.698   5.593  11.125 -0.4419 -0.9790  0.1205
  117OSM    C1212250   2.531   5.688  10.929  0.6292  0.6610  1.7719
  117OSM   H12A12251   2.436   5.690  10.879  0.8620 -0.2319  1.2749
  117OSM   H12B12252   2.576   5.596  10.895 -0.5852  0.4691  0.6011
  117OSM    C1112253   2.601   5.812  10.884 -0.6472 -0.2893  0.7275
  117OSM   H11A12254   2.530   5.896  10.894  1.0528  1.7123 -2.4262
  117OSM   H11B12255   2.602   5.811  10.773  1.1503 -0.2615  0.7219
  117OSM      P12256   2.783   5.977  10.976 -0.3249 -0.3131  0.4852
  117OSM    O1312257   2.703   6.046  11.078  0.3404 -0.5092 -0.2937
  117OSM    O1412258   2.928   5.965  11.007 -0.2055 -0.0740 -0.1217
  117OSM    O1112259   2.768   6.059  10.840  0.0365 -0.2050 -0.1025
  117OSM    O1212260   2.733   5.830  10.940  0.2743  0.4649 -0.2804
  117OSM    C1S12261   2.873   6.081  10.751  0.3561 -0.5159 -0.3136
  117OSM    H1S12262   2.949   6.000  10.754  0.9591 -0.0424  4.4963
  117OSM    H1T12263   2.930   6.172  10.779 -0.9396  0.5270 -0.9562
  117OSM     NF12264   2.932   6.104  10.522  0.4549 -0.2127 -0.5901
  117OSM    HNF12265   2.953   6.197  10.492  0.2004  0.3624  0.8843
  117OSM    C2S12266   2.817   6.089  10.606  0.4957 -0.2507 -0.3986
  117OSM    H2S12267   2.763   5.996  10.577  3.0720 -1.5019 -1.5489
  117OSM    C3S12268   2.709   6.207  10.600 -0.4124  0.0625 -0.6529
  117OSM    H3S12269   2.771   6.297  10.620  0.4845 -0.5585 -0.5555
  117OSM     O312270   2.608   6.200  10.704 -0.6693  0.4229  0.2224
  117OSM    HO312271   2.652   6.150  10.773 -0.7597 -2.3130 -1.5563
  117OSM    C4S12272   2.660   6.223  10.454 -0.2278 -0.6263 -0.4870
  117OSM    H4S12273   2.739   6.263  10.389  1.8484 -2.8008  0.5559
  117OSM    C5S12274   2.546   6.180  10.396 -0.0053 -0.4013 -0.3766
  117OSM    H5S12275   2.476   6.118  10.454  1.7870 -1.3578  0.8723
  117OSM    C6S12276   2.532   6.202  10.247  0.8272 -0.6781  0.2603
  117OSM    H6S12277   2.451   6.273  10.221  0.3440 -1.3024  0.0391
  117OSM    H6T12278   2.503   6.105  10.201  0.1592  0.5741 -2.0873
  117OSM    C7S12279   2.658   6.245  10.164  0.1869  1.2352 -0.2383
  117OSM    H7S12280   2.744   6.182  10.194 -1.2006  0.7786  3.3453
  117OSM    H7T12281   2.681   6.353  10.171 -1.6299  1.7629 -1.5054
  117OSM    C8S12282   2.642   6.217  10.013  0.4535  0.1166 -0.8981
  117OSM    H8S12283   2.551   6.272   9.981  0.2708 -0.0036 -0.5892
  117OSM    H8T12284   2.619   6.108  10.008 -0.6611  0.2648  0.4451
  117OSM    C9S12285   2.756   6.254   9.929  0.2740 -0.5917  0.2313
  117OSM    H9S12286   2.856   6.210   9.949  0.8379 -0.2722 -1.6383
  117OSM    H9T12287   2.772   6.360   9.956  0.9514 -0.4967 -0.4883
  117OSM   C10S12288   2.715   6.212   9.791 -0.4323 -0.0201  0.2008
  117OSM   H10S12289   2.613   6.247   9.763 -0.8926 -0.4384  1.3026
  117OSM   H10T12290   2.718   6.101   9.786 -0.9137  0.0012 -1.0324
  117OSM   C11S12291   2.797   6.262   9.670 -0.7158 -0.0622  0.8522
  117OSM   H11S12292   2.906   6.277   9.685  0.0389 -3.0903 -0.7302
  117OSM   H11T12293   2.753   6.362   9.647 -0.1781  0.0582  0.3174
  117OSM   C12S12294   2.777   6.173   9.544 -0.1130 -0.1327 -0.3706
  117OSM   H12S12295   2.667   6.159   9.537 -0.1855 -0.3515  0.9709
  117OSM   H12T12296   2.834   6.078   9.552  0.9615  0.0470 -3.9666
  117OSM   C13S12297   2.828   6.243   9.413 -0.4353 -0.5820 -0.4150
  117OSM   H13S12298   2.933   6.274   9.431 -0.9496  2.0131 -1.4794
  117OSM   H13T12299   2.779   6.342   9.405  1.4980  0.3154 -1.9425
  117OSM   C14S12300   2.796   6.183   9.274 -0.7542 -0.7094 -0.5145
  117OSM   H14S12301   2.693   6.141   9.279 -0.4385 -1.7092 -1.8761
  117OSM   H14T12302   2.860   6.095   9.253 -1.2342 -1.5111  1.2474
  117OSM   C15S12303   2.815   6.285   9.167 -0.2416  0.7424 -0.0663
  117OSM   H15S12304   2.921   6.317   9.170  0.1563 -0.5849  1.1372
  117OSM   H15T12305   2.759   6.380   9.181  0.8703  1.2696  0.9635
  117OSM   C16S12306   2.771   6.234   9.031 -0.5189  0.0157  0.1832
  117OSM   H16S12307   2.781   6.320   8.961 -1.4282 -0.2547 -0.3021
  117OSM   H16T12308   2.665   6.201   9.043 -0.7828 -0.3358 -2.5000
  117OSM   C17S12309   2.853   6.116   8.972  0.2353  0.3594  0.4325
  117OSM   H17S12310   2.836   6.022   9.029  3.7514  0.1315  1.3570
  117OSM   H17T12311   2.961   6.124   8.995  0.3640 -0.8749  0.3501
  117OSM   C18S12312   2.835   6.088   8.823 -0.2868 -0.0728  0.7706
  117OSM   H18S12313   2.883   6.176   8.775 -0.4546 -1.5826 -2.4226
  117OSM   H18T12314   2.729   6.083   8.790  0.2438  0.2578 -1.0746
  117OSM   H18U12315   2.893   5.998   8.793  1.7921  1.3640  0.2980
  117OSM    C1F12316   3.018   6.000  10.488  0.8802  0.2641 -0.2024
  117OSM     OF12317   2.977   5.880  10.503 -0.1982 -0.3304 -0.1687
  117OSM    C2F12318   3.151   6.039  10.429 -0.3794  0.4918  0.0761
  117OSM    H2F12319   3.231   6.035  10.505 -1.7336  0.9213  1.5883
  117OSM    H2G12320   3.142   6.145  10.396 -1.1089  0.2418 -0.5596
  117OSM    C3F12321   3.185   5.951  10.306  0.0573  0.6398  0.2533
  117OSM    H3F12322   3.150   5.846  10.321 -0.6992  0.6344 -1.3175
  117OSM    H3G12323   3.296   5.941  10.305 -0.1050 -1.9186  1.1985
  117OSM    C4F12324   3.142   5.999  10.170  0.3248  0.0812  0.3827
  117OSM    H4F12325   3.142   6.110  10.167  1.9647  0.0881 -1.0049
  117OSM    H4G12326   3.035   5.973  10.155 -0.1079  2.3926 -1.1853
  117OSM    C5F12327   3.202   5.933  10.045  0.0455 -0.0516  0.2753
  117OSM    H5F12328   3.177   5.825  10.037 -1.2463  0.1953  0.6573
  117OSM    H5G12329   3.307   5.965  10.029  0.2290 -1.9010 -3.1271
  117OSM    C6F12330   3.125   5.989   9.924 -0.0963 -0.6473 -0.5926
  117OSM    H6F12331   3.128   6.100   9.913 -1.4378 -0.3975  1.0834
  117OSM    H6G12332   3.021   5.977   9.961  0.3593  1.5003  1.6745
  117OSM    C7F12333   3.149   5.913   9.788  0.0075 -0.3858 -0.7417
  117OSM    H7F12334   3.069   5.925   9.712  0.6617  0.3818 -1.3241
  117OSM    H7G12335   3.133   5.806   9.813 -0.4334 -0.1712 -0.0649
  117OSM    C8F12336   3.283   5.938   9.733  0.1818 -0.7307  0.5025
  117OSM    H8F12337   3.365   5.915   9.804  2.0754  0.2779 -1.2446
  117OSM    H8G12338   3.293   6.048   9.718  0.2115 -1.0521 -2.3001
  117OSM    C9F12339   3.319   5.871   9.600 -0.0066  0.5328 -0.2528
  117OSM    H9F12340   3.413   5.816   9.610 -0.5743 -0.8903 -2.1262
  117OSM   C10F12341   3.267   5.882   9.478  0.2197 -0.3773 -0.0946
  117OSM   H10F12342   3.322   5.823   9.404  2.2814  0.2383  0.8747
  117OSM   C11F12343   3.144   5.960   9.432 -0.5107  0.1753  0.2917
  117OSM   H11F12344   3.102   6.023   9.514 -1.3378  0.2715 -0.1886
  117OSM   H11G12345   3.059   5.892   9.409 -0.7823  0.5972  0.0103
  117OSM   C12F12346   3.192   6.034   9.304 -0.0780  0.0892 -0.2466
  117OSM   H12F12347   3.301   6.054   9.310 -0.0279 -0.4641  1.3239
  117OSM   H12G12348   3.142   6.130   9.329  0.2951  0.1611  0.2283
  117OSM   C13F12349   3.136   5.987   9.168 -0.2329 -0.0164 -0.7250
  117OSM   H13F12350   3.163   6.067   9.095  1.4550  0.3825  0.2854
  117OSM   H13G12351   3.026   5.976   9.177 -0.1286  0.1989  0.9865
  117OSM   C14F12352   3.204   5.864   9.098 -0.3874 -0.0048  0.0472
  117OSM   H14F12353   3.157   5.770   9.135 -0.2845 -0.5990 -1.2720
  117OSM   H14G12354   3.311   5.873   9.126 -0.5499  0.5457  0.4930
  117OSM   C15F12355   3.200   5.867   8.945  0.2255 -0.6626 -0.2197
  117OSM   H15F12356   3.246   5.961   8.907 -1.0939  1.0271  2.1063
  117OSM   H15G12357   3.092   5.874   8.917 -0.6209  1.0115  2.9403
  117OSM   C16F12358   3.254   5.745   8.871  0.1615 -0.5271  0.3978
  117OSM   H16F12359   3.194   5.733   8.778 -0.1570  1.7969  0.2454
  117OSM   H16G12360   3.243   5.652   8.931  0.3211  1.0678  3.0092
  117OSM   C17F12361   3.403   5.761   8.828  0.5638 -0.0107 -0.8534
  117OSM   H17F12362   3.429   5.859   8.784 -0.0253  1.5685  2.0160
  117OSM   H17G12363   3.433   5.684   8.754  3.4696  0.8724 -0.7005
  117OSM   C18F12364   3.503   5.750   8.948 -0.2706  0.3277  0.0810
  117OSM   H18F12365   3.496   5.657   9.009  2.4016  0.2619  0.4343
  117OSM   H18G12366   3.493   5.834   9.021  2.3192  1.5400 -0.8300
  117OSM   H18H12367   3.602   5.754   8.896 -0.0200  0.9142  0.5859
  118OSM      N12368   2.388   0.550  11.593  0.2537 -0.1872  0.3163
  118OSM    C1512369   2.298   0.616  11.693 -0.5477 -1.0461 -1.0976
  118OSM   H15A12370   2.286   0.555  11.782  2.3194 -0.0189  0.0905
  118OSM   H15B12371   2.205   0.647  11.648 -0.8273 -1.2053 -0.6366
  118OSM   H15C12372   2.353   0.703  11.725 -2.9935  1.2236 -2.5994
  118OSM    C1412373   2.455   0.668  11.509  1.0355  0.2522 -0.2714
  118OSM   H14A12374   2.475   0.638  11.407 -0.8307  1.7780 -1.1467
  118OSM   H14B12375   2.547   0.696  11.558  0.5743  1.2183  0.0710
  118OSM   H14C12376   2.391   0.755  11.504 -0.0419 -0.5287 -0.2731
  118OSM    C1312377   2.491   0.456  11.648 -0.4780 -0.8004 -0.1855
  118OSM   H13A12378   2.438   0.397  11.722 -0.9545  1.8914  1.7876
  118OSM   H13B12379   2.563   0.510  11.708  0.2800 -1.5810 -0.3766
  118OSM   H13C12380   2.528   0.398  11.565 -1.6516  1.5218 -2.4727
  118OSM    C1212381   2.299   0.465  11.501 -0.6023 -0.5393  0.5130
  118OSM   H12A12382   2.216   0.531  11.485  0.1604  1.1666  2.9452
  118OSM   H12B12383   2.265   0.373  11.547 -2.0394 -0.5829 -0.5810
  118OSM    C1112384   2.352   0.426  11.358 -0.3522  0.3259 -0.2681
  118OSM   H11A12385   2.273   0.362  11.311  1.1037 -0.9668 -1.0509
  118OSM   H11B12386   2.447   0.368  11.359 -0.5407  0.0192  0.5015
  118OSM      P12387   2.418   0.523  11.127  0.2071 -0.0457 -0.1286
  118OSM    O1312388   2.423   0.655  11.062 -0.2288  0.2886  0.3964
  118OSM    O1412389   2.536   0.432  11.124  0.4489  0.0581 -1.1762
  118OSM    O1112390   2.300   0.443  11.048  0.2984  0.1900  0.5152
  118OSM    O1212391   2.375   0.543  11.276  0.1809  0.1091 -0.3050
  118OSM    C1S12392   2.176   0.490  11.006  0.4820 -0.4960 -0.5047
  118OSM    H1S12393   2.144   0.583  11.058 -0.4204  0.1026 -2.0490
  118OSM    H1T12394   2.102   0.417  11.044 -0.5108 -0.1861 -1.7601
  118OSM     NF12395   2.025   0.605  10.831  0.4898  0.0944 -0.1227
  118OSM    HNF12396   1.955   0.557  10.778 -0.1858 -0.8789  1.5636
  118OSM    C2S12397   2.152   0.533  10.856  0.0188  0.2038 -0.2912
  118OSM    H2S12398   2.233   0.607  10.836 -0.2518 -0.1076 -2.8034
  118OSM    C3S12399   2.188   0.409  10.765  0.7808 -0.3300  0.1368
  118OSM    H3S12400   2.111   0.330  10.780  0.4350 -0.3063 -1.3068
  118OSM     O312401   2.313   0.347  10.797  0.0231  0.5508 -0.1295
  118OSM    HO312402   2.331   0.378  10.887  1.9674 -1.3147  0.2116
  118OSM    C4S12403   2.179   0.456  10.620 -0.4563 -0.1492 -0.5427
  118OSM    H4S12404   2.078   0.484  10.587 -0.2137  0.6354 -0.6304
  118OSM    C5S12405   2.278   0.501  10.540  0.3557 -0.6030 -0.2729
  118OSM    H5S12406   2.381   0.502  10.579 -0.0601 -2.3588  1.0059
  118OSM    C6S12407   2.261   0.537  10.397 -0.2762  0.5719  0.0394
  118OSM    H6S12408   2.241   0.644  10.378 -0.4339  0.5528  0.0969
  118OSM    H6T12409   2.165   0.494  10.361  0.4918 -1.2443  0.0269
  118OSM    C7S12410   2.369   0.481  10.306  0.2907 -0.1232 -0.6872
  118OSM    H7S12411   2.377   0.370  10.308 -1.6172 -0.2971 -0.6257
  118OSM    H7T12412   2.464   0.521  10.347 -0.1970 -2.3827  3.0969
  118OSM    C8S12413   2.339   0.532  10.159 -0.4743  0.3990 -0.4519
  118OSM    H8S12414   2.368   0.639  10.167  0.1872  0.2594 -0.9013
  118OSM    H8T12415   2.229   0.515  10.154 -0.5717  0.1001  1.7823
  118OSM    C9S12416   2.429   0.464  10.061  0.2997  0.9279  0.3605
  118OSM    H9S12417   2.450   0.362  10.101  2.6311  0.6644 -1.2983
  118OSM    H9T12418   2.533   0.502  10.053  0.7335 -0.3437 -0.4835
  118OSM   C10S12419   2.373   0.450   9.919 -0.0911  0.4637  0.1531
  118OSM   H10S12420   2.386   0.545   9.863  2.0955  0.4412  0.5177
  118OSM   H10T12421   2.263   0.441   9.912 -0.2822  0.8855  2.0630
  118OSM   C11S12422   2.429   0.343   9.825 -0.2514  0.7869  0.3504
  118OSM   H11S12423   2.399   0.238   9.847  0.1356 -0.0199 -2.5198
  118OSM   H11T12424   2.540   0.352   9.820  0.0805 -0.6197  3.0673
  118OSM   C12S12425   2.377   0.352   9.681  0.0805 -1.0612  0.2866
  118OSM   H12S12426   2.423   0.450   9.654 -0.7990 -1.2993 -2.4327
  118OSM   H12T12427   2.267   0.354   9.672  0.1889 -0.6163 -1.4528
  118OSM   C13S12428   2.435   0.247   9.584 -0.6536  0.3390 -0.0206
  118OSM   H13S12429   2.372   0.157   9.594 -1.7980  1.1232  0.0041
  118OSM   H13T12430   2.540   0.220   9.609 -0.0452  0.5231 -2.1334
  118OSM   C14S12431   2.438   0.312   9.434 -0.2147  0.6491 -0.7766
  118OSM   H14S12432   2.378   0.405   9.444 -0.8161  0.3363 -1.4086
  118OSM   H14T12433   2.374   0.250   9.368 -0.6286 -1.2604  1.2846
  118OSM   C15S12434   2.587   0.314   9.390  0.1681  0.3514  0.6181
  118OSM   H15S12435   2.633   0.214   9.374 -0.7473  0.3436 -2.7951
  118OSM   H15T12436   2.648   0.365   9.467  1.9101 -0.5057 -0.1460
  118OSM   C16S12437   2.608   0.388   9.261  0.0214 -0.6310  0.6044
  118OSM   H16S12438   2.715   0.390   9.231 -0.6786  0.5050 -2.1506
  118OSM   H16T12439   2.580   0.494   9.281 -0.3306 -0.5136 -0.4685
  118OSM   C17S12440   2.520   0.346   9.142  0.5843  0.1132 -0.2578
  118OSM   H17S12441   2.418   0.388   9.152  0.3958  0.2106 -2.2403
  118OSM   H17T12442   2.505   0.236   9.134  0.1890 -0.0078  1.7168
  118OSM   C18S12443   2.556   0.397   8.998 -0.2925 -0.2490 -0.3182
  118OSM   H18S12444   2.505   0.331   8.925  1.4918 -1.5787 -0.4090
  118OSM   H18T12445   2.665   0.389   8.982  0.2022  3.9589 -0.3510
  118OSM   H18U12446   2.531   0.505   8.982  1.7992  0.6646  1.9831
  118OSM    C1F12447   2.001   0.724  10.879  0.3553 -0.2729  0.6177
  118OSM     OF12448   2.088   0.803  10.921  0.0996 -0.3073 -1.0080
  118OSM    C2F12449   1.849   0.757  10.893  0.2428  0.0879 -0.4226
  118OSM    H2F12450   1.818   0.719  10.993  1.1785  0.5248  0.0499
  118OSM    H2G12451   1.787   0.701  10.819 -2.0831  0.8032  0.8970
  118OSM    C3F12452   1.822   0.902  10.891 -0.5850 -0.0508  0.7636
  118OSM    H3F12453   1.876   0.966  10.963 -2.7720  3.1521 -0.2300
  118OSM    H3G12454   1.716   0.914  10.922 -0.7355  0.0850  0.2202
  118OSM    C4F12455   1.830   0.976  10.754 -0.0718  0.0443 -0.4398
  118OSM    H4F12456   1.916   0.944  10.691  1.5063  1.6450  0.8069
  118OSM    H4G12457   1.838   1.086  10.768 -1.5809  0.3329 -1.5315
  118OSM    C5F12458   1.703   0.957  10.673 -0.3821 -0.4799 -0.2410
  118OSM    H5F12459   1.624   1.021  10.717 -1.4220 -1.9940  0.1855
  118OSM    H5G12460   1.657   0.857  10.657  0.6747 -0.4922 -4.3406
  118OSM    C6F12461   1.710   1.000  10.526 -0.7459 -0.0343  0.5385
  118OSM    H6F12462   1.777   0.932  10.469 -1.2011  1.4646 -1.8882
  118OSM    H6G12463   1.759   1.099  10.512  0.8022 -0.4770  2.3917
  118OSM    C7F12464   1.568   0.984  10.453  0.4882 -0.8764  0.4445
  118OSM    H7F12465   1.528   0.882  10.469 -1.6039 -0.2001 -0.1132
  118OSM    H7G12466   1.575   1.000  10.344  0.1141 -0.3227  0.4990
  118OSM    C8F12467   1.454   1.072  10.510  0.2273 -1.1474 -0.5128
  118OSM    H8F12468   1.456   1.073  10.622  1.1881 -0.6452 -0.5258
  118OSM    H8G12469   1.359   1.019  10.487 -0.1953 -1.0913  0.9497
  118OSM    C9F12470   1.458   1.216  10.460 -0.2208  0.0632 -0.3892
  118OSM    H9F12471   1.512   1.283  10.529 -0.3959 -0.4077  0.2254
  118OSM   C10F12472   1.406   1.270  10.351  0.0890 -0.4479  0.2757
  118OSM   H10F12473   1.434   1.375  10.334 -2.2912 -0.0079 -1.4451
  118OSM   C11F12474   1.314   1.204  10.248 -0.5328 -0.5251 -0.4299
  118OSM   H11F12475   1.208   1.235  10.258 -0.3338  0.1806 -0.4333
  118OSM   H11G12476   1.303   1.095  10.266  1.8911 -0.5099  1.7416
  118OSM   C12F12477   1.356   1.223  10.098 -0.3746  0.2345 -0.0625
  118OSM   H12F12478   1.466   1.223  10.088 -0.3586  0.5044  0.1029
  118OSM   H12G12479   1.316   1.322  10.067 -0.1460  0.1560 -0.6142
  118OSM   C13F12480   1.303   1.117   9.998  0.8106  0.2345  0.0546
  118OSM   H13F12481   1.198   1.098  10.030  0.9518 -1.3000 -0.2992
  118OSM   H13G12482   1.350   1.017  10.008 -1.0982 -0.9874 -2.2175
  118OSM   C14F12483   1.314   1.163   9.851 -0.0500  0.0925 -0.1079
  118OSM   H14F12484   1.421   1.194   9.844  0.1025 -0.2157  0.7453
  118OSM   H14G12485   1.255   1.257   9.844  0.8305  1.0264  3.2705
  118OSM   C15F12486   1.271   1.058   9.747 -0.2706  0.2137 -0.3426
  118OSM   H15F12487   1.161   1.048   9.730  0.2473 -0.3260 -4.2665
  118OSM   H15G12488   1.304   0.954   9.770  0.8640  0.6642  0.1317
  118OSM   C16F12489   1.325   1.088   9.603  0.3395  0.4021 -0.4689
  118OSM   H16F12490   1.395   1.012   9.561 -0.2681 -0.8950  0.7654
  118OSM   H16G12491   1.387   1.180   9.607 -1.3054  1.6431 -1.9949
  118OSM   C17F12492   1.212   1.128   9.510 -0.3389  0.2526 -0.4328
  118OSM   H17F12493   1.147   1.205   9.558  0.5349 -0.2721  1.6993
  118OSM   H17G12494   1.154   1.034   9.508  0.3249 -0.3117  2.1835
  118OSM   C18F12495   1.246   1.169   9.365  0.4981  0.5279 -0.5819
  118OSM   H18F12496   1.308   1.258   9.344 -0.2347  0.9067 -1.1796
  118OSM   H18G12497   1.151   1.174   9.308  0.9746  0.7294 -1.3700
  118OSM   H18H12498   1.303   1.084   9.321  0.1801 -0.1560  0.2905
  119OSM      N12499   3.197   6.222  11.236  0.6133  0.5143  0.5028
  119OSM    C1512500   3.051   6.218  11.184  0.6132 -0.6289 -0.2032
  119OSM   H15A12501   3.038   6.311  11.132  0.6131  1.2575  2.8983
  119OSM   H15B12502   2.986   6.218  11.270  2.8412 -2.3066  1.6151
  119OSM   H15C12503   3.024   6.140  11.114  1.7342 -1.0581 -0.1892
  119OSM    C1412504   3.218   6.348  11.310 -0.0934  0.0808 -0.2220
  119OSM   H14A12505   3.179   6.431  11.252  0.2576 -0.8645 -1.8979
  119OSM   H14B12506   3.322   6.375  11.324  0.1666 -1.8531  2.1637
  119OSM   H14C12507   3.181   6.356  11.411  1.8473  1.0392  0.4574
  119OSM    C1312508   3.217   6.111  11.332 -0.7866 -0.6809 -0.3423
  119OSM   H13A12509   3.184   6.018  11.287 -0.8189 -0.5059 -0.6780
  119OSM   H13B12510   3.161   6.137  11.421 -0.5774  0.6924 -0.5961
  119OSM   H13C12511   3.323   6.097  11.348 -0.1758  2.0710 -1.5090
  119OSM    C1212512   3.291   6.212  11.113  0.5054 -0.0155  0.7129
  119OSM   H12A12513   3.289   6.297  11.047  0.0539 -1.3729 -1.1039
  119OSM   H12B12514   3.264   6.125  11.054  3.6354 -0.0036 -0.9386
  119OSM    C1112515   3.439   6.187  11.146 -0.7763  0.6184 -0.2427
  119OSM   H11A12516   3.476   6.259  11.222  0.6174 -1.4322  1.1490
  119OSM   H11B12517   3.498   6.203  11.053  1.3240  0.7961  1.0478
  119OSM      P12518   3.517   5.943  11.108 -0.3607  0.4434 -0.0050
  119OSM    O1312519   3.664   5.921  11.127  0.1912 -0.1365 -0.4369
  119OSM    O1412520   3.438   5.822  11.141 -0.2310  0.2168  0.5848
  119OSM    O1112521   3.481   5.995  10.966 -0.4566 -0.7985  0.4100
  119OSM    O1212522   3.464   6.056  11.202  0.1367 -0.2291 -0.8331
  119OSM    C1S12523   3.475   5.884  10.872 -0.1006 -0.0688  1.3061
  119OSM    H1S12524   3.405   5.801  10.893 -1.2148 -0.0265 -1.7617
  119OSM    H1T12525   3.569   5.824  10.864  0.1621  0.3877  0.9562
  119OSM     NF12526   3.421   5.837  10.644  0.1738 -0.3884  0.1276
  119OSM    HNF12527   3.486   5.806  10.575 -1.7098 -2.4047 -0.8588
  119OSM    C2S12528   3.462   5.944  10.732  0.1347  0.2303 -0.0036
  119OSM    H2S12529   3.383   6.021  10.742  0.0933 -0.0440  2.1997
  119OSM    C3S12530   3.590   6.021  10.691  0.6663 -0.0849  0.2036
  119OSM    H3S12531   3.678   5.954  10.702 -0.3567 -1.1118  3.3905
  119OSM     O312532   3.616   6.139  10.779 -0.0311 -0.3098  0.3606
  119OSM    HO312533   3.545   6.132  10.843 -2.0565  1.3806 -1.5043
  119OSM    C4S12534   3.583   6.069  10.549  0.2184 -0.5900 -0.1601
  119OSM    H4S12535   3.595   5.992  10.471 -1.3367 -0.7081 -0.3067
  119OSM    C5S12536   3.542   6.195  10.518 -0.3062 -0.3457  1.0333
  119OSM    H5S12537   3.493   6.257  10.595  0.0620  0.6374  0.4777
  119OSM    C6S12538   3.545   6.250  10.374  0.9848 -0.4289 -0.5821
  119OSM    H6S12539   3.622   6.331  10.380  1.1314 -0.6441  3.3621
  119OSM    H6T12540   3.450   6.304  10.353  1.0822 -0.0020  0.0320
  119OSM    C7S12541   3.571   6.146  10.263  0.6297  0.3998  0.1976
  119OSM    H7S12542   3.493   6.069  10.283 -0.4657  1.6756  1.0002
  119OSM    H7T12543   3.677   6.114  10.274  0.4867 -0.2709 -0.3245
  119OSM    C8S12544   3.559   6.215  10.121 -0.5206 -0.2671  0.2598
  119OSM    H8S12545   3.637   6.294  10.125  1.0861 -1.7217 -0.6920
  119OSM    H8T12546   3.463   6.267  10.104  0.7350  2.5913  1.3165
  119OSM    C9S12547   3.582   6.118   9.994 -0.3554 -0.0219 -0.0442
  119OSM    H9S12548   3.496   6.048  10.000 -0.8162  0.5744  0.3977
  119OSM    H9T12549   3.673   6.066  10.029  1.0057  1.1604 -1.6633
  119OSM   C10S12550   3.595   6.175   9.858  0.4382  0.0120  0.1286
  119OSM   H10S12551   3.678   6.249   9.853  0.7984 -0.3954  0.0109
  119OSM   H10T12552   3.495   6.212   9.826 -0.3546 -2.7082 -0.7522
  119OSM   C11S12553   3.642   6.073   9.750  0.7662  0.9136  0.2562
  119OSM   H11S12554   3.650   6.118   9.648  1.8837 -0.2929 -0.2163
  119OSM   H11T12555   3.573   5.987   9.763  2.6823 -0.7639 -0.2152
  119OSM   C12S12556   3.775   6.003   9.768 -0.1044  1.1379  0.2334
  119OSM   H12S12557   3.802   6.019   9.875  2.4264  0.3875 -0.2313
  119OSM   H12T12558   3.839   6.068   9.705 -0.0342  0.1231 -0.7615
  119OSM   C13S12559   3.790   5.856   9.723  0.6358 -0.3233  0.5390
  119OSM   H13S12560   3.724   5.787   9.780  0.8612 -1.6304 -0.7274
  119OSM   H13T12561   3.893   5.830   9.754  0.2061 -0.8316  1.5878
  119OSM   C14S12562   3.758   5.845   9.576  0.0938  0.4109  0.2185
  119OSM   H14S12563   3.822   5.919   9.523  3.5087 -0.1457  3.2133
  119OSM   H14T12564   3.657   5.881   9.544  0.4427 -0.9726 -2.7843
  119OSM   C15S12565   3.774   5.699   9.526 -0.1022  0.1893  0.4008
  119OSM   H15S12566   3.848   5.652   9.594  1.1540 -2.1122 -2.3675
  119OSM   H15T12567   3.808   5.703   9.421 -1.1602  0.6232  0.0647
  119OSM   C16S12568   3.643   5.615   9.527  0.2628 -0.4547  0.5376
  119OSM   H16S12569   3.565   5.657   9.460 -0.3501 -1.5316  0.5573
  119OSM   H16T12570   3.609   5.621   9.633  1.4975 -0.6394  0.9616
  119OSM   C17S12571   3.675   5.475   9.478  0.6453  0.2592  0.3893
  119OSM   H17S12572   3.732   5.483   9.383 -1.0830  0.8891 -0.6397
  119OSM   H17T12573   3.575   5.434   9.455  0.0991  2.7179 -2.1636
  119OSM   C18S12574   3.748   5.391   9.579 -0.5731 -0.0374  0.5384
  119OSM   H18S12575   3.686   5.383   9.672  1.2428  1.0554  1.8953
  119OSM   H18T12576   3.844   5.435   9.613 -0.0218 -0.4421 -0.4572
  119OSM   H18U12577   3.768   5.292   9.531 -0.2985 -1.4476  3.3236
  119OSM    C1F12578   3.308   5.773  10.644  0.1238  0.2099 -0.4332
  119OSM     OF12579   3.203   5.818  10.691 -0.4594 -0.0948  0.1324
  119OSM    C2F12580   3.313   5.632  10.589  0.4095 -0.3091 -0.5497
  119OSM    H2F12581   3.267   5.566  10.666 -0.8597  0.3662 -0.7110
  119OSM    H2G12582   3.417   5.595  10.577  0.7213  0.2210  0.3833
  119OSM    C3F12583   3.228   5.624  10.463 -0.0731 -0.9120  0.1371
  119OSM    H3F12584   3.280   5.682  10.385  0.2729  1.1401  1.7972
  119OSM    H3G12585   3.132   5.677  10.484  0.4671 -0.3923  1.3555
  119OSM    C4F12586   3.216   5.478  10.412 -0.2742 -0.4427 -0.2976
  119OSM    H4F12587   3.191   5.412  10.499 -1.9596 -1.0445 -1.2014
  119OSM    H4G12588   3.318   5.452  10.376 -0.9407 -0.9894 -1.8727
  119OSM    C5F12589   3.120   5.465  10.307  1.0601  0.3249 -0.0819
  119OSM    H5F12590   3.141   5.546  10.234  0.8028  0.9503  0.5270
  119OSM    H5G12591   3.014   5.468  10.342  1.2180 -2.0053  0.7670
  119OSM    C6F12592   3.138   5.338  10.224 -0.6924  0.7275 -0.3963
  119OSM    H6F12593   3.137   5.252  10.294 -0.9627  0.2837 -0.9412
  119OSM    H6G12594   3.237   5.328  10.176  0.0742  0.6249  1.1463
  119OSM    C7F12595   3.034   5.305  10.112 -0.5277  0.0520 -0.4205
  119OSM    H7F12596   3.048   5.392  10.044  0.9958  0.9297  0.9566
  119OSM    H7G12597   2.932   5.303  10.157 -0.4411  1.6310 -0.0649
  119OSM    C8F12598   3.071   5.178  10.037 -0.0404 -0.1097 -0.2121
  119OSM    H8F12599   3.178   5.180  10.009  0.1653 -0.9275  0.4878
  119OSM    H8G12600   3.001   5.180   9.950  0.2624  0.8869 -0.4479
  119OSM    C9F12601   3.058   5.056  10.120 -0.0635  0.1463  0.6782
  119OSM    H9F12602   3.131   5.052  10.203  0.0711  0.8038  0.6024
  119OSM   C10F12603   2.960   4.966  10.096 -0.8759  0.6704  0.1316
  119OSM   H10F12604   2.944   4.873  10.154  0.2857  0.8918  0.8444
  119OSM   C11F12605   2.850   4.968   9.991 -0.1925 -0.5681 -0.0791
  119OSM   H11F12606   2.807   5.070   9.978 -0.6023 -0.8021 -0.6002
  119OSM   H11G12607   2.758   4.911  10.016 -0.5228  0.1005  0.2537
  119OSM   C12F12608   2.897   4.913   9.852  0.2703 -0.7573 -0.2884
  119OSM   H12F12609   2.935   4.809   9.864  1.4891 -0.2117  0.7583
  119OSM   H12G12610   2.974   4.983   9.813  1.8384 -1.5118  1.3512
  119OSM   C13F12611   2.785   4.912   9.743  0.4861  0.8448  0.4609
  119OSM   H13F12612   2.761   5.017   9.715  3.2842  1.4609 -0.0061
  119OSM   H13G12613   2.703   4.851   9.787 -0.1342  0.9993 -0.4595
  119OSM   C14F12614   2.830   4.849   9.611  0.3327  0.5505  0.4927
  119OSM   H14F12615   2.749   4.875   9.539 -0.0536 -1.0068  0.3338
  119OSM   H14G12616   2.837   4.739   9.618 -1.7816  0.4352  1.7480
  119OSM   C15F12617   2.958   4.914   9.566  0.1566 -0.5618 -0.7068
  119OSM   H15F12618   3.040   4.855   9.613 -0.6664 -1.5447 -0.4604
  119OSM   H15G12619   2.961   5.025   9.573  1.5397 -0.6679  0.9684
  119OSM   C16F12620   2.977   4.898   9.418 -0.7739 -0.4098 -0.6159
  119OSM   H16F12621   2.892   4.942   9.362 -1.3938 -0.1649  0.4902
  119OSM   H16G12622   2.982   4.792   9.383  0.8662 -0.5637 -0.0117
  119OSM   C17F12623   3.117   4.943   9.363 -0.1954  0.0261 -0.5449
  119OSM   H17F12624   3.193   4.871   9.401 -2.0790 -1.7058  0.1733
  119OSM   H17G12625   3.153   5.042   9.397 -0.2795 -0.5708  1.4469
  119OSM   C18F12626   3.128   4.938   9.214 -0.1389  0.4909  0.0361
  119OSM   H18F12627   3.236   4.933   9.190  0.0092 -2.1345  0.9723
  119OSM   H18G12628   3.082   5.018   9.152 -0.2470  0.0705 -0.4315
  119OSM   H18H12629   3.086   4.838   9.192  1.2975  0.3016 -2.1167
  120OSM      N12630   3.931   3.603  10.956 -0.0016  0.1666 -0.1617
  120OSM    C1512631   3.889   3.484  11.032 -0.0576  0.7086  0.2586
  120OSM   H15A12632   3.981   3.434  11.059 -1.8254 -1.7772  2.2073
  120OSM   H15B12633   3.840   3.415  10.964  0.7841  0.3638 -0.0192
  120OSM   H15C12634   3.828   3.501  11.119  1.1123 -1.2429  1.5421
  120OSM    C1412635   3.813   3.689  10.926 -0.2959 -0.0431 -0.3043
  120OSM   H14A12636   3.754   3.718  11.012  0.3482 -2.6502  1.1368
  120OSM   H14B12637   3.749   3.641  10.853 -1.3399  1.6239 -0.5462
  120OSM   H14C12638   3.844   3.779  10.875  1.3489 -0.0753  0.5905
  120OSM    C1312639   4.016   3.689  11.049  0.0941  0.1746  0.1607
  120OSM   H13A12640   4.067   3.765  10.991 -0.1932  1.6683  1.7801
  120OSM   H13B12641   4.100   3.632  11.086  0.6649  0.7333 -0.2400
  120OSM   H13C12642   3.961   3.745  11.123  1.9124  1.9288  0.2765
  120OSM    C1212643   4.006   3.568  10.824  0.7569  0.2520  0.1045
  120OSM   H12A12644   4.093   3.510  10.850  0.4958 -0.1749  0.0310
  120OSM   H12B12645   4.051   3.659  10.787  0.7307  0.1094 -0.2739
  120OSM    C1112646   3.924   3.503  10.717  0.6343 -0.0635  0.2514
  120OSM   H11A12647   3.976   3.505  10.619  1.4892  1.1717  0.7082
  120OSM   H11B12648   3.828   3.556  10.704 -0.5078 -2.4535 -1.8108
  120OSM      P12649   3.995   3.258  10.729 -0.1439 -0.0361  0.2579
  120OSM    O1312650   4.134   3.320  10.730 -0.3634  0.8008  0.1764
  120OSM    O1412651   3.974   3.139  10.818 -0.5417  0.3683  0.0682
  120OSM    O1112652   3.951   3.223  10.587 -0.3732  0.3946  0.2771
  120OSM    O1212653   3.882   3.373  10.763 -0.4784  0.4761 -0.1263
  120OSM    C1S12654   3.823   3.208  10.535 -0.1669  0.2234 -0.2074
  120OSM    H1S12655   3.747   3.247  10.607 -1.5699  0.3273 -1.6783
  120OSM    H1T12656   3.807   3.100  10.514  1.1441  0.4468 -2.6637
  120OSM     NF12657   3.659   3.253  10.354  0.3034  0.1702  0.1842
  120OSM    HNF12658   3.632   3.180  10.292 -0.1090  1.0275 -0.6601
  120OSM    C2S12659   3.795   3.268  10.391 -0.0363  0.1210  0.1433
  120OSM    H2S12660   3.830   3.373  10.404  0.1321  0.0035  0.6562
  120OSM    C3S12661   3.898   3.194  10.296  0.1435  0.5422  0.0852
  120OSM    H3S12662   3.879   3.085  10.302  1.7733  0.0663 -2.0864
  120OSM     O312663   4.034   3.208  10.342  0.2062  0.4979  0.2072
  120OSM    HO312664   4.016   3.236  10.432 -1.5165  0.8451 -0.2165
  120OSM    C4S12665   3.889   3.237  10.154 -0.6839  0.0678 -0.1055
  120OSM    H4S12666   3.931   3.336  10.131 -0.0150 -0.6487 -2.1908
  120OSM    C5S12667   3.838   3.165  10.056  0.1965  0.4394  0.1214
  120OSM    H5S12668   3.785   3.069  10.054  0.5746  0.1871  1.3552
  120OSM    C6S12669   3.828   3.223   9.916  0.1981 -0.4951  0.2730
  120OSM    H6S12670   3.916   3.289   9.901 -0.6854  0.3088 -1.6886
  120OSM    H6T12671   3.741   3.292   9.909 -0.7276 -1.6551  0.0477
  120OSM    C7S12672   3.809   3.129   9.793  0.0702 -0.0511 -0.0136
  120OSM    H7S12673   3.725   3.056   9.803 -0.9513  0.6661 -2.5805
  120OSM    H7T12674   3.906   3.076   9.782  0.1046 -0.1159  0.5743
  120OSM    C8S12675   3.778   3.211   9.661  0.2458  0.1770  0.3087
  120OSM    H8S12676   3.872   3.258   9.623 -0.7447  0.5189 -1.9021
  120OSM    H8T12677   3.693   3.281   9.676  1.0365  0.8839  1.6431
  120OSM    C9S12678   3.736   3.116   9.552 -0.6255  0.2653  0.3673
  120OSM    H9S12679   3.628   3.140   9.540  0.2412  5.0224 -0.1856
  120OSM    H9T12680   3.738   3.008   9.574 -1.2273  0.4389  1.3552
  120OSM   C10S12681   3.802   3.142   9.409 -0.0791  0.3414 -0.6419
  120OSM   H10S12682   3.770   3.246   9.386 -0.8599  0.9792  2.8635
  120OSM   H10T12683   3.766   3.070   9.332  2.7537 -0.7281 -1.1146
  120OSM   C11S12684   3.956   3.109   9.404  0.1223 -0.5703 -1.1610
  120OSM   H11S12685   3.967   3.008   9.449  3.5160  0.7400  1.3650
  120OSM   H11T12686   4.016   3.175   9.469 -1.9714 -0.4861  0.8435
  120OSM   C12S12687   4.016   3.135   9.268 -0.4972 -0.6370 -0.4863
  120OSM   H12S12688   4.017   3.246   9.264 -1.7419 -0.6079 -0.4769
  120OSM   H12T12689   3.959   3.090   9.184  0.1774 -2.6476  0.0645
  120OSM   C13S12690   4.159   3.084   9.270 -0.7340 -0.1977  0.1827
  120OSM   H13S12691   4.158   2.982   9.314  0.1969 -0.9911 -1.5118
  120OSM   H13T12692   4.213   3.152   9.340  0.4092  0.2848 -1.1101
  120OSM   C14S12693   4.229   3.083   9.133 -0.2490 -0.5165  0.6083
  120OSM   H14S12694   4.186   3.015   9.056  1.2558 -0.2200 -0.5335
  120OSM   H14T12695   4.337   3.057   9.147 -0.0424 -0.5213 -0.8831
  120OSM   C15S12696   4.220   3.224   9.065  0.0786 -0.0265  0.0583
  120OSM   H15S12697   4.226   3.298   9.148  0.5353  0.6455 -0.5582
  120OSM   H15T12698   4.119   3.244   9.022 -0.1601  0.0576  0.6468
  120OSM   C16S12699   4.331   3.244   8.961  0.0052 -0.5961  0.2970
  120OSM   H16S12700   4.320   3.164   8.885 -0.6890 -0.7537  0.5493
  120OSM   H16T12701   4.430   3.251   9.012 -0.1632  2.5125  0.3549
  120OSM   C17S12702   4.339   3.383   8.891 -0.9152 -0.5419  0.5275
  120OSM   H17S12703   4.258   3.400   8.817 -1.4316 -1.2770  0.9109
  120OSM   H17T12704   4.427   3.384   8.823 -0.1869  0.9131  1.4621
  120OSM   C18S12705   4.356   3.511   8.978 -0.2970 -0.4312  0.0037
  120OSM   H18S12706   4.259   3.557   9.007 -0.5519 -1.4386  0.8226
  120OSM   H18T12707   4.422   3.579   8.920  0.3721  1.7291  3.0363
  120OSM   H18U12708   4.420   3.495   9.068  1.1918 -0.5942 -1.0480
  120OSM    C1F12709   3.552   3.322  10.393 -0.0428  0.6404 -0.4755
  120OSM     OF12710   3.557   3.405  10.483 -0.4764  0.2083 -0.1183
  120OSM    C2F12711   3.426   3.282  10.326 -1.1795 -0.2390  0.1257
  120OSM    H2F12712   3.376   3.209  10.394 -1.2440 -0.3672 -0.0605
  120OSM    H2G12713   3.449   3.237  10.227  0.9563  1.9177 -0.4450
  120OSM    C3F12714   3.346   3.410  10.287  0.2252 -0.2708 -0.6791
  120OSM    H3F12715   3.332   3.471  10.379 -0.4365 -1.9313  0.3613
  120OSM    H3G12716   3.249   3.366  10.255 -0.3483  0.4676 -0.0073
  120OSM    C4F12717   3.396   3.491  10.166  0.5516  0.5594  0.4712
  120OSM    H4F12718   3.494   3.542  10.178  1.1216 -0.6692  1.2526
  120OSM    H4G12719   3.326   3.577  10.158 -2.2824 -1.7041 -1.3637
  120OSM    C5F12720   3.399   3.408  10.037  0.4156 -0.3200 -0.2151
  120OSM    H5F12721   3.304   3.352  10.025  0.7993 -1.2695  0.9559
  120OSM    H5G12722   3.481   3.335  10.053  2.0745  1.0684 -2.0056
  120OSM    C6F12723   3.419   3.483   9.911 -0.3152 -0.2389 -0.1961
  120OSM    H6F12724   3.408   3.408   9.830  0.7976  2.8470 -3.4650
  120OSM    H6G12725   3.516   3.536   9.904  0.2985 -1.2338  0.5505
  120OSM    C7F12726   3.316   3.589   9.873  0.6699  0.0994  0.2938
  120OSM    H7F12727   3.336   3.686   9.924 -1.9500  0.9950 -0.2061
  120OSM    H7G12728   3.217   3.563   9.917  1.2761 -0.6287  1.2561
  120OSM    C8F12729   3.309   3.616   9.725 -0.4400  0.0738  0.1228
  120OSM    H8F12730   3.404   3.667   9.700  0.3317 -0.1422  2.4704
  120OSM    H8G12731   3.225   3.685   9.697 -1.1725 -1.7304 -2.5313
  120OSM    C9F12732   3.296   3.500   9.627  0.3074  0.2814 -0.4835
  120OSM    H9F12733   3.193   3.462   9.622  0.3738  0.0147  0.1462
  120OSM   C10F12734   3.381   3.452   9.531  0.0681 -0.1673 -1.0047
  120OSM   H10F12735   3.348   3.363   9.477 -1.1510  0.0790 -0.6984
  120OSM   C11F12736   3.520   3.493   9.496  0.3501 -0.5578 -0.2521
  120OSM   H11F12737   3.587   3.408   9.474 -0.3257 -1.7586  1.9886
  120OSM   H11G12738   3.571   3.535   9.585  0.8521  0.1372 -0.8580
  120OSM   C12F12739   3.523   3.600   9.389  0.0746 -0.5690  0.2669
  120OSM   H12F12740   3.628   3.634   9.378 -0.7897  2.0427 -0.6553
  120OSM   H12G12741   3.473   3.689   9.434  1.0292 -0.3354  0.8852
  120OSM   C13F12742   3.456   3.565   9.256 -0.3625  0.7016  0.3364
  120OSM   H13F12743   3.348   3.542   9.266 -0.7036  2.5858  1.2490
  120OSM   H13G12744   3.492   3.472   9.206  1.8016  2.3875 -1.3958
  120OSM   C14F12745   3.470   3.673   9.143  1.0425  0.1665  0.5234
  120OSM   H14F12746   3.571   3.719   9.148  1.9343 -1.6080  0.0035
  120OSM   H14G12747   3.398   3.753   9.171  1.2772  0.7080 -0.3926
  120OSM   C15F12748   3.441   3.620   9.001  0.4916  0.3569  0.2623
  120OSM   H15F12749   3.337   3.582   9.004 -0.1030  1.9919  1.2637
  120OSM   H15G12750   3.494   3.524   8.982 -2.3836 -1.7019  1.8972
  120OSM   C16F12751   3.460   3.721   8.884  0.1726  0.5738 -0.7447
  120OSM   H16F12752   3.421   3.672   8.792 -0.6271 -2.3805  1.0179
  120OSM   H16G12753   3.568   3.741   8.867  0.5064 -0.8263 -0.4474
  120OSM   C17F12754   3.390   3.854   8.895  0.0601  0.0274 -0.5813
  120OSM   H17F12755   3.416   3.892   8.996 -0.3267  1.0397 -0.8415
  120OSM   H17G12756   3.284   3.820   8.895 -0.2157  0.5220  2.6472
  120OSM   C18F12757   3.423   3.944   8.774 -1.3216  0.0447 -0.2161
  120OSM   H18F12758   3.398   3.890   8.680 -1.7850 -0.8541  0.4080
  120OSM   H18G12759   3.532   3.965   8.769 -1.4688  1.1001  0.5012
  120OSM   H18H12760   3.373   4.043   8.762 -1.6078 -0.1900 -1.0451
  121OSM      N12761   1.623   6.357  10.951 -0.5265 -0.7825 -0.4624
  121OSM    C1512762   1.567   6.467  10.869 -0.2155 -0.0404  0.5165
  121OSM   H15A12763   1.588   6.569  10.898  1.2062 -0.3418  0.6254
  121OSM   H15B12764   1.460   6.456  10.863 -0.1272 -0.5700 -0.2993
  121OSM   H15C12765   1.606   6.456  10.769  1.1384 -1.2892  1.1540
  121OSM    C1412766   1.561   6.226  10.909 -0.1877  0.7790  0.0559
  121OSM   H14A12767   1.606   6.144  10.963 -2.3048 -0.8713 -0.5694
  121OSM   H14B12768   1.592   6.198  10.809  2.5970 -1.9987  1.4868
  121OSM   H14C12769   1.459   6.219  10.941  0.6319 -0.5158  2.7199
  121OSM    C1312770   1.770   6.338  10.937  0.0905  0.2520  0.2740
  121OSM   H13A12771   1.798   6.331  10.833  1.7034 -1.4783  0.7799
  121OSM   H13B12772   1.812   6.250  10.982  0.2634 -0.9064 -1.9882
  121OSM   H13C12773   1.826   6.422  10.975  1.8123 -1.1337  0.9772
  121OSM    C1212774   1.585   6.376  11.102 -1.0135  0.4941  0.2756
  121OSM   H12A12775   1.615   6.289  11.159 -2.1287  1.0962  1.8469
  121OSM   H12B12776   1.478   6.389  11.111 -1.0654  2.6030 -2.1921
  121OSM    C1112777   1.643   6.508  11.155 -0.2974  0.5476  0.3150
  121OSM   H11A12778   1.595   6.507  11.255  0.3682  0.6619  0.6332
  121OSM   H11B12779   1.597   6.582  11.085  0.7993 -0.3961 -1.4875
  121OSM      P12780   1.874   6.629  11.131 -0.3612  0.2913  0.2703
  121OSM    O1312781   1.805   6.753  11.168  0.5230  0.0361 -0.0600
  121OSM    O1412782   2.007   6.617  11.197 -0.1140  0.0743  0.7643
  121OSM    O1112783   1.876   6.611  10.977  0.1295  0.4195 -0.2729
  121OSM    O1212784   1.787   6.508  11.167 -0.2012  0.4508  0.7709
  121OSM    C1S12785   2.005   6.574  10.912  0.3070 -0.3694 -1.2755
  121OSM    H1S12786   2.010   6.463  10.912 -1.4443 -0.5110  0.5646
  121OSM    H1T12787   2.092   6.614  10.968 -3.0415  1.9395  2.8230
  121OSM     NF12788   2.120   6.549  10.682 -0.3134 -0.0099 -0.2731
  121OSM    HNF12789   2.207   6.595  10.664  0.9470 -1.0818  2.3680
  121OSM    C2S12790   2.010   6.614  10.755  0.9174  0.1405  0.1994
  121OSM    H2S12791   1.912   6.587  10.710  1.4459 -0.4068 -0.6568
  121OSM    C3S12792   2.016   6.763  10.755  0.2621 -0.1558 -0.2505
  121OSM    H3S12793   2.105   6.808  10.803 -0.8059  1.1790  0.5741
  121OSM     O312794   1.906   6.826  10.819 -0.3654  0.0082 -0.1413
  121OSM    HO312795   1.874   6.760  10.881 -1.0880  2.2796  2.0641
  121OSM    C4S12796   2.026   6.816  10.609 -0.5443 -0.8262 -0.2924
  121OSM    H4S12797   2.122   6.798  10.560 -0.0877 -0.8053  0.5689
  121OSM    C5S12798   1.930   6.869  10.522  1.1772 -0.0133 -0.7853
  121OSM    H5S12799   1.828   6.869  10.563  0.9464  0.4525 -1.3528
  121OSM    C6S12800   1.954   6.911  10.383 -0.2280 -0.2057 -0.5324
  121OSM    H6S12801   1.910   7.011  10.365 -1.4937 -0.8197 -1.0351
  121OSM    H6T12802   1.886   6.849  10.320  0.0910 -0.7909 -0.3072
  121OSM    C7S12803   2.091   6.911  10.326 -0.0267 -0.1688 -0.7612
  121OSM    H7S12804   2.123   6.807  10.304 -1.3575 -1.3173  2.2080
  121OSM    H7T12805   2.168   6.951  10.396 -0.1856 -0.2853 -0.5189
  121OSM    C8S12806   2.094   6.990  10.194  1.0421  0.1989  0.1912
  121OSM    H8S12807   2.195   6.988  10.149  0.7394  0.1052 -0.5036
  121OSM    H8T12808   2.079   7.095  10.227 -4.0377 -0.5445  1.0257
  121OSM    C9S12809   1.997   6.941  10.087  0.3953 -1.0501 -0.2484
  121OSM    H9S12810   1.889   6.956  10.110  0.3227 -1.9049  0.0233
  121OSM    H9T12811   2.003   6.831  10.072  1.0048 -1.0336 -0.1605
  121OSM   C10S12812   2.032   7.002   9.954 -0.3265  0.4158  0.5894
  121OSM   H10S12813   2.120   6.942   9.921  0.4461 -0.2462  3.5788
  121OSM   H10T12814   2.052   7.109   9.977 -1.4907  1.2143 -1.7746
  121OSM   C11S12815   1.916   6.984   9.858  0.8592  0.0958 -0.7020
  121OSM   H11S12816   1.829   7.044   9.891  1.3465 -0.6540  2.2816
  121OSM   H11T12817   1.879   6.879   9.852  2.7452 -0.6870  0.4465
  121OSM   C12S12818   1.944   7.044   9.716 -0.1034 -0.3220 -0.3495
  121OSM   H12S12819   2.037   7.000   9.674  1.9067 -0.0197  3.3467
  121OSM   H12T12820   1.967   7.151   9.735  1.2778 -0.5080 -0.8725
  121OSM   C13S12821   1.828   7.018   9.625  0.2201  0.5726 -0.0784
  121OSM   H13S12822   1.742   7.075   9.667 -0.6651 -1.1421  0.5064
  121OSM   H13T12823   1.791   6.914   9.630  1.1917  0.0250 -2.6287
  121OSM   C14S12824   1.853   7.063   9.478  0.0676 -0.6279 -0.5341
  121OSM   H14S12825   1.949   7.026   9.437  0.8535  1.1489 -0.4061
  121OSM   H14T12826   1.856   7.174   9.473 -1.0310 -0.5230  0.6404
  121OSM   C15S12827   1.740   7.015   9.391  0.2674  0.6131  0.4447
  121OSM   H15S12828   1.646   7.064   9.423 -0.8616 -0.5453 -0.9361
  121OSM   H15T12829   1.721   6.906   9.407 -1.9767  0.9570  0.4763
  121OSM   C16S12830   1.769   7.042   9.241  0.3538  0.0426 -0.0821
  121OSM   H16S12831   1.859   6.991   9.201 -0.0389 -0.3104 -0.5171
  121OSM   H16T12832   1.785   7.151   9.229 -0.3181 -0.1254 -3.5143
  121OSM   C17S12833   1.643   7.009   9.163  0.6896  0.4962  0.7926
  121OSM   H17S12834   1.552   7.056   9.206 -1.8209 -3.0953 -0.2135
  121OSM   H17T12835   1.628   6.899   9.161  1.2787  0.4205  0.1705
  121OSM   C18S12836   1.657   7.048   9.015 -0.1920  1.1410 -0.1384
  121OSM   H18S12837   1.566   7.028   8.954 -0.9382  1.1980  0.9206
  121OSM   H18T12838   1.740   6.990   8.970 -1.7485  1.2033 -3.3482
  121OSM   H18U12839   1.688   7.153   8.997  1.9192  0.2692 -1.9916
  121OSM    C1F12840   2.112   6.417  10.653 -0.1223  0.2422 -0.0368
  121OSM     OF12841   2.013   6.358  10.692 -0.5730 -0.7919 -0.0980
  121OSM    C2F12842   2.223   6.345  10.581  0.1807  0.5923 -0.6577
  121OSM    H2F12843   2.193   6.238  10.584 -0.4156  0.7629 -0.2667
  121OSM    H2G12844   2.317   6.351  10.640 -1.3703 -1.3356  2.2701
  121OSM    C3F12845   2.239   6.400  10.436  1.0963 -0.8442  0.1439
  121OSM    H3F12846   2.306   6.332  10.379 -1.1230 -1.5484 -1.7794
  121OSM    H3G12847   2.283   6.501  10.452 -0.9023  0.6310 -2.7569
  121OSM    C4F12848   2.114   6.411  10.341 -0.6011 -0.0327 -0.2357
  121OSM    H4F12849   2.049   6.487  10.392 -0.8673 -0.5203  0.1623
  121OSM    H4G12850   2.058   6.315  10.338 -0.9836  0.0625  1.8722
  121OSM    C5F12851   2.145   6.464  10.203  0.3145 -0.6536  0.0403
  121OSM    H5F12852   2.205   6.384  10.153 -1.3317 -2.2887  0.5993
  121OSM    H5G12853   2.211   6.552  10.220  0.4397 -1.2138  2.8630
  121OSM    C6F12854   2.022   6.498  10.120  0.5331 -0.2752  0.1933
  121OSM    H6F12855   1.962   6.576  10.172 -0.6418  0.4582 -2.1179
  121OSM    H6G12856   1.954   6.411  10.105 -1.2496  1.2796 -1.2689
  121OSM    C7F12857   2.063   6.558   9.983  0.2082  0.7128  0.1875
  121OSM    H7F12858   2.151   6.503   9.943 -1.5614 -2.4499  0.3032
  121OSM    H7G12859   2.095   6.662  10.005  0.8587  0.2459  1.5823
  121OSM    C8F12860   1.954   6.568   9.870 -0.6550  0.4100 -1.4677
  121OSM    H8F12861   1.865   6.622   9.911  0.4774  1.7270 -0.6481
  121OSM    H8G12862   1.922   6.463   9.853  0.3888 -0.0914 -0.4433
  121OSM    C9F12863   2.001   6.630   9.743  0.1047  0.0381  0.2439
  121OSM    H9F12864   2.082   6.703   9.758 -0.8293  0.8512  1.5106
  121OSM   C10F12865   1.954   6.607   9.623 -0.1381  0.4264 -0.2789
  121OSM   H10F12866   1.991   6.673   9.543  2.2934 -0.0239  0.3994
  121OSM   C11F12867   1.854   6.503   9.591  0.8454  0.3730  0.1041
  121OSM   H11F12868   1.818   6.444   9.678  1.6624 -0.0942  0.1365
  121OSM   H11G12869   1.901   6.434   9.518  2.1267  1.4407 -0.1355
  121OSM   C12F12870   1.722   6.560   9.540  0.7234 -0.3581 -0.6686
  121OSM   H12F12871   1.682   6.634   9.613  0.5479 -1.3323  0.2551
  121OSM   H12G12872   1.635   6.491   9.546 -0.3336  1.0372  1.7120
  121OSM   C13F12873   1.738   6.615   9.396  0.1689 -0.2035  0.0591
  121OSM   H13F12874   1.832   6.676   9.394  0.2824 -0.2548  1.8418
  121OSM   H13G12875   1.654   6.684   9.375  1.1131  0.5747 -1.3704
  121OSM   C14F12876   1.740   6.510   9.287 -0.6021 -0.1119  0.4520
  121OSM   H14F12877   1.692   6.416   9.324  0.4728 -0.0831  2.0672
  121OSM   H14G12878   1.845   6.474   9.278 -1.2928 -1.6782 -2.2567
  121OSM   C15F12879   1.677   6.559   9.161  0.1489  0.2466 -0.0443
  121OSM   H15F12880   1.728   6.645   9.114 -0.7382  1.4088  1.0347
  121OSM   H15G12881   1.569   6.581   9.177  0.6113  0.9536  2.5902
  121OSM   C16F12882   1.681   6.442   9.054  0.0513  0.4603  0.0511
  121OSM   H16F12883   1.632   6.350   9.092  2.9367 -1.3216 -0.2835
  121OSM   H16G12884   1.785   6.417   9.025 -0.2103  0.3657 -0.8238
  121OSM   C17F12885   1.631   6.496   8.923  0.5281 -0.2798 -0.5456
  121OSM   H17F12886   1.612   6.410   8.855 -0.3618 -2.6649  2.4879
  121OSM   H17G12887   1.711   6.557   8.876  2.3706 -0.1538  2.4805
  121OSM   C18F12888   1.494   6.576   8.925  0.0553  0.2415  0.1301
  121OSM   H18F12889   1.423   6.521   8.990 -2.0503  2.2878 -0.3058
  121OSM   H18G12890   1.458   6.571   8.820  0.4226 -0.0372  0.0148
  121OSM   H18H12891   1.502   6.682   8.957  0.0090  0.1870  0.3192
  122OSM      N12892   2.144   3.527  11.210  0.6362  0.1665 -0.0070
  122OSM    C1512893   2.021   3.608  11.259 -0.2531 -0.3084  0.2378
  122OSM   H15A12894   1.925   3.565  11.236  0.5984 -1.0899 -2.1820
  122OSM   H15B12895   2.026   3.707  11.215  2.5368  2.8510  6.3710
  122OSM   H15C12896   2.033   3.630  11.364  0.8161 -0.6951  0.2079
  122OSM    C1412897   2.244   3.592  11.299 -0.3631 -0.0863 -0.1410
  122OSM   H14A12898   2.250   3.700  11.296 -0.2672 -0.0916 -0.1457
  122OSM   H14B12899   2.337   3.543  11.276 -0.3426  0.7390 -1.9948
  122OSM   H14C12900   2.235   3.568  11.404  1.9850  1.0524  0.3755
  122OSM    C1312901   2.121   3.386  11.252 -0.0408  0.6527  0.4291
  122OSM   H13A12902   2.206   3.324  11.229  0.9859  0.2898  4.4192
  122OSM   H13B12903   2.038   3.345  11.196  1.5687 -0.7036 -1.0592
  122OSM   H13C12904   2.102   3.374  11.358  0.3710 -4.1381  0.1490
  122OSM    C1212905   2.161   3.566  11.060  0.2375  0.5599  0.3534
  122OSM   H12A12906   2.161   3.673  11.048 -4.1946  0.5694 -1.1792
  122OSM   H12B12907   2.066   3.545  11.015 -0.2539 -0.6430  1.8476
  122OSM    C1112908   2.274   3.498  10.972  0.0798 -0.2140 -0.0829
  122OSM   H11A12909   2.266   3.520  10.864 -1.8370 -1.5707 -0.2699
  122OSM   H11B12910   2.276   3.389  10.991  2.1725  0.1317  2.3316
  122OSM      P12911   2.455   3.690  10.991 -0.1557 -0.0096  0.0819
  122OSM    O1312912   2.357   3.780  11.054  0.1414  0.0825  0.9006
  122OSM    O1412913   2.593   3.708  11.045 -0.0253  0.6046 -0.5330
  122OSM    O1112914   2.471   3.707  10.841 -0.2463  0.4605  0.5072
  122OSM    O1212915   2.407   3.538  11.016  0.2302 -0.3435  0.3807
  122OSM    C1S12916   2.548   3.605  10.770  0.0715  0.1182  0.2363
  122OSM    H1S12917   2.498   3.508  10.790 -1.4958  0.5393 -1.4631
  122OSM    H1T12918   2.644   3.593  10.826 -0.9684  3.7273  3.2097
  122OSM     NF12919   2.603   3.527  10.540 -0.3733 -0.0987  0.9813
  122OSM    HNF12920   2.698   3.498  10.542 -0.7518 -1.6453 -0.6119
  122OSM    C2S12921   2.563   3.642  10.624  0.2106  0.2558  0.3003
  122OSM    H2S12922   2.466   3.683  10.587 -1.1419 -3.2959 -0.4590
  122OSM    C3S12923   2.676   3.755  10.609 -0.2866  0.4047 -0.3915
  122OSM    H3S12924   2.769   3.705  10.644 -0.3422  1.9333  2.1377
  122OSM     O312925   2.645   3.862  10.700 -0.2742  0.2405  0.2697
  122OSM    HO312926   2.593   3.811  10.762 -0.7004 -0.8856 -0.9689
  122OSM    C4S12927   2.695   3.803  10.470 -0.5620 -0.1954  0.4466
  122OSM    H4S12928   2.759   3.742  10.404  1.4704 -0.8974  2.8965
  122OSM    C5S12929   2.636   3.913  10.411 -0.0323 -0.3484  0.4268
  122OSM    H5S12930   2.566   3.976  10.467  0.9133  0.8526  0.3005
  122OSM    C6S12931   2.662   3.957  10.271 -0.2566 -0.0582  0.0742
  122OSM    H6S12932   2.566   3.980  10.221  1.5098 -0.4234 -3.8965
  122OSM    H6T12933   2.697   3.869  10.212  1.9739  1.5185 -1.1223
  122OSM    C7S12934   2.759   4.078  10.261  0.3677 -0.2629  0.0981
  122OSM    H7S12935   2.859   4.046  10.297  1.6373 -1.0800 -3.7083
  122OSM    H7T12936   2.710   4.157  10.321  1.1736  0.1198  0.2629
  122OSM    C8S12937   2.786   4.110  10.113 -0.2099 -0.4893 -0.4966
  122OSM    H8S12938   2.735   4.206  10.089  1.3651  0.4505 -0.1862
  122OSM    H8T12939   2.734   4.029  10.058 -0.0457 -1.5863  0.9189
  122OSM    C9S12940   2.933   4.108  10.077  1.0903 -0.3118  0.3565
  122OSM    H9S12941   2.980   4.029  10.139  1.3685 -0.3963  0.0459
  122OSM    H9T12942   2.982   4.198  10.118 -2.8008  1.4724  1.5286
  122OSM   C10S12943   2.940   4.095   9.924 -0.6591 -0.1546 -0.5426
  122OSM   H10S12944   2.911   4.186   9.867 -1.8594 -0.7728 -0.9465
  122OSM   H10T12945   2.875   4.012   9.888 -2.8893  1.2036  0.1405
  122OSM   C11S12946   3.083   4.070   9.882  0.3668 -0.1731  0.2336
  122OSM   H11S12947   3.126   3.985   9.940 -0.0917  0.4095  1.4607
  122OSM   H11T12948   3.148   4.157   9.907 -2.5288  2.0418  0.5993
  122OSM   C12S12949   3.100   4.038   9.731  0.1824  0.0985  0.1173
  122OSM   H12S12950   3.210   4.031   9.723  0.0707 -0.7689 -0.9915
  122OSM   H12T12951   3.062   4.134   9.690 -1.7575 -0.8790 -0.5350
  122OSM   C13S12952   3.033   3.908   9.674  0.4028  1.0400 -1.1483
  122OSM   H13S12953   2.922   3.917   9.672  0.1560 -1.0346  0.0390
  122OSM   H13T12954   3.043   3.825   9.747  0.8523  1.2556 -0.9671
  122OSM   C14S12955   3.096   3.868   9.535  0.1648 -0.2655  0.1260
  122OSM   H14S12956   3.046   3.773   9.505  0.8034 -0.2439 -1.0544
  122OSM   H14T12957   3.204   3.843   9.538  0.6675  1.6878 -0.1918
  122OSM   C15S12958   3.070   3.989   9.437 -0.6093 -0.1990 -0.1924
  122OSM   H15S12959   3.128   4.078   9.470 -1.1655  0.4468 -0.9172
  122OSM   H15T12960   2.962   4.013   9.434 -0.8442 -1.2749 -1.0382
  122OSM   C16S12961   3.099   3.949   9.288  0.1561 -1.2464 -0.0235
  122OSM   H16S12962   3.061   3.848   9.262 -1.2803 -0.4337 -1.1960
  122OSM   H16T12963   3.210   3.941   9.278  0.4774  2.1362 -0.2763
  122OSM   C17S12964   3.054   4.045   9.176 -0.3440 -0.3551  0.3997
  122OSM   H17S12965   3.113   4.134   9.207  1.1796 -0.8406 -0.9499
  122OSM   H17T12966   2.947   4.066   9.192 -0.5204 -0.7867 -0.1707
  122OSM   C18S12967   3.080   4.008   9.031  0.0579  0.3956 -0.0349
  122OSM   H18S12968   3.188   3.994   9.009 -0.2766 -3.0052 -0.0537
  122OSM   H18T12969   3.045   4.087   8.961 -0.0928  1.5455  1.3070
  122OSM   H18U12970   3.039   3.905   9.018  0.0244  0.1593  1.7730
  122OSM    C1F12971   2.521   3.437  10.492  0.1255  0.3637 -0.5280
  122OSM     OF12972   2.405   3.434  10.537 -0.3205  0.2847 -0.7497
  122OSM    C2F12973   2.571   3.342  10.387 -0.0030  0.2149  0.3336
  122OSM    H2F12974   2.682   3.341  10.392  0.0438  2.0424  0.4751
  122OSM    H2G12975   2.535   3.374  10.287 -0.5050  0.4332  0.5787
  122OSM    C3F12976   2.510   3.201  10.413 -0.4211 -0.4577  0.9750
  122OSM    H3F12977   2.403   3.199  10.443 -0.6362  0.6999  0.3207
  122OSM    H3G12978   2.563   3.161  10.502  1.9300  0.6068  0.1342
  122OSM    C4F12979   2.536   3.114  10.290 -0.0392 -0.6170  0.0693
  122OSM    H4F12980   2.584   3.023  10.334  1.4560  0.6668  1.2007
  122OSM    H4G12981   2.619   3.155  10.229  2.7584  1.0078  4.4100
  122OSM    C5F12982   2.413   3.070  10.220  0.1799  0.2264  0.1587
  122OSM    H5F12983   2.370   3.158  10.168 -0.5722 -1.1598 -1.7364
  122OSM    H5G12984   2.344   3.019  10.291  0.9703  2.0630  2.3472
  122OSM    C6F12985   2.444   2.963  10.108  0.1882 -0.6864 -0.1443
  122OSM    H6F12986   2.341   2.925  10.086 -0.5130  0.6951  0.6248
  122OSM    H6G12987   2.492   2.871  10.149 -0.0285 -1.0729 -0.7421
  122OSM    C7F12988   2.524   3.024   9.994 -0.5964 -0.1260  0.0247
  122OSM    H7F12989   2.627   3.032  10.034 -0.1657 -1.2260 -0.7862
  122OSM    H7G12990   2.469   3.118   9.970  1.3700  1.6813  2.1720
  122OSM    C8F12991   2.522   2.932   9.868  0.8912 -0.0579  0.7989
  122OSM    H8F12992   2.573   2.993   9.790  0.1498  0.4766  0.7248
  122OSM    H8G12993   2.419   2.914   9.831  1.1123 -0.5622  0.4160
  122OSM    C9F12994   2.596   2.800   9.885  0.1607  0.5040  0.1226
  122OSM    H9F12995   2.547   2.730   9.956  2.1226 -0.9800  0.0922
  122OSM   C10F12996   2.711   2.753   9.828 -0.6754  0.2528 -0.1709
  122OSM   H10F12997   2.746   2.650   9.839  0.0479  0.6264  1.1858
  122OSM   C11F12998   2.795   2.847   9.738  0.1003 -0.3082 -0.0797
  122OSM   H11F12999   2.900   2.848   9.775  0.1774  4.0424  0.1416
  122OSM   H11G13000   2.762   2.952   9.728 -0.4449 -0.2918  1.5641
  122OSM   C12F13001   2.784   2.782   9.601 -0.3408  0.2848 -0.2991
  122OSM   H12F13002   2.677   2.763   9.580 -0.4492 -3.4234  2.7026
  122OSM   H12G13003   2.823   2.679   9.597  1.0875  0.5984  2.9245
  122OSM   C13F13004   2.849   2.869   9.490 -0.6113 -0.3377  0.3240
  122OSM   H13F13005   2.959   2.876   9.495 -0.6991  0.9453  1.0335
  122OSM   H13G13006   2.826   2.975   9.515 -3.2193 -0.2232 -2.0496
  122OSM   C14F13007   2.793   2.831   9.345  1.7469  0.6116 -0.3730
  122OSM   H14F13008   2.682   2.823   9.344  1.6271  2.0358 -0.8526
  122OSM   H14G13009   2.820   2.728   9.314  2.1959  1.0461 -1.4637
  122OSM   C15F13010   2.839   2.925   9.234 -0.3155  0.2142  0.4020
  122OSM   H15F13011   2.949   2.939   9.227 -0.4322  1.1461  0.2328
  122OSM   H15G13012   2.793   3.024   9.255  0.1113 -0.0067  2.5897
  122OSM   C16F13013   2.782   2.877   9.097 -0.5712  0.5741 -0.5566
  122OSM   H16F13014   2.806   2.945   9.012 -0.7359 -0.7565 -1.6972
  122OSM   H16G13015   2.672   2.886   9.111 -0.2959  0.7945  2.0032
  122OSM   C17F13016   2.779   2.731   9.060  1.0906  0.3097  0.2471
  122OSM   H17F13017   2.715   2.683   9.137 -1.9745  1.0172 -1.6789
  122OSM   H17G13018   2.875   2.677   9.078 -0.4765 -1.5380  4.2397
  122OSM   C18F13019   2.715   2.689   8.923  0.1348 -0.6565  0.6390
  122OSM   H18F13020   2.776   2.734   8.842  0.0395 -0.1030  0.8671
  122OSM   H18G13021   2.619   2.744   8.912  0.0136 -1.0323 -0.2915
  122OSM   H18H13022   2.692   2.581   8.910  0.8138 -0.8543  1.0597
  123OSM      N13023   0.453   0.472   5.717 -0.6199  0.1766  0.5222
  123OSM    C1513024   0.587   0.526   5.759  0.4319  0.2298 -0.4919
  123OSM   H15A13025   0.673   0.468   5.730 -0.0445 -0.6358 -0.2063
  123OSM   H15B13026   0.601   0.529   5.866  1.1770  0.9919 -0.5941
  123OSM   H15C13027   0.600   0.630   5.731 -0.6393 -0.0784 -2.2791
  123OSM    C1413028   0.436   0.475   5.573  0.6347  0.5541 -0.0330
  123OSM   H14A13029   0.523   0.428   5.529  0.3355  0.8734 -0.9894
  123OSM   H14B13030   0.441   0.579   5.544 -1.2762  0.7539  0.2185
  123OSM   H14C13031   0.345   0.434   5.532  1.4842 -1.4172 -0.0428
  123OSM    C1313032   0.445   0.332   5.769 -0.5936  0.4928  0.6271
  123OSM   H13A13033   0.348   0.290   5.743  0.0370  0.4711 -2.0321
  123OSM   H13B13034   0.439   0.327   5.876  0.8213  1.1613  0.7568
  123OSM   H13C13035   0.527   0.282   5.721 -1.2280 -0.5136  0.5524
  123OSM    C1213036   0.344   0.556   5.768  1.3377  0.1827 -0.9460
  123OSM   H12A13037   0.257   0.515   5.720  0.5705  0.5929  0.0726
  123OSM   H12B13038   0.356   0.661   5.747 -1.7071  1.3077  2.1475
  123OSM    C1113039   0.318   0.552   5.921 -0.4570  0.3345 -0.2797
  123OSM   H11A13040   0.264   0.456   5.928 -0.2140  0.2632  0.9604
  123OSM   H11B13041   0.235   0.624   5.939 -0.3595  0.3272  0.2236
  123OSM      P13042   0.480   0.718   6.045 -0.3717  0.2523 -0.0067
  123OSM    O1313043   0.608   0.734   5.977 -0.3417 -0.2808 -0.2703
  123OSM    O1413044   0.364   0.809   6.013  0.2289 -0.4567 -0.0348
  123OSM    O1113045   0.504   0.738   6.196 -0.4340  0.4392  0.8637
  123OSM    O1213046   0.432   0.569   6.005 -0.1096 -1.0758  0.0338
  123OSM    C1S13047   0.388   0.729   6.288  0.7123 -0.2978 -0.1650
  123OSM    H1S13048   0.341   0.628   6.287 -4.2230  1.7688 -0.7358
  123OSM    H1T13049   0.313   0.808   6.267 -2.8081 -4.1425 -4.2083
  123OSM     NF13050   0.334   0.735   6.535  0.4533 -0.2143 -0.8207
  123OSM    HNF13051   0.273   0.811   6.553  0.1353 -0.2331 -1.7679
  123OSM    C2S13052   0.440   0.758   6.432  0.1292 -0.0195  0.3956
  123OSM    H2S13053   0.516   0.678   6.443 -0.1235 -0.2895  0.1864
  123OSM    C3S13054   0.503   0.902   6.431 -0.3900  0.3408 -0.8927
  123OSM    H3S13055   0.426   0.974   6.393 -0.2003  1.7998  1.2722
  123OSM     O313056   0.611   0.914   6.338 -0.1684  0.1530 -0.0185
  123OSM    HO313057   0.591   0.840   6.281  1.3813 -2.4516  2.5624
  123OSM    C4S13058   0.555   0.936   6.571  0.2412  0.5156  0.0287
  123OSM    H4S13059   0.617   0.854   6.609 -0.4713 -0.3571 -0.6656
  123OSM    C5S13060   0.516   1.030   6.652 -0.9705 -0.3421 -0.1037
  123OSM    H5S13061   0.457   1.118   6.620 -1.6037 -0.5783  0.3877
  123OSM    C6S13062   0.572   1.049   6.789 -0.0944  0.0346  0.0186
  123OSM    H6S13063   0.605   1.154   6.803  0.3959 -0.1088 -0.0056
  123OSM    H6T13064   0.662   0.986   6.809  0.8921  1.9680  2.1361
  123OSM    C7S13065   0.477   1.026   6.909 -0.5870  0.5119  0.0706
  123OSM    H7S13066   0.401   1.107   6.918 -3.1318 -1.7387 -0.0614
  123OSM    H7T13067   0.535   1.037   7.003 -1.0438  1.4494  0.2542
  123OSM    C8S13068   0.392   0.900   6.910 -0.1274 -0.4772 -0.2589
  123OSM    H8S13069   0.468   0.819   6.913  1.5048  0.9992  0.1477
  123OSM    H8T13070   0.332   0.882   6.818  2.2860  1.7552 -2.4476
  123OSM    C9S13071   0.315   0.887   7.046  0.2318  0.0078  0.1371
  123OSM    H9S13072   0.251   0.796   7.043 -2.0722  1.5616 -0.6324
  123OSM    H9T13073   0.248   0.976   7.040 -1.3525 -1.1997 -1.1067
  123OSM   C10S13074   0.393   0.878   7.181  0.7419  0.2183 -0.2959
  123OSM   H10S13075   0.466   0.962   7.177  2.0075 -0.8640 -0.8567
  123OSM   H10T13076   0.458   0.787   7.178 -0.1341 -0.3987 -1.6290
  123OSM   C11S13077   0.309   0.870   7.306  0.7372  0.6049 -0.0386
  123OSM   H11S13078   0.273   0.765   7.304  2.3851  0.0069  0.6539
  123OSM   H11T13079   0.227   0.944   7.290  0.7084  0.3859 -0.9667
  123OSM   C12S13080   0.400   0.885   7.428  0.6499 -0.0872  0.0613
  123OSM   H12S13081   0.432   0.991   7.432 -1.5543  0.7569 -1.8501
  123OSM   H12T13082   0.475   0.803   7.427 -2.5625 -3.3415  1.9909
  123OSM   C13S13083   0.320   0.860   7.555  0.0397 -0.2031 -0.4167
  123OSM   H13S13084   0.304   0.750   7.555  2.6104 -0.6518  0.4687
  123OSM   H13T13085   0.223   0.913   7.557 -1.0326 -2.0813  0.3562
  123OSM   C14S13086   0.403   0.901   7.676  0.0705  0.3479  0.0529
  123OSM   H14S13087   0.436   1.006   7.662  1.3229 -0.1960 -1.3009
  123OSM   H14T13088   0.496   0.843   7.689 -0.6117 -2.0821 -4.0703
  123OSM   C15S13089   0.327   0.884   7.813  0.3913  0.3629 -0.5368
  123OSM   H15S13090   0.302   0.778   7.838  1.2867  0.3053  0.1723
  123OSM   H15T13091   0.230   0.936   7.800 -0.1561  0.2403  2.4653
  123OSM   C16S13092   0.396   0.941   7.937  0.3159 -0.3552  0.5077
  123OSM   H16S13093   0.441   1.041   7.921  1.1073 -0.8421 -0.3870
  123OSM   H16T13094   0.479   0.873   7.963 -0.3039 -1.3339 -0.0156
  123OSM   C17S13095   0.299   0.960   8.053 -0.0373 -0.0712  0.3638
  123OSM   H17S13096   0.252   0.859   8.048  1.7890 -0.8881 -1.4212
  123OSM   H17T13097   0.226   1.036   8.018 -2.0163 -2.7873 -1.8360
  123OSM   C18S13098   0.355   1.001   8.195  0.1056 -0.1874 -0.6316
  123OSM   H18S13099   0.411   1.097   8.191 -2.5041  1.4286 -0.8123
  123OSM   H18T13100   0.432   0.928   8.227  1.3825  1.3200 -0.1659
  123OSM   H18U13101   0.278   1.008   8.275  0.1426 -1.7996 -0.4268
  123OSM    C1F13102   0.306   0.612   6.590  0.0027  0.2039  0.2548
  123OSM     OF13103   0.379   0.519   6.558  0.3627  0.0921 -0.3776
  123OSM    C2F13104   0.185   0.605   6.674 -0.1863  0.5253 -0.2532
  123OSM    H2F13105   0.098   0.629   6.609 -1.5856 -0.5125  1.1542
  123OSM    H2G13106   0.192   0.691   6.744  0.3298  0.8221 -0.6593
  123OSM    C3F13107   0.164   0.476   6.745  0.1810 -0.0723 -0.0960
  123OSM    H3F13108   0.256   0.434   6.792  0.2710 -0.2540 -0.4316
  123OSM    H3G13109   0.121   0.413   6.664 -1.9289  1.0995  0.0282
  123OSM    C4F13110   0.052   0.490   6.850 -0.0771 -0.0062  0.2322
  123OSM    H4F13111  -0.017   0.404   6.843 -0.4198  0.3672 -1.3541
  123OSM    H4G13112  -0.008   0.578   6.818 -1.3744 -1.2711 -0.9452
  123OSM    C5F13113   0.101   0.483   6.990 -0.2206  0.1793  0.6511
  123OSM    H5F13114   0.167   0.568   7.018 -1.0088  0.7359  0.8423
  123OSM    H5G13115   0.174   0.399   6.982  0.1459  0.6498 -1.7248
  123OSM    C6F13116  -0.001   0.456   7.104 -0.0985  0.0453 -0.2228
  123OSM    H6F13117  -0.072   0.373   7.081  0.6304 -0.4246 -0.8613
  123OSM    H6G13118  -0.062   0.548   7.114  0.1821  0.2103  0.0138
  123OSM    C7F13119   0.066   0.441   7.237 -0.0009  0.1619 -0.5336
  123OSM    H7F13120   0.104   0.537   7.278  3.0474 -0.9910 -0.4065
  123OSM    H7G13121   0.157   0.378   7.229  0.9726  1.6738 -1.6280
  123OSM    C8F13122  -0.035   0.378   7.346  0.1841 -0.3767  0.5274
  123OSM    H8F13123   0.021   0.342   7.435  1.4658 -1.1650 -0.5618
  123OSM    H8G13124  -0.079   0.285   7.304  3.1343 -2.6984  2.1303
  123OSM    C9F13125  -0.149   0.471   7.377  0.0489  0.5788  0.5289
  123OSM    H9F13126  -0.117   0.575   7.363  0.5848  0.3295 -0.1578
  123OSM   C10F13127  -0.264   0.444   7.435  0.4363  0.9916 -0.0765
  123OSM   H10F13128  -0.342   0.521   7.429  0.4926  0.9778 -1.2256
  123OSM   C11F13129  -0.305   0.310   7.495 -0.1537  0.4850 -0.0108
  123OSM   H11F13130  -0.212   0.252   7.515  0.3338  0.8050 -1.2377
  123OSM   H11G13131  -0.364   0.252   7.421  0.2601 -0.8208  0.6548
  123OSM   C12F13132  -0.374   0.329   7.637 -0.6919  0.6144 -0.0953
  123OSM   H12F13133  -0.426   0.233   7.658 -0.1617  0.0832 -1.1222
  123OSM   H12G13134  -0.451   0.409   7.633 -0.6031  0.9290  2.6049
  123OSM   C13F13135  -0.268   0.366   7.742 -0.3123 -0.5370  0.7278
  123OSM   H13F13136  -0.216   0.464   7.733  0.1063 -0.8958 -1.1252
  123OSM   H13G13137  -0.176   0.304   7.737  1.7160  2.2745  0.4667
  123OSM   C14F13138  -0.312   0.354   7.890  0.2899  0.3742  0.4436
  123OSM   H14F13139  -0.221   0.375   7.950  0.4968  0.0053  0.2621
  123OSM   H14G13140  -0.346   0.252   7.916  1.5535  0.3027  1.9735
  123OSM   C15F13141  -0.408   0.470   7.927 -0.1134  0.5741 -0.9231
  123OSM   H15F13142  -0.493   0.482   7.857 -0.8385 -0.5756 -0.2660
  123OSM   H15G13143  -0.358   0.569   7.923 -2.7737  2.0231 -0.6811
  123OSM   C16F13144  -0.458   0.444   8.070 -0.2388 -0.1224  1.0219
  123OSM   H16F13145  -0.377   0.415   8.141  0.4448 -1.4682 -0.2591
  123OSM   H16G13146  -0.538   0.367   8.068 -0.8605  0.4426  2.5258
  123OSM   C17F13147  -0.533   0.568   8.129 -0.3387 -0.6095 -0.0523
  123OSM   H17F13148  -0.460   0.651   8.126 -1.0430 -0.0020 -0.7897
  123OSM   H17G13149  -0.549   0.539   8.236  2.0523 -1.0870  0.2307
  123OSM   C18F13150  -0.654   0.598   8.047  0.1330 -0.1434  0.3723
  123OSM   H18F13151  -0.733   0.521   8.053 -3.3335  3.2623  3.8664
  123OSM   H18G13152  -0.633   0.618   7.939 -1.6206  1.6061  0.2871
  123OSM   H18H13153  -0.710   0.691   8.072 -0.7358 -0.5116 -0.1430
  124OSM      N13154   2.073   4.688   6.279  0.6393 -0.2757 -0.0093
  124OSM    C1513155   2.049   4.815   6.351  0.4582 -0.5987 -0.1380
  124OSM   H15A13156   1.957   4.811   6.408 -0.3133 -2.3740 -1.4041
  124OSM   H15B13157   2.046   4.903   6.287  0.3121 -1.1784 -0.9435
  124OSM   H15C13158   2.131   4.840   6.417  0.3463  1.3772 -0.6681
  124OSM    C1413159   1.946   4.646   6.218  0.3394  0.0923  0.6018
  124OSM   H14A13160   1.919   4.718   6.142  0.0634 -2.1735 -1.5759
  124OSM   H14B13161   1.870   4.635   6.294 -0.0956 -1.6313 -0.0164
  124OSM   H14C13162   1.971   4.552   6.170 -0.6142  0.1826 -0.1209
  124OSM    C1313163   2.173   4.708   6.175 -0.0365  0.0462  0.2023
  124OSM   H13A13164   2.274   4.717   6.213 -0.1520 -0.1581  0.5631
  124OSM   H13B13165   2.153   4.790   6.107  1.7271 -0.7745 -1.3782
  124OSM   H13C13166   2.175   4.619   6.115  2.6360  0.7508 -0.8959
  124OSM    C1213167   2.125   4.590   6.382  0.4467  0.6234 -0.2592
  124OSM   H12A13168   2.048   4.587   6.458  0.1941 -2.1092 -0.5353
  124OSM   H12B13169   2.213   4.622   6.435  0.6454 -0.3938  0.0445
  124OSM    C1113170   2.141   4.452   6.317  0.0137  0.4709  0.3596
  124OSM   H11A13171   2.223   4.405   6.375  1.4771  1.3946 -0.8794
  124OSM   H11B13172   2.178   4.454   6.213 -1.0863 -0.8123 -0.0863
  124OSM      P13173   2.000   4.235   6.292 -0.0462 -0.2459  0.1761
  124OSM    O1313174   1.859   4.196   6.299 -0.3982  0.4658 -0.4495
  124OSM    O1413175   2.073   4.216   6.165 -0.3495  0.5667 -0.1330
  124OSM    O1113176   2.074   4.170   6.413 -0.1194 -0.8848  0.9000
  124OSM    O1213177   2.013   4.385   6.335  0.0487  0.2052 -0.4095
  124OSM    C1S13178   2.055   4.231   6.542  0.5938 -0.3355 -0.1125
  124OSM    H1S13179   1.949   4.248   6.569  0.9805 -0.6226  1.7437
  124OSM    H1T13180   2.105   4.330   6.549  2.7122 -1.4587  2.9918
  124OSM     NF13181   2.053   4.196   6.793 -0.2012  0.2386 -0.4601
  124OSM    HNF13182   2.114   4.260   6.840  2.1021 -1.2115 -1.2667
  124OSM    C2S13183   2.120   4.150   6.668 -0.2579  0.4707  1.3943
  124OSM    H2S13184   2.091   4.044   6.652  0.0735  0.5898 -0.0735
  124OSM    C3S13185   2.279   4.157   6.653 -0.7642 -0.6268 -0.4330
  124OSM    H3S13186   2.311   4.263   6.658 -1.4032 -0.4751  1.0226
  124OSM     O313187   2.319   4.107   6.525  0.3174 -0.0577  0.5360
  124OSM    HO313188   2.238   4.104   6.474  0.4324  3.5844 -0.0979
  124OSM    C4S13189   2.344   4.080   6.764  0.0494  0.6662 -0.1785
  124OSM    H4S13190   2.315   3.974   6.777 -0.1084  0.6263 -0.8172
  124OSM    C5S13191   2.446   4.125   6.834  0.0197  0.2000 -0.3214
  124OSM    H5S13192   2.484   4.227   6.816  2.3907 -0.1911  1.7921
  124OSM    C6S13193   2.513   4.048   6.943 -0.1442  0.2717 -0.7170
  124OSM    H6S13194   2.585   4.114   6.996  0.7244 -1.4387  0.3187
  124OSM    H6T13195   2.593   3.988   6.895  1.4939  2.5064 -0.9690
  124OSM    C7S13196   2.433   3.957   7.040 -0.7052 -0.7511  0.2662
  124OSM    H7S13197   2.363   3.897   6.978 -4.1232  2.6280  0.5238
  124OSM    H7T13198   2.365   4.028   7.091  1.0524  1.0304  0.2778
  124OSM    C8S13199   2.525   3.877   7.135  0.9130  0.3731  0.4631
  124OSM    H8S13200   2.585   3.960   7.179  0.2699  0.8216  0.5049
  124OSM    H8T13201   2.591   3.803   7.086  1.5498  1.4349 -0.3421
  124OSM    C9S13202   2.434   3.814   7.238  0.0497 -0.5594  0.1299
  124OSM    H9S13203   2.390   3.715   7.214  1.8890 -1.5474  0.5743
  124OSM    H9T13204   2.344   3.878   7.240  0.7077  0.3826  0.1663
  124OSM   C10S13205   2.496   3.785   7.372 -0.4834 -0.3972  0.6067
  124OSM   H10S13206   2.602   3.817   7.369 -0.9773  1.2883 -1.8283
  124OSM   H10T13207   2.505   3.676   7.387  0.8197 -0.8095 -2.5389
  124OSM   C11S13208   2.411   3.850   7.491  0.1135 -0.0572  0.1532
  124OSM   H11S13209   2.309   3.806   7.486  0.1682 -0.2345  0.5488
  124OSM   H11T13210   2.405   3.961   7.479  2.3230 -0.0002 -0.8632
  124OSM   C12S13211   2.469   3.822   7.630  0.8533  0.2433 -0.0189
  124OSM   H12S13212   2.574   3.858   7.633  0.5695  1.0430  1.1053
  124OSM   H12T13213   2.467   3.713   7.652 -0.2109 -0.2004 -2.0790
  124OSM   C13S13214   2.390   3.899   7.738  0.1602  0.9145  0.4521
  124OSM   H13S13215   2.282   3.876   7.730  0.7027 -1.4592 -0.9564
  124OSM   H13T13216   2.412   4.007   7.722  0.5541  1.0089  1.4985
  124OSM   C14S13217   2.443   3.860   7.879  0.2710  0.6589  0.3032
  124OSM   H14S13218   2.554   3.868   7.886  0.3909 -0.6277  0.2116
  124OSM   H14T13219   2.414   3.753   7.885  0.8060  0.3181 -2.1795
  124OSM   C15S13220   2.378   3.954   7.990 -0.3170  1.0690  0.4041
  124OSM   H15S13221   2.425   4.055   7.984  2.7141 -0.2904 -1.3592
  124OSM   H15T13222   2.413   3.910   8.086  1.6713  0.7644 -0.4047
  124OSM   C16S13223   2.227   3.977   7.990  0.1361  0.0520 -0.3535
  124OSM   H16S13224   2.170   3.882   7.987 -0.3969  0.3144  0.8894
  124OSM   H16T13225   2.216   4.036   7.896  1.4168  0.7722 -0.0759
  124OSM   C17S13226   2.173   4.062   8.110 -0.7454 -1.2884  0.2740
  124OSM   H17S13227   2.200   4.169   8.107 -0.0192 -1.4737 -2.2224
  124OSM   H17T13228   2.210   4.025   8.208  1.5596 -1.8798 -0.7430
  124OSM   C18S13229   2.020   4.062   8.109  0.3241 -0.5291 -0.0178
  124OSM   H18S13230   1.985   4.116   8.199  1.8168  2.0524 -0.8906
  124OSM   H18T13231   1.969   3.963   8.113 -1.8134  0.5065 -0.1398
  124OSM   H18U13232   1.973   4.109   8.019 -0.3955  0.0864  0.6636
  124OSM    C1F13233   1.934   4.160   6.812  0.7732 -0.0018 -0.3682
  124OSM     OF13234   1.873   4.095   6.730  0.3432 -0.6286  0.6241
  124OSM    C2F13235   1.868   4.199   6.938 -0.2777  0.3892 -0.3050
  124OSM    H2F13236   1.808   4.292   6.931 -0.5425  0.1463 -1.5696
  124OSM    H2G13237   1.951   4.207   7.011  0.4762  1.2924 -1.2398
  124OSM    C3F13238   1.759   4.090   6.988 -1.2091  0.1302 -0.5935
  124OSM    H3F13239   1.820   3.998   6.996  1.0926  1.3286 -2.7993
  124OSM    H3G13240   1.672   4.073   6.922 -1.1209 -2.2049 -0.1882
  124OSM    C4F13241   1.698   4.144   7.134 -0.1117  0.2705  0.4446
  124OSM    H4F13242   1.786   4.198   7.174  2.0511 -2.8883  0.3576
  124OSM    H4G13243   1.682   4.048   7.188  1.0869 -0.7877 -0.9804
  124OSM    C5F13244   1.569   4.219   7.132  0.2702 -0.0601  0.4647
  124OSM    H5F13245   1.495   4.162   7.071  0.3835 -0.1428  0.4035
  124OSM    H5G13246   1.596   4.317   7.087  0.2083 -1.1524 -2.1224
  124OSM    C6F13247   1.514   4.254   7.275  0.2545 -0.5478 -0.5576
  124OSM    H6F13248   1.424   4.317   7.259 -0.0896 -0.8243  0.2502
  124OSM    H6G13249   1.600   4.298   7.328  0.8567 -0.6198 -1.4601
  124OSM    C7F13250   1.468   4.138   7.358  0.3059 -0.2036  0.4354
  124OSM    H7F13251   1.558   4.073   7.364  1.1072  0.8563  0.0930
  124OSM    H7G13252   1.386   4.088   7.301 -0.2878  1.6863 -0.4402
  124OSM    C8F13253   1.423   4.173   7.505 -0.2778 -0.4101  0.2045
  124OSM    H8F13254   1.485   4.251   7.554 -0.1058  1.0057 -2.1228
  124OSM    H8G13255   1.441   4.081   7.565 -1.2864  0.8988  2.6529
  124OSM    C9F13256   1.278   4.213   7.509  0.6108 -0.6218  0.0135
  124OSM    H9F13257   1.251   4.286   7.431  1.7345 -0.4566 -0.2315
  124OSM   C10F13258   1.186   4.154   7.589  0.2325 -0.3029  0.4711
  124OSM   H10F13259   1.088   4.204   7.589 -0.8071 -2.2127  0.6538
  124OSM   C11F13260   1.212   4.044   7.698  0.9718 -0.4490  0.5178
  124OSM   H11F13261   1.323   4.035   7.709  1.3033  1.4908 -0.7132
  124OSM   H11G13262   1.176   3.945   7.663 -1.4887  0.3938  0.5106
  124OSM   C12F13263   1.151   4.077   7.837  0.2708  0.3230 -0.5246
  124OSM   H12F13264   1.147   3.988   7.903  0.7226 -1.5941 -2.9422
  124OSM   H12G13265   1.048   4.110   7.813  0.4888  1.3251 -0.1220
  124OSM   C13F13266   1.222   4.197   7.910  0.4993  0.3593 -0.7164
  124OSM   H13F13267   1.216   4.286   7.844  0.5577  1.0225  0.1479
  124OSM   H13G13268   1.332   4.176   7.908  0.2540 -1.3597  0.8994
  124OSM   C14F13269   1.181   4.219   8.060  0.0242 -0.3688  0.8633
  124OSM   H14F13270   1.234   4.308   8.103  0.3232 -0.3166  0.3977
  124OSM   H14G13271   1.210   4.129   8.118  0.5693 -1.0358 -0.4141
  124OSM   C15F13272   1.029   4.236   8.073  0.3458 -0.1778  0.4378
  124OSM   H15F13273   0.979   4.180   7.991  0.5074  2.4930 -1.6571
  124OSM   H15G13274   0.995   4.336   8.036 -0.6631 -0.7634 -0.2579
  124OSM   C16F13275   0.969   4.210   8.213  0.0175  0.2937 -0.4016
  124OSM   H16F13276   0.862   4.242   8.210  0.2289  1.0384 -3.3686
  124OSM   H16G13277   1.017   4.276   8.288 -0.0768  0.9882 -0.9371
  124OSM   C17F13278   0.970   4.064   8.251  0.3953 -0.0788  0.2493
  124OSM   H17F13279   1.046   4.011   8.190 -0.9647 -1.7456 -0.1002
  124OSM   H17G13280   0.875   4.026   8.208  0.8051  0.0806 -0.8360
  124OSM   C18F13281   0.983   4.037   8.404  0.5544  0.4283  0.2161
  124OSM   H18F13282   1.071   4.093   8.442 -0.4028  1.5480  0.8824
  124OSM   H18G13283   1.010   3.932   8.426  1.6929  0.7565  0.4652
  124OSM   H18H13284   0.895   4.072   8.462  0.1723 -2.3952  1.5019
  125OSM      N13285   1.685   4.778   5.804  0.1232  0.4237  1.5770
  125OSM    C1513286   1.761   4.775   5.672 -0.4409 -0.1176  0.0159
  125OSM   H15A13287   1.855   4.722   5.678  1.1952  2.6572  0.6616
  125OSM   H15B13288   1.775   4.868   5.618 -1.6737  0.1129  0.0627
  125OSM   H15C13289   1.696   4.721   5.604 -0.1422 -0.1564 -0.2405
  125OSM    C1413290   1.562   4.863   5.783 -0.1015  0.4417 -0.0245
  125OSM   H14A13291   1.489   4.820   5.715 -0.8179  0.0181  0.9943
  125OSM   H14B13292   1.589   4.964   5.758  2.9705 -0.1629  0.4824
  125OSM   H14C13293   1.514   4.863   5.879 -0.5033  0.9473 -0.2215
  125OSM    C1313294   1.647   4.634   5.835  0.1616  0.1581 -0.0233
  125OSM   H13A13295   1.731   4.566   5.842  0.3785  0.2406 -1.5683
  125OSM   H13B13296   1.577   4.600   5.761 -0.2393  1.3308 -0.2015
  125OSM   H13C13297   1.592   4.627   5.928 -0.0846 -2.6328 -0.3099
  125OSM    C1213298   1.780   4.843   5.905 -0.2406 -0.4293  0.5518
  125OSM   H12A13299   1.823   4.931   5.860 -1.2529  0.3651  1.0860
  125OSM   H12B13300   1.864   4.776   5.918  0.2767  0.0201 -0.4287
  125OSM    C1113301   1.731   4.876   6.050  0.3155 -0.2984 -0.1380
  125OSM   H11A13302   1.652   4.954   6.037 -0.4453 -0.9090  0.7349
  125OSM   H11B13303   1.808   4.924   6.114  0.1996 -1.7613  1.1469
  125OSM      P13304   1.591   4.772   6.239 -0.1511  0.0080 -0.2105
  125OSM    O1313305   1.473   4.854   6.208 -0.0371  0.3748 -0.5121
  125OSM    O1413306   1.571   4.642   6.311  0.2510 -0.0349 -0.0762
  125OSM    O1113307   1.705   4.850   6.324 -0.5171 -0.6137  0.2966
  125OSM    O1213308   1.674   4.757   6.109 -0.2779  0.3810  0.2683
  125OSM    C1S13309   1.670   4.974   6.381 -0.3073 -0.1772 -0.4419
  125OSM    H1S13310   1.570   5.009   6.347 -0.2223  0.7617  0.2206
  125OSM    H1T13311   1.747   5.047   6.348 -1.4862  0.1598 -2.6007
  125OSM     NF13312   1.626   5.088   6.588  0.0887  0.0382 -0.8310
  125OSM    HNF13313   1.691   5.142   6.641 -0.3225  0.6037 -0.9000
  125OSM    C2S13314   1.663   4.956   6.540 -0.4759  0.1925  0.3425
  125OSM    H2S13315   1.579   4.887   6.562 -0.5620  1.0813  3.2047
  125OSM    C3S13316   1.794   4.897   6.584 -0.5987  0.6800  0.5575
  125OSM    H3S13317   1.874   4.954   6.530 -1.1246  1.6647  0.8005
  125OSM     O313318   1.814   4.757   6.554 -0.0079  0.0129  1.0334
  125OSM    HO313319   1.742   4.752   6.490 -0.5358  2.8585  1.2810
  125OSM    C4S13320   1.809   4.923   6.735 -0.3105 -0.2527 -0.0519
  125OSM    H4S13321   1.723   4.892   6.797  0.0714 -1.7398 -0.2317
  125OSM    C5S13322   1.910   4.991   6.795  0.4499 -0.5784 -0.0327
  125OSM    H5S13323   1.994   5.029   6.734  0.3880 -1.6592 -0.8099
  125OSM    C6S13324   1.910   5.014   6.943  0.6086  0.4594  0.2147
  125OSM    H6S13325   1.883   5.118   6.970  2.7887  1.1388 -0.0295
  125OSM    H6T13326   2.016   5.003   6.971  0.9285  0.7967 -0.8034
  125OSM    C7S13327   1.823   4.921   7.031  0.2185  0.0334  0.8081
  125OSM    H7S13328   1.859   4.823   6.994  1.2928  1.9287 -3.8348
  125OSM    H7T13329   1.714   4.939   7.018  0.3964 -0.0828 -1.1812
  125OSM    C8S13330   1.850   4.932   7.185  0.1902  0.0793  0.1429
  125OSM    H8S13331   1.958   4.910   7.196  0.4588  0.6144 -1.1913
  125OSM    H8T13332   1.788   4.854   7.233  1.0933 -1.9018 -1.7584
  125OSM    C9S13333   1.806   5.063   7.254 -0.3461  0.4710  0.2901
  125OSM    H9S13334   1.711   5.109   7.221  0.0733  1.4799  0.4502
  125OSM    H9T13335   1.885   5.141   7.247  1.4248 -0.9905  2.5110
  125OSM   C10S13336   1.786   5.038   7.406  0.0602 -0.1574 -0.4191
  125OSM   H10S13337   1.878   4.998   7.454 -1.8438 -2.4059  1.5870
  125OSM   H10T13338   1.706   4.963   7.424 -0.8338  0.8685  0.0218
  125OSM   C11S13339   1.756   5.177   7.476  0.6116  0.3406 -0.1295
  125OSM   H11S13340   1.653   5.211   7.454 -0.4649 -1.4445  1.7997
  125OSM   H11T13341   1.824   5.261   7.452  0.8576  0.6375  1.4459
  125OSM   C12S13342   1.755   5.157   7.624  0.3773 -0.8502  0.1926
  125OSM   H12S13343   1.847   5.109   7.664  0.2307  0.2894  2.0674
  125OSM   H12T13344   1.679   5.077   7.638 -1.3641  0.6734 -0.0998
  125OSM   C13S13345   1.720   5.281   7.712  0.3875  0.0609  0.3950
  125OSM   H13S13346   1.630   5.328   7.669 -1.3917 -1.3390  2.3639
  125OSM   H13T13347   1.809   5.347   7.703  0.5112 -0.3344 -1.8012
  125OSM   C14S13348   1.678   5.263   7.862  0.5340  0.0255  0.0371
  125OSM   H14S13349   1.598   5.188   7.876  0.0490  0.4775 -0.2654
  125OSM   H14T13350   1.635   5.361   7.891  1.8268  1.1233 -1.5702
  125OSM   C15S13351   1.798   5.231   7.952 -0.1287  0.9124 -0.4333
  125OSM   H15S13352   1.873   5.312   7.940  0.6080  0.0708 -1.8980
  125OSM   H15T13353   1.838   5.131   7.924 -1.0772 -0.0135  1.3575
  125OSM   C16S13354   1.765   5.220   8.103  0.7428 -0.3350  0.4516
  125OSM   H16S13355   1.678   5.153   8.122  0.9386 -0.5787  0.4815
  125OSM   H16T13356   1.724   5.318   8.134 -0.6477 -1.1625  1.3420
  125OSM   C17S13357   1.883   5.193   8.195  0.1605 -0.1019 -0.0414
  125OSM   H17S13358   1.974   5.246   8.161  0.7685 -1.6658 -0.9506
  125OSM   H17T13359   1.911   5.085   8.195  1.4717  0.2171  0.7085
  125OSM   C18S13360   1.854   5.238   8.344 -0.1012  0.6994 -0.0054
  125OSM   H18S13361   1.944   5.243   8.409 -1.4631 -0.2658  2.0228
  125OSM   H18T13362   1.784   5.171   8.397  0.9931  0.9091  1.7699
  125OSM   H18U13363   1.807   5.338   8.342 -0.5397  0.4898 -0.6317
  125OSM    C1F13364   1.511   5.158   6.570 -1.0947  0.0123  0.5573
  125OSM     OF13365   1.421   5.117   6.503  0.2149  0.2977  0.7135
  125OSM    C2F13366   1.507   5.295   6.631  0.1209  0.5731 -0.0558
  125OSM    H2F13367   1.504   5.374   6.552 -0.6682 -1.0022 -1.6670
  125OSM    H2G13368   1.595   5.310   6.697  0.7074 -0.0621 -0.6862
  125OSM    C3F13369   1.389   5.327   6.728 -0.6031  0.0185  0.0410
  125OSM    H3F13370   1.304   5.319   6.658  0.2667 -1.7145 -0.8734
  125OSM    H3G13371   1.392   5.434   6.757 -1.2095 -0.2163  1.0351
  125OSM    C4F13372   1.381   5.232   6.853  0.0893 -0.2306 -0.7896
  125OSM    H4F13373   1.484   5.231   6.895  0.4288  0.8321 -1.5516
  125OSM    H4G13374   1.353   5.128   6.827 -0.3653 -0.7331  1.4966
  125OSM    C5F13375   1.289   5.285   6.961 -0.6285  0.4731  0.4245
  125OSM    H5F13376   1.188   5.288   6.915  0.8953  2.3341 -3.3000
  125OSM    H5G13377   1.309   5.388   6.998 -0.0143  0.5856 -0.1844
  125OSM    C6F13378   1.279   5.197   7.083  0.1944 -0.0047 -0.2073
  125OSM    H6F13379   1.271   5.091   7.051 -0.3406 -0.6267  1.8994
  125OSM    H6G13380   1.191   5.222   7.146  0.3994  0.6269 -0.1621
  125OSM    C7F13381   1.399   5.218   7.182 -0.0338  0.1345 -0.1637
  125OSM    H7F13382   1.451   5.313   7.156  0.5693 -0.2875 -0.5162
  125OSM    H7G13383   1.481   5.146   7.163  1.9490  1.9170  1.1740
  125OSM    C8F13384   1.355   5.196   7.336 -0.7504  0.3062  0.7471
  125OSM    H8F13385   1.436   5.133   7.379  0.5274  1.0755 -0.4509
  125OSM    H8G13386   1.273   5.121   7.334  1.5376 -2.3749  0.3392
  125OSM    C9F13387   1.324   5.322   7.411 -0.0019  0.4237  0.2717
  125OSM    H9F13388   1.317   5.413   7.351  1.5887  1.5572  1.7239
  125OSM   C10F13389   1.303   5.329   7.544 -0.6718 -0.4792  0.0027
  125OSM   H10F13390   1.259   5.419   7.589 -1.1028 -0.9108  0.4473
  125OSM   C11F13391   1.321   5.206   7.629  0.3757  0.1204 -0.7291
  125OSM   H11F13392   1.424   5.165   7.625  0.3554  0.1718 -1.8341
  125OSM   H11G13393   1.249   5.130   7.591 -2.0281  2.3628 -0.9808
  125OSM   C12F13394   1.281   5.222   7.779  0.5811  0.1177  0.1013
  125OSM   H12F13395   1.175   5.252   7.794  0.2190 -0.9671 -0.1375
  125OSM   H12G13396   1.344   5.308   7.808 -1.1969  1.4925  0.0349
  125OSM   C13F13397   1.315   5.111   7.879 -0.0697  0.2227 -0.5509
  125OSM   H13F13398   1.415   5.072   7.850  0.0831  0.7368 -0.7217
  125OSM   H13G13399   1.247   5.023   7.877 -1.2108  0.9596  1.9566
  125OSM   C14F13400   1.329   5.154   8.022  0.5883  0.0229 -0.5687
  125OSM   H14F13401   1.387   5.248   8.030  0.1101  0.2948 -0.2649
  125OSM   H14G13402   1.388   5.074   8.073  3.0239  1.6439 -0.6870
  125OSM   C15F13403   1.197   5.172   8.086  0.2934  0.0527  0.5372
  125OSM   H15F13404   1.123   5.105   8.037  1.9158 -2.1059  0.8948
  125OSM   H15G13405   1.174   5.279   8.068  3.3330  0.7021 -0.1190
  125OSM   C16F13406   1.204   5.150   8.235  0.3303  0.0201 -0.2801
  125OSM   H16F13407   1.272   5.218   8.290 -0.6501 -0.8863  2.1647
  125OSM   H16G13408   1.227   5.041   8.242 -1.6108 -0.4366 -0.4450
  125OSM   C17F13409   1.082   5.181   8.307  0.6713 -0.3379  0.2541
  125OSM   H17F13410   0.994   5.123   8.271 -0.3029  1.4219 -0.3206
  125OSM   H17G13411   1.057   5.289   8.303 -1.4322 -0.7894 -0.4850
  125OSM   C18F13412   1.098   5.144   8.456 -0.2002 -0.0691  0.1785
  125OSM   H18F13413   1.122   5.036   8.467 -2.2886 -0.6112 -0.1915
  125OSM   H18G13414   1.006   5.173   8.511  0.2466  0.3676  0.7134
  125OSM   H18H13415   1.178   5.209   8.499 -0.4010  1.4192 -1.6082
  126OSM      N13416   6.226   4.889   6.058  0.8356  0.1459  0.4701
  126OSM    C1513417   6.372   4.866   6.040  0.0779 -0.2037 -0.1119
  126OSM   H15A13418   6.406   4.817   6.130  0.6664 -0.9554 -0.7273
  126OSM   H15B13419   6.429   4.957   6.040  1.0843 -0.7982  1.5158
  126OSM   H15C13420   6.392   4.802   5.955  2.4593 -0.7865  0.8047
  126OSM    C1413421   6.176   4.983   5.943  0.1340  0.6969  0.3397
  126OSM   H14A13422   6.200   5.087   5.962  1.2670  0.6940 -0.8950
  126OSM   H14B13423   6.070   4.971   5.922  0.0169 -1.1576  1.7768
  126OSM   H14C13424   6.216   4.949   5.849 -1.4060 -0.1347 -0.0468
  126OSM    C1313425   6.158   4.756   6.027 -0.5321 -0.3049  0.1393
  126OSM   H13A13426   6.202   4.719   5.935  0.2508 -1.5242  0.9727
  126OSM   H13B13427   6.057   4.769   5.992 -0.2556 -2.7539 -1.8630
  126OSM   H13C13428   6.158   4.686   6.109 -2.2390 -1.0733 -0.4666
  126OSM    C1213429   6.178   4.943   6.193 -0.2884  0.3996 -0.3737
  126OSM   H12A13430   6.074   4.967   6.176 -0.7091 -0.6002  0.6146
  126OSM   H12B13431   6.220   5.040   6.215  2.8582 -0.8129 -0.5224
  126OSM    C1113432   6.202   4.850   6.312  0.1775  0.2711  0.6733
  126OSM   H11A13433   6.192   4.913   6.403  1.0744  2.9601 -0.9798
  126OSM   H11B13434   6.306   4.811   6.310  0.5959  1.3975 -0.7990
  126OSM      P13435   6.117   4.636   6.443 -0.1102  0.4679  0.1569
  126OSM    O1313436   6.071   4.709   6.561 -0.4988  0.5821  0.1901
  126OSM    O1413437   6.046   4.516   6.402  0.5450  0.6388  0.0020
  126OSM    O1113438   6.271   4.607   6.444 -0.2423  0.5086 -0.1230
  126OSM    O1213439   6.114   4.738   6.317 -0.3611  0.1606 -0.2988
  126OSM    C1S13440   6.349   4.684   6.536  0.4475  0.5106 -0.9707
  126OSM    H1S13441   6.316   4.790   6.535  1.7247  1.0347  1.8187
  126OSM    H1T13442   6.456   4.668   6.510  1.0238  1.5381  0.6294
  126OSM     NF13443   6.469   4.696   6.742  0.2026  0.4433  0.2411
  126OSM    HNF13444   6.540   4.631   6.766  0.0325  0.7746  1.7221
  126OSM    C2S13445   6.347   4.638   6.688  0.1277  0.0191  1.0402
  126OSM    H2S13446   6.259   4.671   6.746  0.5417  1.4456  0.8961
  126OSM    C3S13447   6.337   4.478   6.716 -0.2242 -1.0680  0.4342
  126OSM    H3S13448   6.431   4.437   6.674 -1.2630 -1.5347 -1.5543
  126OSM     O313449   6.239   4.408   6.651 -0.0759  0.1574 -0.1821
  126OSM    HO313450   6.230   4.451   6.565 -1.4081  0.1761 -0.0452
  126OSM    C4S13451   6.336   4.449   6.870  0.3503  0.2499  0.5722
  126OSM    H4S13452   6.431   4.455   6.926  0.7515 -0.5394  0.0072
  126OSM    C5S13453   6.232   4.429   6.950  0.4550  0.2118 -0.4876
  126OSM    H5S13454   6.128   4.453   6.923  1.5331  2.1860 -3.4148
  126OSM    C6S13455   6.257   4.400   7.101  0.1422  0.3382  0.5235
  126OSM    H6S13456   6.360   4.364   7.120 -0.5060 -1.5840  0.5431
  126OSM    H6T13457   6.199   4.315   7.141 -0.1286  0.1007 -0.3432
  126OSM    C7S13458   6.269   4.534   7.179  0.8052 -0.0881 -0.4537
  126OSM    H7S13459   6.343   4.604   7.135 -0.0909 -0.1058 -2.0891
  126OSM    H7T13460   6.304   4.502   7.279  2.9138 -1.9375 -1.6862
  126OSM    C8S13461   6.137   4.614   7.190  0.6855 -0.7495 -0.2478
  126OSM    H8S13462   6.060   4.551   7.240  0.2518  1.7046  2.3902
  126OSM    H8T13463   6.095   4.637   7.090 -1.0224  0.7859  0.7679
  126OSM    C9S13464   6.156   4.740   7.274  0.0340  0.7756  0.6010
  126OSM    H9S13465   6.222   4.810   7.218  0.6548 -0.6343 -0.4850
  126OSM    H9T13466   6.201   4.711   7.371 -0.1558  0.3859  0.5729
  126OSM   C10S13467   6.024   4.817   7.293  0.1449 -0.0657 -0.6882
  126OSM   H10S13468   5.997   4.868   7.198 -0.6855  1.8011  0.4932
  126OSM   H10T13469   6.052   4.903   7.357  1.0944 -0.8952  0.0312
  126OSM   C11S13470   5.912   4.741   7.370 -0.6824 -0.0692 -0.1656
  126OSM   H11S13471   5.890   4.642   7.327  1.3686 -0.6544  0.0269
  126OSM   H11T13472   5.820   4.802   7.366 -0.5259  0.2439  0.7406
  126OSM   C12S13473   5.948   4.714   7.515  0.5965 -0.3224 -0.4553
  126OSM   H12S13474   5.990   4.796   7.577  0.6434 -0.1772 -0.6769
  126OSM   H12T13475   6.022   4.631   7.522  2.4722  1.1258 -1.9596
  126OSM   C13S13476   5.830   4.670   7.590 -0.9997 -0.4351 -0.5940
  126OSM   H13S13477   5.753   4.610   7.537 -0.3196 -0.6750 -1.3230
  126OSM   H13T13478   5.770   4.759   7.620  0.0944  0.4787 -1.0542
  126OSM   C14S13479   5.875   4.607   7.716 -0.0642  0.2274 -0.5074
  126OSM   H14S13480   5.914   4.683   7.786  0.1040  0.1239 -0.4873
  126OSM   H14T13481   5.955   4.530   7.702  0.9411  1.1000  0.2510
  126OSM   C15S13482   5.764   4.540   7.803  0.0269  0.3439 -0.3892
  126OSM   H15S13483   5.712   4.458   7.749  0.0120 -0.0180  0.1664
  126OSM   H15T13484   5.695   4.617   7.843  1.3438  0.1048  2.6327
  126OSM   C16S13485   5.830   4.492   7.935  0.4566  0.2986  0.1436
  126OSM   H16S13486   5.894   4.570   7.982  1.6894  1.5489 -3.2300
  126OSM   H16T13487   5.895   4.404   7.915  1.7650  1.3344 -0.3000
  126OSM   C17S13488   5.724   4.427   8.035 -0.1248  0.0159 -0.4890
  126OSM   H17S13489   5.652   4.375   7.969 -3.4411  1.7675  1.4421
  126OSM   H17T13490   5.664   4.507   8.083 -1.9758  0.0658 -2.7228
  126OSM   C18S13491   5.786   4.349   8.146  0.4221  0.1641 -0.1536
  126OSM   H18S13492   5.708   4.306   8.212  0.9022  1.0855  1.0557
  126OSM   H18T13493   5.843   4.419   8.211 -0.8261 -1.2341  2.6267
  126OSM   H18U13494   5.858   4.269   8.116  2.6278  0.8463  2.7976
  126OSM    C1F13495   6.470   4.827   6.771 -0.2253  0.5734  0.6663
  126OSM     OF13496   6.370   4.899   6.753  0.1138  0.1220 -0.1714
  126OSM    C2F13497   6.599   4.886   6.816 -0.1284  0.1283  0.0692
  126OSM    H2F13498   6.624   4.976   6.755  2.7164 -0.0844  0.7561
  126OSM    H2G13499   6.672   4.803   6.803 -0.1807  0.2495 -1.0628
  126OSM    C3F13500   6.593   4.942   6.959 -0.1113  0.1156  0.0903
  126OSM    H3F13501   6.503   5.006   6.967  1.1290  2.3567 -2.3204
  126OSM    H3G13502   6.693   4.987   6.977  1.9779 -3.5126 -1.3474
  126OSM    C4F13503   6.590   4.831   7.074 -0.2003  0.0048  0.7417
  126OSM    H4F13504   6.685   4.774   7.077  0.5576  1.2265  0.5221
  126OSM    H4G13505   6.511   4.755   7.056 -0.3901  0.5890 -1.1360
  126OSM    C5F13506   6.562   4.899   7.201  0.5882  0.3717  0.1743
  126OSM    H5F13507   6.461   4.945   7.194  0.2193 -0.5888 -1.4470
  126OSM    H5G13508   6.641   4.975   7.220  1.0703 -0.2726  0.8251
  126OSM    C6F13509   6.557   4.795   7.322  0.0375  0.4008  0.2342
  126OSM    H6F13510   6.660   4.757   7.339  0.5248  1.9291  0.8518
  126OSM    H6G13511   6.489   4.710   7.297  1.9666 -1.1420 -0.0318
  126OSM    C7F13512   6.507   4.869   7.448  0.4342  0.1165  0.4579
  126OSM    H7F13513   6.407   4.908   7.422 -0.1781  0.1790  2.7090
  126OSM    H7G13514   6.578   4.954   7.458  1.3052 -0.6520  1.0092
  126OSM    C8F13515   6.489   4.794   7.580  0.4482  0.7497 -0.4781
  126OSM    H8F13516   6.456   4.870   7.655  2.9107  1.5780 -0.1269
  126OSM    H8G13517   6.590   4.761   7.613  0.5875  1.9239  0.3471
  126OSM    C9F13518   6.404   4.675   7.571  0.3527  0.2289 -0.1118
  126OSM    H9F13519   6.374   4.659   7.467  0.9721  1.5972 -0.5192
  126OSM   C10F13520   6.360   4.598   7.670  0.1961  0.6466 -0.0791
  126OSM   H10F13521   6.290   4.519   7.639  1.1390 -0.8600  1.3853
  126OSM   C11F13522   6.391   4.618   7.818 -0.0075  0.4219  0.0472
  126OSM   H11F13523   6.291   4.616   7.867  0.8684 -1.6654  1.9174
  126OSM   H11G13524   6.444   4.712   7.844  0.1928  0.6324 -1.0618
  126OSM   C12F13525   6.465   4.505   7.890 -0.1298 -0.6426 -0.0522
  126OSM   H12F13526   6.573   4.512   7.866 -0.7867 -1.0332 -3.9117
  126OSM   H12G13527   6.433   4.404   7.858  3.4617 -1.7554 -0.5358
  126OSM   C13F13528   6.450   4.523   8.038  0.1458  0.3478 -0.1995
  126OSM   H13F13529   6.340   4.525   8.053  0.0382 -0.9087 -0.7218
  126OSM   H13G13530   6.486   4.625   8.064 -0.1994  0.4501 -0.1230
  126OSM   C14F13531   6.536   4.424   8.119  0.0715  0.5655  0.2198
  126OSM   H14F13532   6.641   4.439   8.085  0.8340  1.9852  2.9529
  126OSM   H14G13533   6.509   4.316   8.114  2.7195 -0.1146 -3.2106
  126OSM   C15F13534   6.538   4.465   8.269 -0.1149  0.4943  0.4730
  126OSM   H15F13535   6.622   4.535   8.289  0.3584 -0.3656  1.6055
  126OSM   H15G13536   6.566   4.378   8.332 -0.4160  0.1350  0.1162
  126OSM   C16F13537   6.406   4.523   8.323 -0.4517 -0.1609 -0.5154
  126OSM   H16F13538   6.319   4.461   8.293 -0.8410 -0.0632  0.3893
  126OSM   H16G13539   6.386   4.624   8.282 -0.1027 -0.3406 -1.1335
  126OSM   C17F13540   6.409   4.543   8.475 -0.5283 -0.3752  0.8770
  126OSM   H17F13541   6.504   4.599   8.491 -0.0693 -0.9544  0.2435
  126OSM   H17G13542   6.410   4.447   8.532 -0.7987 -1.8928 -1.5010
  126OSM   C18F13543   6.290   4.625   8.517  0.4494 -0.3554  0.1085
  126OSM   H18F13544   6.198   4.567   8.498  0.2299  0.1379 -0.3462
  126OSM   H18G13545   6.294   4.726   8.471 -0.1792  0.4635  1.7604
  126OSM   H18H13546   6.294   4.649   8.626  1.0322  1.2748 -0.2328
  127OSM      N13547   1.209   2.700   6.355 -0.7877 -0.2099  0.2134
  127OSM    C1513548   1.299   2.766   6.256 -0.4410 -0.7220  0.1884
  127OSM   H15A13549   1.335   2.700   6.178  0.0270 -1.1434  0.7531
  127OSM   H15B13550   1.381   2.801   6.317  0.6218 -0.7908 -1.1521
  127OSM   H15C13551   1.255   2.854   6.211  1.7648  0.5842  0.4155
  127OSM    C1413552   1.166   2.807   6.458 -0.4787  0.2189  0.5991
  127OSM   H14A13553   1.099   2.764   6.530  0.6695 -1.5785  0.6477
  127OSM   H14B13554   1.128   2.889   6.399  1.4827  1.5781  1.1376
  127OSM   H14C13555   1.252   2.851   6.506 -0.4004  2.0961 -1.0908
  127OSM    C1313556   1.082   2.651   6.284  0.4467 -0.4485  0.1673
  127OSM   H13A13557   1.022   2.731   6.242  1.3095  0.4212  0.5412
  127OSM   H13B13558   1.012   2.606   6.352 -1.3678  0.4639 -1.0091
  127OSM   H13C13559   1.110   2.583   6.205  0.4384 -1.0210  0.6474
  127OSM    C1213560   1.278   2.586   6.431  0.4462 -0.5333 -0.0516
  127OSM   H12A13561   1.199   2.544   6.493 -0.7574  0.9574 -0.5119
  127OSM   H12B13562   1.356   2.611   6.501 -1.9581  0.0474  2.6326
  127OSM    C1113563   1.326   2.471   6.352 -0.3405  0.0322  0.5250
  127OSM   H11A13564   1.244   2.432   6.287 -0.1470 -0.8688  0.8061
  127OSM   H11B13565   1.348   2.381   6.413 -0.4952  1.0803  2.1635
  127OSM      P13566   1.580   2.531   6.354 -0.1237  0.5085  0.5581
  127OSM    O1313567   1.691   2.479   6.271 -0.3228 -0.0234 -0.7665
  127OSM    O1413568   1.580   2.678   6.382 -0.2477 -0.2289 -0.1163
  127OSM    O1113569   1.576   2.455   6.488  0.7262  0.5001  0.0903
  127OSM    O1213570   1.441   2.503   6.270 -0.4459  0.1865 -0.7010
  127OSM    C1S13571   1.691   2.464   6.581 -0.3426 -0.2611 -0.7451
  127OSM    H1S13572   1.771   2.533   6.547  1.2064 -2.7228 -2.4142
  127OSM    H1T13573   1.751   2.370   6.587  1.3479  0.6048 -2.8433
  127OSM     NF13574   1.748   2.529   6.803 -0.0244 -0.1865 -0.1433
  127OSM    HNF13575   1.801   2.455   6.844  0.8814  1.5767  2.0813
  127OSM    C2S13576   1.629   2.493   6.726 -1.0215 -0.4709  0.2143
  127OSM    H2S13577   1.559   2.579   6.717 -2.6271 -1.7957 -0.3628
  127OSM    C3S13578   1.547   2.371   6.774  0.0313 -0.7347  0.3666
  127OSM    H3S13579   1.615   2.285   6.757 -0.7831 -1.3214  0.0168
  127OSM     O313580   1.447   2.348   6.679  0.1213  1.0025  0.3973
  127OSM    HO313581   1.484   2.389   6.601  1.2490 -2.1809 -0.9179
  127OSM    C4S13582   1.493   2.393   6.914 -0.1151  0.5087 -0.3837
  127OSM    H4S13583   1.569   2.381   6.992  1.3189 -0.1704 -1.8450
  127OSM    C5S13584   1.365   2.419   6.955 -0.2710 -0.9958  0.3521
  127OSM    H5S13585   1.282   2.418   6.884 -0.1011 -1.2318  0.1559
  127OSM    C6S13586   1.322   2.433   7.100  0.4204  0.1926  0.4660
  127OSM    H6S13587   1.214   2.407   7.099  0.7718 -1.4002  1.2575
  127OSM    H6T13588   1.331   2.538   7.134 -2.9287  1.0212 -0.7604
  127OSM    C7S13589   1.384   2.346   7.211 -0.8869 -0.1035  0.1389
  127OSM    H7S13590   1.494   2.360   7.213 -0.7491 -0.8251 -1.1326
  127OSM    H7T13591   1.360   2.239   7.190  2.3038 -0.4481 -2.5758
  127OSM    C8S13592   1.309   2.368   7.340 -0.8503  0.7998 -0.5673
  127OSM    H8S13593   1.214   2.312   7.323  0.6417 -1.1344 -3.4190
  127OSM    H8T13594   1.280   2.475   7.347 -2.6290  0.2398  1.6454
  127OSM    C9S13595   1.382   2.313   7.464 -1.3811 -0.2986  0.1494
  127OSM    H9S13596   1.473   2.375   7.480 -2.0774  0.2050  2.4074
  127OSM    H9T13597   1.414   2.207   7.453 -0.0135  0.0903  0.2041
  127OSM   C10S13598   1.296   2.337   7.592 -0.7507  0.3608  0.1897
  127OSM   H10S13599   1.197   2.289   7.580  0.0258 -1.4604  0.6629
  127OSM   H10T13600   1.294   2.448   7.600  2.7799  0.5184  0.4025
  127OSM   C11S13601   1.375   2.274   7.704 -0.1082 -0.0415 -0.7931
  127OSM   H11S13602   1.483   2.264   7.678  0.4512 -0.5308  1.4857
  127OSM   H11T13603   1.326   2.178   7.731 -0.4099  0.3545  0.0890
  127OSM   C12S13604   1.362   2.351   7.832  0.1965  0.1723 -0.2435
  127OSM   H12S13605   1.253   2.359   7.855  0.3431 -0.3279  0.6410
  127OSM   H12T13606   1.392   2.455   7.806 -1.2257  0.5196 -0.5956
  127OSM   C13S13607   1.430   2.290   7.959 -0.0320  0.2261  0.1078
  127OSM   H13S13608   1.540   2.275   7.952 -0.0683  0.1797 -0.4310
  127OSM   H13T13609   1.389   2.187   7.965  0.5371 -0.0149 -0.0476
  127OSM   C14S13610   1.395   2.362   8.091 -0.1586  0.2817  0.3988
  127OSM   H14S13611   1.446   2.317   8.179 -1.1086  0.0668  0.8605
  127OSM   H14T13612   1.289   2.331   8.104  0.6779 -3.0818  0.2060
  127OSM   C15S13613   1.419   2.511   8.084  0.6927 -0.1325 -0.3430
  127OSM   H15S13614   1.355   2.557   8.006 -1.2356 -1.2793  0.4968
  127OSM   H15T13615   1.522   2.536   8.050  0.3516  0.5442 -0.8988
  127OSM   C16S13616   1.398   2.566   8.220  0.3434 -0.7008  0.3523
  127OSM   H16S13617   1.477   2.523   8.285 -0.9767 -0.7100  2.0393
  127OSM   H16T13618   1.302   2.529   8.264 -1.3375  0.9886 -1.6444
  127OSM   C17S13619   1.397   2.719   8.232  0.4307  0.2592 -0.3815
  127OSM   H17S13620   1.291   2.750   8.246  1.1352  3.6276 -1.5130
  127OSM   H17T13621   1.423   2.759   8.132 -0.6120 -0.9185 -1.1446
  127OSM   C18S13622   1.497   2.779   8.338  0.3070 -0.2013 -0.8379
  127OSM   H18S13623   1.446   2.786   8.437 -1.1533  2.4787 -1.6794
  127OSM   H18T13624   1.529   2.879   8.302 -0.8706  0.7914  0.7583
  127OSM   H18U13625   1.585   2.713   8.354 -1.2764 -2.0608  0.7465
  127OSM    C1F13626   1.792   2.656   6.805  0.0767 -0.4844  0.2031
  127OSM     OF13627   1.725   2.742   6.747 -0.0661 -0.5739 -0.0960
  127OSM    C2F13628   1.921   2.686   6.873 -0.3058  0.2569  0.8019
  127OSM    H2F13629   1.953   2.790   6.848  1.9223 -0.5813 -0.1005
  127OSM    H2G13630   1.999   2.609   6.855 -0.5099  0.8648 -3.7628
  127OSM    C3F13631   1.893   2.675   7.024 -0.0757  0.3069  0.5577
  127OSM    H3F13632   1.875   2.570   7.056 -1.2736 -0.5762 -2.6603
  127OSM    H3G13633   1.804   2.736   7.054  0.4505  1.8291 -0.8652
  127OSM    C4F13634   2.018   2.716   7.109  0.0708 -0.3997 -0.0171
  127OSM    H4F13635   2.053   2.811   7.064 -2.0483 -0.3835 -1.7758
  127OSM    H4G13636   2.098   2.644   7.082  0.4751  0.4170 -1.0426
  127OSM    C5F13637   1.985   2.735   7.259  0.2689 -0.2666  0.6164
  127OSM    H5F13638   1.995   2.634   7.304 -1.7430 -0.0329  1.7178
  127OSM    H5G13639   1.883   2.773   7.283  0.1643 -1.4570  2.1571
  127OSM    C6F13640   2.085   2.822   7.329 -0.5244 -0.3791 -0.7506
  127OSM    H6F13641   2.098   2.925   7.291 -0.2835 -0.6636 -1.4598
  127OSM    H6G13642   2.184   2.770   7.330 -0.0733  0.4484  0.7088
  127OSM    C7F13643   2.051   2.830   7.476  0.5482 -0.0684  0.1841
  127OSM    H7F13644   2.071   2.731   7.523  1.5341 -0.8178 -1.7354
  127OSM    H7G13645   1.941   2.848   7.482  0.7702  1.0836  1.2824
  127OSM    C8F13646   2.130   2.938   7.564  0.7612  0.2596  0.1199
  127OSM    H8F13647   2.073   2.944   7.659 -0.4190  0.8806 -0.6107
  127OSM    H8G13648   2.119   3.033   7.507  0.7715 -0.4497 -1.0941
  127OSM    C9F13649   2.268   2.900   7.582  0.0199  0.2859 -0.5260
  127OSM    H9F13650   2.319   2.865   7.490  2.3932  1.7944  0.1168
  127OSM   C10F13651   2.339   2.895   7.698 -0.6622  0.0435  0.4175
  127OSM   H10F13652   2.448   2.879   7.694 -0.2445  1.9485  2.5343
  127OSM   C11F13653   2.291   2.923   7.830 -0.6285  0.1479 -0.4797
  127OSM   H11F13654   2.208   2.860   7.868 -1.9310  2.4903  0.7480
  127OSM   H11G13655   2.243   3.023   7.835 -0.8504 -0.0094  2.0028
  127OSM   C12F13656   2.408   2.949   7.932  0.9577 -0.2221  0.0342
  127OSM   H12F13657   2.469   3.035   7.899 -0.2062  0.4836 -0.3446
  127OSM   H12G13658   2.471   2.858   7.933 -0.3791 -1.2176 -1.0220
  127OSM   C13F13659   2.356   2.950   8.078 -0.1067  0.5773 -0.8047
  127OSM   H13F13660   2.275   2.876   8.096 -0.1525  0.6675 -0.6369
  127OSM   H13G13661   2.287   3.036   8.090 -0.5151  0.3975 -1.7959
  127OSM   C14F13662   2.458   2.933   8.191  0.3931  0.2851 -0.3189
  127OSM   H14F13663   2.543   3.004   8.193  0.4588  0.1989  0.0807
  127OSM   H14G13664   2.508   2.836   8.167 -0.9158 -0.9419  1.5809
  127OSM   C15F13665   2.399   2.937   8.330  0.0442 -0.1840 -0.6000
  127OSM   H15F13666   2.346   2.840   8.331 -0.0139 -0.2071 -2.3922
  127OSM   H15G13667   2.342   3.032   8.340 -1.7675 -1.3748  1.2024
  127OSM   C16F13668   2.504   2.944   8.442  0.0620  0.0102 -0.8988
  127OSM   H16F13669   2.562   3.038   8.433 -1.1587  0.8974  0.2082
  127OSM   H16G13670   2.577   2.860   8.433 -0.5620 -1.1874  3.2854
  127OSM   C17F13671   2.454   2.943   8.584  0.2003 -0.3655 -0.9292
  127OSM   H17F13672   2.537   2.926   8.655  0.8060  1.1207 -1.2435
  127OSM   H17G13673   2.388   2.856   8.601 -1.4696  1.5037  3.7540
  127OSM   C18F13674   2.364   3.062   8.619 -0.0069 -0.3539  0.5937
  127OSM   H18F13675   2.412   3.160   8.603 -1.0879  0.2864  1.1870
  127OSM   H18G13676   2.330   3.075   8.724 -1.5184  1.8806 -0.0999
  127OSM   H18H13677   2.264   3.054   8.571  0.5797  0.1550 -0.7701
  128OSM      N13678   3.887   4.995   5.943 -0.3690  0.1337  0.6569
  128OSM    C1513679   4.006   5.041   6.024  0.5315 -0.2045  0.8765
  128OSM   H15A13680   4.087   4.970   6.030  0.4292 -0.2495  1.9856
  128OSM   H15B13681   3.982   5.059   6.128 -0.9107  2.8320  0.1468
  128OSM   H15C13682   4.041   5.136   5.987 -1.5150 -0.6656 -2.7711
  128OSM    C1413683   3.801   5.117   5.909 -0.0666 -0.8009 -0.1077
  128OSM   H14A13684   3.850   5.194   5.852 -2.3812  0.4902 -0.4997
  128OSM   H14B13685   3.757   5.157   5.999 -0.2430  0.3675 -0.7002
  128OSM   H14C13686   3.713   5.085   5.854 -1.0081 -0.3224  1.0647
  128OSM    C1313687   3.948   4.941   5.817 -0.3101 -0.1090  0.1895
  128OSM   H13A13688   3.992   4.847   5.847 -0.1796  0.0944  0.6304
  128OSM   H13B13689   4.022   5.012   5.782  0.2710  0.3543  2.2156
  128OSM   H13C13690   3.879   4.930   5.735  1.6701 -3.1007 -1.2965
  128OSM    C1213691   3.816   4.889   6.012  0.1974 -0.5369 -0.3351
  128OSM   H12A13692   3.887   4.814   6.041 -1.1089 -1.6136  0.1656
  128OSM   H12B13693   3.739   4.836   5.958 -0.9436  0.4553  0.2519
  128OSM    C1113694   3.729   4.932   6.138  0.3767  0.5376  0.8400
  128OSM   H11A13695   3.688   4.839   6.181  2.2443 -1.2075 -0.8703
  128OSM   H11B13696   3.643   4.993   6.103 -0.0261 -2.5441 -4.7849
  128OSM      P13697   3.777   5.114   6.316 -0.5732  0.4208  0.4333
  128OSM    O1313698   3.883   5.137   6.417  0.6749  0.4467 -0.5652
  128OSM    O1413699   3.733   5.224   6.225  0.3348  0.5015 -0.2687
  128OSM    O1113700   3.649   5.070   6.388 -0.0079 -0.5660  0.2321
  128OSM    O1213701   3.811   4.994   6.227 -0.4157  0.3887  0.4270
  128OSM    C1S13702   3.650   4.966   6.486 -0.3494 -0.2132 -0.4241
  128OSM    H1S13703   3.753   4.924   6.490 -0.4723 -0.4290  1.8688
  128OSM    H1T13704   3.588   4.880   6.455  1.0880 -0.3956 -3.0659
  128OSM     NF13705   3.644   4.906   6.721  0.0808 -0.3960 -0.2006
  128OSM    HNF13706   3.563   4.863   6.761  1.2256  0.2719  3.2179
  128OSM    C2S13707   3.612   5.010   6.625 -0.1969 -0.1886 -0.4734
  128OSM    H2S13708   3.679   5.095   6.650  0.6948 -0.9324 -0.2712
  128OSM    C3S13709   3.462   5.050   6.626 -1.2184  0.4510  0.0899
  128OSM    H3S13710   3.395   4.961   6.622 -1.3642  0.5676 -0.0645
  128OSM     O313711   3.434   5.139   6.518 -0.0170  0.1235 -0.6741
  128OSM    HO313712   3.521   5.152   6.481  1.0118  1.1592  1.8440
  128OSM    C4S13713   3.433   5.121   6.757 -0.0437  0.1710  0.0022
  128OSM    H4S13714   3.519   5.179   6.793 -0.1162 -0.3987  1.1312
  128OSM    C5S13715   3.322   5.101   6.828 -0.3317 -1.1508 -0.1845
  128OSM    H5S13716   3.238   5.042   6.789 -0.6012 -0.3930 -0.7814
  128OSM    C6S13717   3.305   5.174   6.965  0.3770  0.2323  0.1393
  128OSM    H6S13718   3.198   5.195   6.983  0.0969 -0.7832 -0.2324
  128OSM    H6T13719   3.365   5.267   6.957  0.8982 -0.1555 -0.6779
  128OSM    C7S13720   3.348   5.092   7.090 -0.6686  0.2361  0.7888
  128OSM    H7S13721   3.457   5.086   7.073 -0.7165  1.9094 -0.4007
  128OSM    H7T13722   3.321   4.984   7.087 -1.0619  0.3319  0.7578
  128OSM    C8S13723   3.301   5.147   7.223  0.2045  0.0142  0.0730
  128OSM    H8S13724   3.193   5.166   7.209  0.6112  0.8384 -2.3688
  128OSM    H8T13725   3.334   5.249   7.251 -1.5696  1.4457 -2.7079
  128OSM    C9S13726   3.336   5.055   7.344  0.4878  0.0566 -0.6958
  128OSM    H9S13727   3.445   5.035   7.358  0.6344  1.4707  0.5332
  128OSM    H9T13728   3.285   4.957   7.335  0.1348  0.2474 -0.7481
  128OSM   C10S13729   3.288   5.119   7.475  0.2107 -0.0870  0.3624
  128OSM   H10S13730   3.178   5.111   7.471  0.1350  0.9998 -0.1311
  128OSM   H10T13731   3.304   5.229   7.477  4.0043 -0.4712  2.4406
  128OSM   C11S13732   3.344   5.052   7.597 -0.0296  0.4007  0.5126
  128OSM   H11S13733   3.449   5.084   7.612 -0.0244  0.2560  0.7892
  128OSM   H11T13734   3.324   4.944   7.585 -0.8059  0.1028  3.6153
  128OSM   C12S13735   3.260   5.083   7.724  0.1659  0.2256  0.1437
  128OSM   H12S13736   3.155   5.055   7.703 -0.5331  0.4140  2.9798
  128OSM   H12T13737   3.270   5.191   7.749 -1.7066  0.5084 -0.1751
  128OSM   C13S13738   3.295   4.983   7.838 -0.2352 -0.1362 -0.4484
  128OSM   H13S13739   3.396   4.981   7.884 -1.1507 -0.3848  1.6727
  128OSM   H13T13740   3.284   4.880   7.799 -0.3207 -0.5672  0.6682
  128OSM   C14S13741   3.197   4.992   7.955 -0.4144 -0.1411  0.4343
  128OSM   H14S13742   3.097   4.971   7.910 -0.7084  4.1329 -1.3339
  128OSM   H14T13743   3.193   5.095   7.997 -1.3066 -0.2601  0.6773
  128OSM   C15S13744   3.226   4.890   8.070  0.3772  0.4605  0.0968
  128OSM   H15S13745   3.273   4.806   8.014 -1.6233 -0.4200 -0.3538
  128OSM   H15T13746   3.139   4.852   8.127  0.0052  0.5748 -0.3868
  128OSM   C16S13747   3.326   4.941   8.177  0.5406  0.3601  0.1669
  128OSM   H16S13748   3.280   5.033   8.219  0.1227  0.4646 -0.5205
  128OSM   H16T13749   3.425   4.964   8.131 -0.3733  0.3707 -1.8963
  128OSM   C17S13750   3.372   4.844   8.285  0.2159 -0.3789  0.2892
  128OSM   H17S13751   3.436   4.767   8.235  2.0994  1.4133 -0.2183
  128OSM   H17T13752   3.284   4.795   8.330 -0.0731  0.1866  0.3403
  128OSM   C18S13753   3.454   4.902   8.398 -0.0829  0.2784 -0.8652
  128OSM   H18S13754   3.384   4.978   8.439 -0.9083 -0.3066 -1.1539
  128OSM   H18T13755   3.541   4.956   8.356 -0.9465  2.0887 -0.3999
  128OSM   H18U13756   3.489   4.821   8.467 -1.0408  2.5163  2.5241
  128OSM    C1F13757   3.766   4.880   6.778  0.4172  0.8785  0.6632
  128OSM     OF13758   3.868   4.873   6.709 -0.1555  0.3731 -0.2151
  128OSM    C2F13759   3.778   4.832   6.924 -0.3707 -0.0055 -0.0543
  128OSM    H2F13760   3.828   4.733   6.911 -1.2878 -1.1229  3.6957
  128OSM    H2G13761   3.674   4.813   6.958 -0.1740  1.6798  1.6780
  128OSM    C3F13762   3.850   4.931   7.012  0.1205 -0.1011  0.4718
  128OSM    H3F13763   3.776   5.011   7.035 -0.3333  0.1802 -1.7681
  128OSM    H3G13764   3.928   4.990   6.959  0.3631  0.4875  1.4389
  128OSM    C4F13765   3.907   4.880   7.146 -0.1262  0.0224 -0.6121
  128OSM    H4F13766   3.954   4.970   7.191 -2.9213  0.5334  1.5516
  128OSM    H4G13767   3.987   4.805   7.128 -1.0122 -1.0184 -0.3226
  128OSM    C5F13768   3.793   4.847   7.247 -0.5684 -0.4008 -0.0456
  128OSM    H5F13769   3.743   4.758   7.201 -1.5181  0.4778 -0.7640
  128OSM    H5G13770   3.735   4.941   7.251  0.8237  0.4584  0.5597
  128OSM    C6F13771   3.839   4.812   7.397  0.7696  0.3848 -0.3537
  128OSM    H6F13772   3.895   4.899   7.439 -0.2284  1.0135 -0.2621
  128OSM    H6G13773   3.901   4.720   7.397  1.0525  0.5425  1.1458
  128OSM    C7F13774   3.715   4.803   7.490 -0.5111 -0.3419  0.6713
  128OSM    H7F13775   3.641   4.724   7.464 -2.2904  0.6308  2.5047
  128OSM    H7G13776   3.665   4.901   7.476 -2.2422 -1.2645  0.1735
  128OSM    C8F13777   3.752   4.782   7.637 -0.3475  0.1876  0.2716
  128OSM    H8F13778   3.821   4.862   7.668 -0.5673  0.5946 -0.2669
  128OSM    H8G13779   3.803   4.683   7.641 -1.5078 -0.4213  0.6178
  128OSM    C9F13780   3.629   4.789   7.719 -0.6274 -0.3186 -0.2277
  128OSM    H9F13781   3.539   4.793   7.657  0.6652  2.1528 -2.1540
  128OSM   C10F13782   3.629   4.800   7.853  0.4197 -0.0714  0.6378
  128OSM   H10F13783   3.531   4.825   7.898  0.4229 -0.2629  0.7497
  128OSM   C11F13784   3.749   4.807   7.940 -0.7010  0.6142 -0.5825
  128OSM   H11F13785   3.784   4.912   7.948 -2.0179  0.9874  0.5212
  128OSM   H11G13786   3.829   4.748   7.890 -0.7381 -0.8912  1.0427
  128OSM   C12F13787   3.754   4.764   8.089 -0.4816 -0.2442 -0.0024
  128OSM   H12F13788   3.708   4.846   8.149  2.2282  1.1194  0.3654
  128OSM   H12G13789   3.861   4.777   8.117 -0.7627 -1.2066  1.6699
  128OSM   C13F13790   3.701   4.630   8.138 -1.3090  0.2785 -0.4594
  128OSM   H13F13791   3.730   4.545   8.072  0.8177  2.5779 -2.6756
  128OSM   H13G13792   3.590   4.625   8.138 -1.3070 -1.5202 -2.8060
  128OSM   C14F13793   3.748   4.580   8.278 -0.3505 -0.0215  0.6230
  128OSM   H14F13794   3.857   4.563   8.279  0.3361  3.1883 -2.1717
  128OSM   H14G13795   3.698   4.485   8.309  0.5100 -0.5716  0.3465
  128OSM   C15F13796   3.717   4.678   8.388  0.0992 -0.3510  0.0518
  128OSM   H15F13797   3.609   4.663   8.405  0.4740 -0.7817  2.5052
  128OSM   H15G13798   3.741   4.783   8.362  0.9628 -0.7018 -0.6445
  128OSM   C16F13799   3.799   4.654   8.520 -0.0997 -0.1468 -0.1613
  128OSM   H16F13800   3.805   4.746   8.582 -1.8844 -0.3265  0.3206
  128OSM   H16G13801   3.898   4.621   8.481 -0.1333 -0.1652 -0.2313
  128OSM   C17F13802   3.761   4.545   8.623 -0.2614 -0.2154  0.0629
  128OSM   H17F13803   3.768   4.453   8.561 -0.2384 -0.3389  0.2479
  128OSM   H17G13804   3.662   4.570   8.667 -0.1005 -0.1627  0.3989
  128OSM   C18F13805   3.865   4.530   8.725 -0.3225 -0.5504 -0.1140
  128OSM   H18F13806   3.864   4.627   8.781 -0.0344 -0.9255  0.5504
  128OSM   H18G13807   3.969   4.531   8.686  0.8694 -0.3659  2.7555
  128OSM   H18H13808   3.844   4.442   8.789 -2.4344 -0.5017 -0.6806
  129OSM      N13809   0.694   3.142   5.955 -0.0911  0.0633  0.7973
  129OSM    C1513810   0.705   3.114   5.813 -0.0390  0.1430 -0.2190
  129OSM   H15A13811   0.804   3.078   5.790  0.2869 -1.0652  2.6669
  129OSM   H15B13812   0.682   3.198   5.749 -0.5354 -0.8009 -1.3149
  129OSM   H15C13813   0.639   3.033   5.786 -1.4588  1.0931  0.2851
  129OSM    C1413814   0.801   3.241   5.995  0.2158  0.2595 -0.1262
  129OSM   H14A13815   0.790   3.263   6.101 -0.3670  0.4596 -0.2211
  129OSM   H14B13816   0.793   3.340   5.953 -0.7305  0.9652  1.6002
  129OSM   H14C13817   0.904   3.214   5.978  0.5896  1.6811 -0.2405
  129OSM    C1313818   0.559   3.207   5.970 -0.1318  0.0145  0.1670
  129OSM   H13A13819   0.538   3.194   6.075  0.7309 -2.2277  0.1066
  129OSM   H13B13820   0.491   3.152   5.906  0.3404 -0.8584  0.3973
  129OSM   H13C13821   0.553   3.314   5.962  2.7767  0.3538  1.2276
  129OSM    C1213822   0.699   3.014   6.039 -0.0436  0.1789  0.3383
  129OSM   H12A13823   0.797   2.971   6.023  1.4452  3.2602  0.5199
  129OSM   H12B13824   0.636   2.942   5.989 -3.0360  2.1552  0.9819
  129OSM    C1113825   0.668   3.020   6.189  0.5210 -0.4523  0.1071
  129OSM   H11A13826   0.652   2.917   6.229 -2.2112  0.3760  1.3574
  129OSM   H11B13827   0.574   3.077   6.204  0.9110 -0.1809  1.6902
  129OSM      P13828   0.905   3.041   6.305 -0.0746  0.2031  0.3225
  129OSM    O1313829   0.915   2.898   6.259  0.1390  0.0755 -0.3216
  129OSM    O1413830   1.006   3.133   6.256 -0.2960  0.1325  0.6013
  129OSM    O1113831   0.916   3.050   6.460 -0.9075 -0.9047  0.2209
  129OSM    O1213832   0.765   3.098   6.267  0.0640 -0.1976 -0.1024
  129OSM    C1S13833   0.803   3.069   6.545 -0.1077 -0.1469 -0.0117
  129OSM    H1S13834   0.737   2.981   6.528  0.1619 -0.2598 -0.5255
  129OSM    H1T13835   0.744   3.160   6.522  0.4651  0.2564  0.1049
  129OSM     NF13836   0.725   3.089   6.780 -0.0380  0.2275  0.4219
  129OSM    HNF13837   0.692   3.175   6.818  0.2832 -0.4333  2.3452
  129OSM    C2S13838   0.838   3.098   6.689 -0.3296  0.1088  0.4658
  129OSM    H2S13839   0.907   3.014   6.714  2.1532  1.4367 -1.4377
  129OSM    C3S13840   0.931   3.220   6.708 -0.4641 -0.5829 -0.1503
  129OSM    H3S13841   0.876   3.314   6.686  0.1652  0.1285  1.1963
  129OSM     O313842   1.050   3.221   6.625  0.2129 -0.6260 -0.1934
  129OSM    HO313843   1.036   3.160   6.552  0.1624 -0.1300 -0.6047
  129OSM    C4S13844   0.967   3.229   6.856  0.0817  0.4826 -0.2041
  129OSM    H4S13845   0.884   3.226   6.929  0.1887 -2.3210 -0.0686
  129OSM    C5S13846   1.091   3.248   6.905  0.3514  0.5069  0.1964
  129OSM    H5S13847   1.174   3.275   6.838 -0.9402  0.5610 -1.4390
  129OSM    C6S13848   1.135   3.250   7.051 -0.0690  0.4157 -0.1018
  129OSM    H6S13849   1.159   3.353   7.083 -1.0681  0.9317 -0.9621
  129OSM    H6T13850   1.225   3.186   7.061 -1.3251 -1.7097 -1.3864
  129OSM    C7S13851   1.037   3.188   7.159  0.3795  0.3120  0.9753
  129OSM    H7S13852   0.999   3.091   7.121 -0.1065  0.6133  0.6911
  129OSM    H7T13853   0.947   3.251   7.169  0.7662  0.8053  1.4346
  129OSM    C8S13854   1.101   3.176   7.290  0.0395 -0.1766 -0.4274
  129OSM    H8S13855   1.180   3.253   7.298  0.5551 -0.8053  0.7959
  129OSM    H8T13856   1.148   3.078   7.312 -1.7948 -1.2882 -1.2490
  129OSM    C9S13857   1.004   3.208   7.403 -0.1022 -0.2176  0.3397
  129OSM    H9S13858   0.933   3.123   7.394 -0.3724 -0.2420  2.2366
  129OSM    H9T13859   0.941   3.297   7.381 -1.5784 -1.2830  0.1278
  129OSM   C10S13860   1.054   3.223   7.546  0.2764 -0.0414  0.2794
  129OSM   H10S13861   0.971   3.256   7.612  0.8022  0.3159  0.7741
  129OSM   H10T13862   1.127   3.307   7.538 -0.0428  0.7319  3.7081
  129OSM   C11S13863   1.132   3.101   7.600 -0.5201  0.2116  0.2572
  129OSM   H11S13864   1.231   3.085   7.553 -0.3980  0.7138  0.3387
  129OSM   H11T13865   1.066   3.012   7.593  0.7270 -0.6119 -1.8065
  129OSM   C12S13866   1.160   3.112   7.756 -0.0658 -0.3896  0.0929
  129OSM   H12S13867   1.073   3.159   7.806  0.2314 -0.7745  0.9834
  129OSM   H12T13868   1.240   3.188   7.769 -0.6331 -0.0852  2.0595
  129OSM   C13S13869   1.202   2.972   7.800  0.3963  0.6843 -0.7664
  129OSM   H13S13870   1.275   2.932   7.727  0.6168 -1.3474  0.5049
  129OSM   H13T13871   1.102   2.924   7.799  0.2830  0.8384  0.7011
  129OSM   C14S13872   1.264   2.977   7.943  0.2567  0.4687 -0.0161
  129OSM   H14S13873   1.369   3.015   7.938  0.6386 -0.2349  1.9401
  129OSM   H14T13874   1.257   2.876   7.989  1.2877  0.0206 -0.7914
  129OSM   C15S13875   1.192   3.067   8.046 -0.5867 -0.4172  0.3449
  129OSM   H15S13876   1.085   3.040   8.051 -0.6305 -0.1489  4.1681
  129OSM   H15T13877   1.194   3.172   8.010 -0.2097 -0.9854 -1.3694
  129OSM   C16S13878   1.246   3.044   8.191 -0.1354  0.3883 -0.0590
  129OSM   H16S13879   1.355   3.026   8.190  0.1881  1.3354  3.4334
  129OSM   H16T13880   1.196   2.957   8.240 -0.6961  0.8120  0.1336
  129OSM   C17S13881   1.223   3.159   8.286 -0.2992 -0.1698  1.1608
  129OSM   H17S13882   1.248   3.252   8.231 -1.3366 -1.7483 -2.2578
  129OSM   H17T13883   1.296   3.158   8.369 -0.0626 -2.4990  0.9944
  129OSM   C18S13884   1.077   3.180   8.327  0.3265 -0.2228 -0.5690
  129OSM   H18S13885   1.045   3.101   8.399 -0.4605  0.6699  0.0948
  129OSM   H18T13886   1.010   3.173   8.240 -1.2909 -1.4201  0.7214
  129OSM   H18U13887   1.073   3.277   8.383  2.2032 -1.2826  1.6132
  129OSM    C1F13888   0.659   2.973   6.806 -0.2280 -0.0837 -0.1037
  129OSM     OF13889   0.709   2.864   6.776  0.2294 -0.3106  0.1192
  129OSM    C2F13890   0.512   2.980   6.857  0.4563 -0.0688  0.0787
  129OSM    H2F13891   0.457   2.906   6.795  0.8543  1.0020 -1.6537
  129OSM    H2G13892   0.464   3.078   6.832  0.8066  0.4455  1.3627
  129OSM    C3F13893   0.506   2.954   7.008 -0.2266 -0.0152  0.2358
  129OSM    H3F13894   0.547   2.852   7.022  0.2233  0.1398  0.0636
  129OSM    H3G13895   0.397   2.953   7.032 -0.7015  3.3149 -1.2102
  129OSM    C4F13896   0.568   3.057   7.103  0.4150 -0.1528 -0.7734
  129OSM    H4F13897   0.518   3.154   7.082  1.4591  0.2788 -1.3283
  129OSM    H4G13898   0.677   3.067   7.084  0.3631  2.1060 -0.1478
  129OSM    C5F13899   0.540   3.031   7.251 -0.7020  0.4762 -0.5552
  129OSM    H5F13900   0.574   2.930   7.284 -1.0069  1.5027  3.3673
  129OSM    H5G13901   0.432   3.051   7.268 -0.8028  0.2988 -0.9637
  129OSM    C6F13902   0.625   3.137   7.329 -0.0807 -0.6342 -0.5743
  129OSM    H6F13903   0.571   3.234   7.335  1.7800  0.4218  0.1032
  129OSM    H6G13904   0.719   3.175   7.283 -0.1929  0.7952  0.2869
  129OSM    C7F13905   0.649   3.107   7.483 -0.7394  0.1229 -0.5234
  129OSM    H7F13906   0.710   3.195   7.514  1.6186 -1.4032 -0.5638
  129OSM    H7G13907   0.706   3.014   7.504  0.9539  1.5961  2.0901
  129OSM    C8F13908   0.520   3.102   7.567 -1.0661  0.0777 -0.1500
  129OSM    H8F13909   0.441   3.177   7.542 -1.3034 -0.2724 -0.4457
  129OSM    H8G13910   0.561   3.122   7.669  3.4549 -2.1397 -1.3074
  129OSM    C9F13911   0.461   2.963   7.548 -0.1383  1.0857  0.0666
  129OSM    H9F13912   0.400   2.948   7.458 -0.3713  1.0094  0.2329
  129OSM   C10F13913   0.460   2.861   7.640  0.3114  0.8080  0.0756
  129OSM   H10F13914   0.407   2.772   7.602  2.0902  0.1657 -1.0075
  129OSM   C11F13915   0.532   2.854   7.779 -0.1220  0.1825 -0.1205
  129OSM   H11F13916   0.592   2.947   7.786 -1.2988  0.9586 -0.0849
  129OSM   H11G13917   0.603   2.769   7.775  0.9533  0.9549  1.6916
  129OSM   C12F13918   0.425   2.847   7.891 -0.0229 -0.0633 -0.2779
  129OSM   H12F13919   0.354   2.764   7.872 -1.5202  0.9070  0.8544
  129OSM   H12G13920   0.361   2.937   7.899  0.2870  0.0402  1.4070
  129OSM   C13F13921   0.485   2.825   8.032 -0.4533 -0.8781 -0.2054
  129OSM   H13F13922   0.543   2.914   8.062 -1.6392 -0.2791  0.4151
  129OSM   H13G13923   0.545   2.732   8.042 -2.7366 -2.3091  1.1837
  129OSM   C14F13924   0.371   2.796   8.133  0.1983 -0.0323 -0.0984
  129OSM   H14F13925   0.343   2.688   8.124  0.2786  0.0197 -1.0374
  129OSM   H14G13926   0.281   2.856   8.107 -1.0577 -2.4245 -1.7762
  129OSM   C15F13927   0.423   2.815   8.270  0.1321 -0.0447  0.3294
  129OSM   H15F13928   0.449   2.921   8.294 -0.5129  0.3360 -0.5778
  129OSM   H15G13929   0.506   2.744   8.285  0.3111  0.5869  2.7765
  129OSM   C16F13930   0.320   2.791   8.383  0.3902  0.6684 -0.0933
  129OSM   H16F13931   0.276   2.690   8.368  0.7400 -0.0150  2.9771
  129OSM   H16G13932   0.236   2.863   8.372 -0.5966 -0.6424 -1.7366
  129OSM   C17F13933   0.375   2.782   8.531 -0.4860 -1.1361  0.2188
  129OSM   H17F13934   0.293   2.795   8.605  0.4802 -0.8112  1.2463
  129OSM   H17G13935   0.426   2.880   8.542 -2.4528 -0.0392 -0.0129
  129OSM   C18F13936   0.467   2.665   8.578  0.1695  0.4337  0.7035
  129OSM   H18F13937   0.539   2.642   8.497  0.2708 -0.0025  0.9137
  129OSM   H18G13938   0.404   2.574   8.584  0.8684 -0.0795  0.3949
  129OSM   H18H13939   0.512   2.682   8.678  0.4687  3.3861  0.1539
  130OSM      N13940   4.732   4.279   6.245  0.0870 -0.0012 -0.4977
  130OSM    C1513941   4.738   4.344   6.115 -0.2517  0.5298  0.5770
  130OSM   H15A13942   4.698   4.445   6.119 -1.6614 -0.0338  2.4062
  130OSM   H15B13943   4.688   4.283   6.041  0.4928  1.2767 -0.5695
  130OSM   H15C13944   4.840   4.350   6.082 -1.0984 -0.7916 -2.6444
  130OSM    C1413945   4.592   4.278   6.292 -0.0677 -0.0148 -0.8098
  130OSM   H14A13946   4.530   4.210   6.234  1.0454 -0.4343 -1.5514
  130OSM   H14B13947   4.549   4.375   6.275  4.4054  1.9705 -2.3003
  130OSM   H14C13948   4.571   4.251   6.394 -0.4953  0.3868 -0.7886
  130OSM    C1313949   4.797   4.139   6.245  0.1801  0.1997  0.6430
  130OSM   H13A13950   4.903   4.157   6.239  0.2438 -0.3037  0.0585
  130OSM   H13B13951   4.761   4.080   6.161  1.3350 -0.1486  0.3717
  130OSM   H13C13952   4.778   4.077   6.332 -0.1524 -0.0984  0.3659
  130OSM    C1213953   4.812   4.369   6.344  0.8372 -0.0960 -1.0450
  130OSM   H12A13954   4.908   4.388   6.300  2.0103 -0.9045  1.0245
  130OSM   H12B13955   4.819   4.316   6.438  1.4817 -0.6096 -1.3722
  130OSM    C1113956   4.746   4.504   6.383  0.6494  0.3209 -0.8102
  130OSM   H11A13957   4.815   4.539   6.463  2.9309 -2.7840 -1.2235
  130OSM   H11B13958   4.646   4.494   6.430 -0.1811  3.3560 -1.7004
  130OSM      P13959   4.724   4.743   6.295  0.0331  0.3784 -0.1507
  130OSM    O1313960   4.851   4.804   6.250  0.2679 -0.1748  0.3484
  130OSM    O1413961   4.601   4.799   6.231  0.1363 -0.1692 -0.1916
  130OSM    O1113962   4.712   4.752   6.453  0.2025 -0.1773  0.2295
  130OSM    O1213963   4.731   4.591   6.271 -0.1010 -0.6601 -0.2580
  130OSM    C1S13964   4.672   4.880   6.512 -0.1419 -0.8804 -0.3383
  130OSM    H1S13965   4.565   4.907   6.504  0.5141  2.9020  1.3769
  130OSM    H1T13966   4.733   4.965   6.476 -0.3307 -0.7718 -0.4027
  130OSM     NF13967   4.615   5.003   6.730  0.1198 -0.0449  0.1243
  130OSM    HNF13968   4.671   5.085   6.737  0.8889 -0.6328  1.0283
  130OSM    C2S13969   4.688   4.884   6.665 -0.2370  0.3790 -0.6256
  130OSM    H2S13970   4.642   4.792   6.707  0.0417  0.7491  0.5446
  130OSM    C3S13971   4.838   4.865   6.711 -0.2131 -0.0700 -0.0622
  130OSM    H3S13972   4.905   4.937   6.659 -0.0536  0.4766  0.8737
  130OSM     O313973   4.885   4.734   6.667  0.5127 -0.6599 -0.3462
  130OSM    HO313974   4.814   4.694   6.616  2.0716 -3.9495 -0.2444
  130OSM    C4S13975   4.846   4.861   6.863 -0.5887  0.1796 -0.3904
  130OSM    H4S13976   4.818   4.763   6.906 -1.1498 -0.6034 -2.4117
  130OSM    C5S13977   4.901   4.955   6.937 -0.6356 -0.5998 -0.3543
  130OSM    H5S13978   4.949   5.041   6.887  0.8943  0.3189  2.5135
  130OSM    C6S13979   4.915   4.953   7.094  0.4138 -0.7417  0.1431
  130OSM    H6S13980   4.894   5.054   7.134  0.6743 -1.7128  2.9493
  130OSM    H6T13981   5.020   4.946   7.129  2.0347  0.1390 -3.9256
  130OSM    C7S13982   4.816   4.862   7.169  0.1696  0.0273  0.0941
  130OSM    H7S13983   4.821   4.755   7.137 -1.3822 -0.3971  1.1567
  130OSM    H7T13984   4.717   4.910   7.152  0.5102  0.1374 -1.8626
  130OSM    C8S13985   4.822   4.862   7.324 -0.2642  0.1093 -0.1713
  130OSM    H8S13986   4.837   4.966   7.360  0.8835 -0.5031  1.1993
  130OSM    H8T13987   4.910   4.805   7.360  2.4844  3.7949 -0.5699
  130OSM    C9S13988   4.690   4.803   7.373 -0.9221 -0.0488 -0.5422
  130OSM    H9S13989   4.663   4.708   7.322 -0.1722 -1.0269  0.8053
  130OSM    H9T13990   4.608   4.872   7.346 -0.8702  0.1037 -0.3130
  130OSM   C10S13991   4.688   4.788   7.523 -0.2954  0.2532 -0.6075
  130OSM   H10S13992   4.777   4.730   7.554 -0.0120  1.4080  0.8529
  130OSM   H10T13993   4.595   4.739   7.561 -0.2961  1.2405  0.7684
  130OSM   C11S13994   4.696   4.923   7.603 -0.0163  0.1157 -0.3854
  130OSM   H11S13995   4.600   4.979   7.594 -0.3512 -0.6091 -1.5089
  130OSM   H11T13996   4.784   4.981   7.568 -0.0698 -1.2595 -3.0838
  130OSM   C12S13997   4.708   4.897   7.756 -0.4880  1.1491 -0.3359
  130OSM   H12S13998   4.745   4.992   7.799 -2.0963  1.4179  0.5443
  130OSM   H12T13999   4.781   4.820   7.789 -0.8953  1.0097  0.2500
  130OSM   C13S14000   4.568   4.874   7.824 -0.6966  0.0814 -0.0067
  130OSM   H13S14001   4.524   4.784   7.777  2.2055 -1.0709 -0.7326
  130OSM   H13T14002   4.506   4.966   7.820  0.5767  0.9719  0.2436
  130OSM   C14S14003   4.580   4.849   7.974 -0.2468  0.1476  0.1553
  130OSM   H14S14004   4.670   4.785   7.989  0.4701  1.1354  0.1318
  130OSM   H14T14005   4.490   4.790   8.002 -1.2911 -0.3875 -3.7850
  130OSM   C15S14006   4.578   4.975   8.062 -1.0756 -0.8028  0.2581
  130OSM   H15S14007   4.493   5.044   8.041 -0.6093  0.1339  1.3414
  130OSM   H15T14008   4.677   5.023   8.054  0.4297 -2.9369  3.7220
  130OSM   C16S14009   4.560   4.947   8.215 -0.3387 -0.4004  0.0261
  130OSM   H16S14010   4.616   4.865   8.264 -1.7691 -0.7514  1.1248
  130OSM   H16T14011   4.455   4.912   8.218 -0.1214 -1.1133 -0.3678
  130OSM   C17S14012   4.581   5.071   8.304  0.4946 -0.2711  0.5204
  130OSM   H17S14013   4.511   5.151   8.273  1.3645  0.4099  0.2819
  130OSM   H17T14014   4.681   5.115   8.284  1.3835 -1.9013  1.1078
  130OSM   C18S14015   4.553   5.051   8.455  0.1098  0.1286 -0.0428
  130OSM   H18S14016   4.444   5.033   8.468  0.1956 -1.4672 -1.2690
  130OSM   H18T14017   4.571   5.148   8.507  1.0064 -0.2543  0.3785
  130OSM   H18U14018   4.617   4.974   8.502  0.3874  0.6163  0.3974
  130OSM    C1F14019   4.485   5.004   6.750 -0.0760  0.7931  0.9288
  130OSM     OF14020   4.413   4.910   6.709  0.3100 -0.1254  0.3468
  130OSM    C2F14021   4.418   5.120   6.810 -0.0819  1.1571  0.0379
  130OSM    H2F14022   4.340   5.153   6.739  0.6540  0.9084 -0.9008
  130OSM    H2G14023   4.487   5.204   6.832  1.9406 -0.6478  0.8977
  130OSM    C3F14024   4.357   5.074   6.952  0.1561  0.0166  0.4099
  130OSM    H3F14025   4.427   5.018   7.018 -0.4185  0.0686  1.0763
  130OSM    H3G14026   4.279   5.000   6.922  1.2244 -1.0476  0.1537
  130OSM    C4F14027   4.293   5.191   7.031 -0.2503 -0.0056 -0.1953
  130OSM    H4F14028   4.217   5.235   6.962  0.1537  2.1383  0.6617
  130OSM    H4G14029   4.365   5.271   7.058 -1.4101  1.6448 -1.7584
  130OSM    C5F14030   4.196   5.136   7.143 -0.4911  0.2325 -0.7110
  130OSM    H5F14031   4.163   5.037   7.106 -0.5150 -0.0338  0.0217
  130OSM    H5G14032   4.110   5.207   7.145 -0.2815  0.4748  0.2061
  130OSM    C6F14033   4.259   5.117   7.283 -0.5329 -0.1788  0.0820
  130OSM    H6F14034   4.303   5.212   7.320  1.8719 -1.0053 -0.4911
  130OSM    H6G14035   4.349   5.054   7.272 -0.0550  0.4040  0.5486
  130OSM    C7F14036   4.168   5.055   7.387 -0.3923 -0.4743  0.5789
  130OSM    H7F14037   4.128   4.958   7.350 -1.7232  0.1575  0.3102
  130OSM    H7G14038   4.082   5.125   7.386  0.8762  1.1674  0.7374
  130OSM    C8F14039   4.238   5.043   7.521  0.0934  0.0804  0.6871
  130OSM    H8F14040   4.269   5.144   7.555 -1.8218  0.0253  2.8253
  130OSM    H8G14041   4.328   4.978   7.514  0.8136  1.0097  1.1822
  130OSM    C9F14042   4.142   4.987   7.625 -0.2434  0.2511  0.1902
  130OSM    H9F14043   4.057   4.929   7.585 -0.2468  0.3959 -0.0158
  130OSM   C10F14044   4.139   5.030   7.753  0.4568 -0.4726  0.5685
  130OSM   H10F14045   4.053   4.996   7.813 -0.9497 -0.8648 -1.5634
  130OSM   C11F14046   4.219   5.131   7.828  0.3931  0.0850  0.6020
  130OSM   H11F14047   4.168   5.230   7.831  0.3587  0.0630  0.7679
  130OSM   H11G14048   4.320   5.123   7.784 -0.2382 -1.4586 -0.6596
  130OSM   C12F14049   4.244   5.107   7.975 -0.7279 -0.5436 -0.0726
  130OSM   H12F14050   4.328   5.172   8.007  0.0704 -1.6298  0.1042
  130OSM   H12G14051   4.280   5.005   7.998  1.7992  0.1926 -0.3839
  130OSM   C13F14052   4.120   5.120   8.067  0.2278 -0.3935  0.1225
  130OSM   H13F14053   4.034   5.076   8.012 -0.3378  1.3649 -0.4559
  130OSM   H13G14054   4.092   5.227   8.068  1.1926 -0.0726 -2.1050
  130OSM   C14F14055   4.132   5.055   8.207  0.1370  0.1089 -0.8282
  130OSM   H14F14056   4.203   5.117   8.266  0.5811 -1.6879  0.6331
  130OSM   H14G14057   4.177   4.953   8.206  0.2562  0.1472 -2.4832
  130OSM   C15F14058   3.995   5.052   8.281  0.7839 -0.4108  1.3198
  130OSM   H15F14059   3.927   4.997   8.213  1.2459 -0.2006  0.6707
  130OSM   H15G14060   3.959   5.157   8.280  0.5801 -0.4003 -2.2992
  130OSM   C16F14061   3.997   4.995   8.422 -0.1893  0.8681  0.8367
  130OSM   H16F14062   4.092   4.939   8.437 -1.4553 -1.3904  0.7933
  130OSM   H16G14063   3.905   4.936   8.439  0.0809 -0.2495 -1.3242
  130OSM   C17F14064   4.018   5.112   8.525 -0.2036 -0.0952  0.2911
  130OSM   H17F14065   3.936   5.186   8.532  0.7352  0.9796  0.2958
  130OSM   H17G14066   4.112   5.159   8.489 -0.1204 -1.1237 -0.8827
  130OSM   C18F14067   4.053   5.059   8.665 -0.1549  0.1087 -0.6475
  130OSM   H18F14068   4.161   5.039   8.684  0.4099  0.8989 -2.7874
  130OSM   H18G14069   3.995   4.964   8.669 -0.0079  0.0559  1.1741
  130OSM   H18H14070   4.017   5.134   8.739  0.9453  1.3374 -1.3130
  131OSM      N14071   0.267   2.146   6.039 -0.5785  0.4890 -0.5371
  131OSM    C1514072   0.205   2.247   5.961  0.8513 -0.1482 -0.0509
  131OSM   H15A14073   0.099   2.253   5.978  1.2288 -0.0086  2.8133
  131OSM   H15B14074   0.225   2.222   5.858  2.4493  0.0156  0.1861
  131OSM   H15C14075   0.242   2.344   5.991  0.9938 -0.1352 -0.2652
  131OSM    C1414076   0.231   2.177   6.183 -0.4375  0.4635 -0.2641
  131OSM   H14A14077   0.128   2.162   6.211 -0.5765  0.2013 -0.8877
  131OSM   H14B14078   0.270   2.270   6.221 -0.2327  0.7563 -1.1720
  131OSM   H14C14079   0.290   2.112   6.247  0.7092 -0.1144 -1.8367
  131OSM    C1314080   0.225   2.007   5.992 -0.0103 -0.0741  0.7839
  131OSM   H13A14081   0.229   1.995   5.885  0.8960  0.7042  0.7189
  131OSM   H13B14082   0.124   1.978   6.017 -0.7107  1.2092 -0.4008
  131OSM   H13C14083   0.279   1.923   6.034 -0.4689 -0.4777  0.5749
  131OSM    C1214084   0.418   2.161   6.024 -0.4908  0.7187 -0.0610
  131OSM   H12A14085   0.436   2.266   6.005 -2.1598  0.7717 -1.6078
  131OSM   H12B14086   0.447   2.123   5.927 -1.1358 -0.0064  0.0148
  131OSM    C1114087   0.504   2.096   6.134  0.2111  0.3865  0.3176
  131OSM   H11A14088   0.493   2.138   6.236 -1.7429 -0.9364  0.6979
  131OSM   H11B14089   0.606   2.129   6.106  0.7417 -0.8038  0.7914
  131OSM      P14090   0.593   1.843   6.134  0.0322  0.1226 -0.4242
  131OSM    O1314091   0.562   1.763   6.014  0.3650 -0.3097  0.0274
  131OSM    O1414092   0.726   1.908   6.137  0.3074 -0.8330 -0.0286
  131OSM    O1114093   0.570   1.751   6.265 -0.2085 -0.2447 -0.1598
  131OSM    O1214094   0.479   1.951   6.145  0.5429 -0.2758  0.1182
  131OSM    C1S14095   0.592   1.804   6.398 -0.6436 -1.2252  0.0206
  131OSM    H1S14096   0.570   1.913   6.395  0.1090 -1.0609 -3.0759
  131OSM    H1T14097   0.695   1.796   6.438 -1.0878 -1.4959  1.1621
  131OSM     NF14098   0.514   1.786   6.625  0.5570  0.5685  0.2300
  131OSM    HNF14099   0.562   1.729   6.692  2.2675  1.8982  0.2156
  131OSM    C2S14100   0.496   1.728   6.492  0.1582 -0.1127  0.3006
  131OSM    H2S14101   0.389   1.745   6.469  0.1267  2.1682  1.7576
  131OSM    C3S14102   0.524   1.574   6.484  0.1012  0.1153 -0.8650
  131OSM    H3S14103   0.634   1.562   6.495 -0.2613 -3.4785 -0.0447
  131OSM     O314104   0.498   1.510   6.361  0.1275  0.1231 -0.0058
  131OSM    HO314105   0.496   1.583   6.299 -1.1727 -1.2924 -1.7823
  131OSM    C4S14106   0.463   1.506   6.604  0.4716  0.2010 -0.2324
  131OSM    H4S14107   0.521   1.522   6.696  1.2156  0.1890 -0.6898
  131OSM    C5S14108   0.344   1.437   6.604 -0.2512 -0.6291  0.0723
  131OSM    H5S14109   0.300   1.425   6.504  2.3076 -0.3750 -1.1744
  131OSM    C6S14110   0.269   1.363   6.722 -0.0855  0.1694  0.0971
  131OSM    H6S14111   0.258   1.255   6.699 -1.1219  0.7697 -2.5298
  131OSM    H6T14112   0.164   1.400   6.728 -1.0321 -1.8560 -2.2124
  131OSM    C7S14113   0.329   1.368   6.863 -0.1277 -0.2053  0.1117
  131OSM    H7S14114   0.341   1.474   6.895 -0.7383 -0.0572 -0.1266
  131OSM    H7T14115   0.425   1.312   6.858 -0.6299 -1.0146 -0.6584
  131OSM    C8S14116   0.244   1.301   6.970  0.4078  0.0391  0.3802
  131OSM    H8S14117   0.211   1.199   6.940  1.6784 -0.0320 -0.9086
  131OSM    H8T14118   0.154   1.363   6.986  1.3846  1.9802 -1.2515
  131OSM    C9S14119   0.306   1.289   7.114  0.0463  0.1427 -0.3282
  131OSM    H9S14120   0.354   1.383   7.150 -0.5536  0.3932 -0.1677
  131OSM    H9T14121   0.376   1.203   7.115 -0.0760  0.0047 -1.8924
  131OSM   C10S14122   0.200   1.271   7.228 -0.1234  0.1921 -0.3042
  131OSM   H10S14123   0.164   1.167   7.215  0.4941 -0.2594  1.4326
  131OSM   H10T14124   0.122   1.350   7.213 -0.0055  0.2825 -0.4429
  131OSM   C11S14125   0.275   1.268   7.359 -1.3357  0.1874 -0.4927
  131OSM   H11S14126   0.323   1.367   7.370 -0.1379 -0.5470  1.4574
  131OSM   H11T14127   0.349   1.185   7.365 -1.3581 -0.2276 -4.0569
  131OSM   C12S14128   0.173   1.255   7.471  0.6658  0.0927  0.0571
  131OSM   H12S14129   0.109   1.166   7.450  1.2889 -0.1767 -0.7601
  131OSM   H12T14130   0.103   1.340   7.454 -2.6817 -2.3163  0.8249
  131OSM   C13S14131   0.223   1.256   7.618 -0.1665 -0.0472  0.4903
  131OSM   H13S14132   0.278   1.352   7.627 -1.4427  1.2963 -3.6215
  131OSM   H13T14133   0.284   1.164   7.633  1.7059  1.0533 -0.0991
  131OSM   C14S14134   0.113   1.258   7.720  0.4870  0.4297  0.0566
  131OSM   H14S14135   0.064   1.159   7.709  1.6711 -0.0696 -1.0564
  131OSM   H14T14136   0.037   1.338   7.722 -1.3238 -1.2161  0.1578
  131OSM   C15S14137   0.166   1.259   7.863  0.2315 -0.2845 -0.2028
  131OSM   H15S14138   0.253   1.190   7.873 -0.1248 -0.5637  1.2779
  131OSM   H15T14139   0.084   1.228   7.931  0.6551 -0.7668  0.0938
  131OSM   C16S14140   0.209   1.400   7.907 -0.2281 -0.0160 -0.3031
  131OSM   H16S14141   0.125   1.473   7.910 -0.2254 -0.0263  2.2105
  131OSM   H16T14142   0.285   1.444   7.838  0.7085  1.2811  1.4584
  131OSM   C17S14143   0.284   1.413   8.047  0.5551 -0.1308  0.7567
  131OSM   H17S14144   0.347   1.505   8.052  2.1122 -1.0802 -0.3961
  131OSM   H17T14145   0.348   1.323   8.054  1.4705  0.4085 -0.2691
  131OSM   C18S14146   0.196   1.417   8.168  0.8943  0.0212 -0.8276
  131OSM   H18S14147   0.138   1.512   8.163  0.4820 -0.1336  0.7118
  131OSM   H18T14148   0.257   1.429   8.260  0.4057  0.3541 -0.5451
  131OSM   H18U14149   0.127   1.330   8.173  0.7055  0.1329 -1.3603
  131OSM    C1F14150   0.462   1.893   6.659 -0.7252 -1.0539 -0.3087
  131OSM     OF14151   0.405   1.968   6.583  0.7885  0.0062  0.0123
  131OSM    C2F14152   0.486   1.923   6.805 -0.6228  0.2733 -0.5300
  131OSM    H2F14153   0.591   1.896   6.831 -1.0823  0.1708  1.3837
  131OSM    H2G14154   0.429   1.847   6.863 -1.7149  0.4752 -1.3037
  131OSM    C3F14155   0.453   2.070   6.843 -0.1401  0.2571 -0.4103
  131OSM    H3F14156   0.354   2.093   6.797 -0.6372  1.2796  1.0968
  131OSM    H3G14157   0.536   2.136   6.809  0.4952  0.3458  1.2468
  131OSM    C4F14158   0.432   2.090   6.994 -0.0559  0.4564 -0.2505
  131OSM    H4F14159   0.343   2.030   7.020 -0.2741  0.7444 -0.3325
  131OSM    H4G14160   0.384   2.189   7.012 -0.4364 -0.0776  1.9277
  131OSM    C5F14161   0.562   2.052   7.078 -0.7198  0.4319 -0.0110
  131OSM    H5F14162   0.636   2.123   7.037 -0.9501  0.8967  0.3693
  131OSM    H5G14163   0.586   1.950   7.040 -0.4780  1.7043 -3.5852
  131OSM    C6F14164   0.539   2.070   7.230  0.5978  0.1931  0.0605
  131OSM    H6F14165   0.456   2.003   7.261 -1.3504  1.8368 -1.3303
  131OSM    H6G14166   0.501   2.173   7.245  1.1896 -0.0222  4.1328
  131OSM    C7F14167   0.677   2.058   7.314 -0.7190  0.8410  0.8770
  131OSM    H7F14168   0.758   2.101   7.250  1.0032 -0.0630  2.3726
  131OSM    H7G14169   0.690   1.948   7.314 -3.0242  0.4918 -0.2746
  131OSM    C8F14170   0.663   2.118   7.453 -0.1167 -0.0416  0.7497
  131OSM    H8F14171   0.638   2.223   7.426  0.2807 -0.7088 -2.6234
  131OSM    H8G14172   0.769   2.111   7.484  0.3255 -0.9399 -0.8951
  131OSM    C9F14173   0.565   2.053   7.544 -0.0329  0.1738  0.4733
  131OSM    H9F14174   0.470   2.029   7.495 -0.6914 -0.8685  2.1659
  131OSM   C10F14175   0.593   2.010   7.664 -0.7694  0.0519  0.3394
  131OSM   H10F14176   0.514   1.945   7.705 -0.9193 -0.8382 -1.3030
  131OSM   C11F14177   0.727   2.012   7.730 -0.2459 -0.0730 -0.6040
  131OSM   H11F14178   0.783   2.102   7.696 -0.0596  1.1116  2.5149
  131OSM   H11G14179   0.791   1.926   7.702 -0.9801 -0.7430 -0.2627
  131OSM   C12F14180   0.728   2.007   7.883  0.3701 -0.2859 -0.5019
  131OSM   H12F14181   0.694   1.909   7.921 -0.2769  0.4823  1.0125
  131OSM   H12G14182   0.656   2.083   7.921 -1.1030 -0.8617 -2.0468
  131OSM   C13F14183   0.875   2.034   7.940 -0.1891  0.4724  0.4126
  131OSM   H13F14184   0.895   2.141   7.914 -2.4517  0.8125 -0.1514
  131OSM   H13G14185   0.938   1.964   7.881  0.3628  1.1205  0.2147
  131OSM   C14F14186   0.898   2.012   8.092  0.0986  0.3403 -0.0247
  131OSM   H14F14187   0.881   1.903   8.109 -2.1301  0.6425 -0.1185
  131OSM   H14G14188   0.814   2.065   8.141 -1.1019 -1.2316 -0.3013
  131OSM   C15F14189   1.028   2.066   8.153  0.7497  0.3824 -0.5454
  131OSM   H15F14190   1.004   2.095   8.257  0.4909 -0.7719 -0.2717
  131OSM   H15G14191   1.052   2.166   8.110 -0.0354  0.9968  0.4044
  131OSM   C16F14192   1.147   1.969   8.132  0.0548  0.4436  0.2014
  131OSM   H16F14193   1.161   1.941   8.026  0.0585  1.8458 -0.1897
  131OSM   H16G14194   1.125   1.868   8.173 -0.6628  0.5119  0.0054
  131OSM   C17F14195   1.266   2.032   8.198  0.0423 -0.0008 -0.1260
  131OSM   H17F14196   1.257   2.020   8.308 -0.7420 -0.6484 -0.2543
  131OSM   H17G14197   1.273   2.137   8.161  1.0460  0.3797  1.0573
  131OSM   C18F14198   1.390   1.949   8.156  0.5468 -0.5115  0.1024
  131OSM   H18F14199   1.369   1.841   8.175 -1.0762 -0.1387  0.5518
  131OSM   H18G14200   1.479   1.967   8.220 -0.8477  0.8381  1.7731
  131OSM   H18H14201   1.427   1.962   8.052  0.3473 -1.1155 -0.0474
  132OSM      N14202   3.406   1.756   6.306 -0.1097 -0.1581  0.5424
  132OSM    C1514203   3.288   1.687   6.237 -0.0402 -0.1485  1.1644
  132OSM   H15A14204   3.210   1.761   6.234 -0.2044 -0.3438  0.2519
  132OSM   H15B14205   3.270   1.600   6.298  1.2928 -0.1351  1.6104
  132OSM   H15C14206   3.327   1.656   6.141  2.1270  1.6177  1.3908
  132OSM    C1414207   3.523   1.655   6.306 -0.4807  0.7429  0.1961
  132OSM   H14A14208   3.504   1.570   6.371  0.0002 -0.2332 -0.9083
  132OSM   H14B14209   3.615   1.705   6.330 -0.9534  1.4456  0.5604
  132OSM   H14C14210   3.553   1.617   6.210  0.6951 -1.2340  1.2768
  132OSM    C1314211   3.456   1.865   6.222 -0.4032 -0.2355  0.8921
  132OSM   H13A14212   3.497   1.824   6.131  0.1170  1.2797  0.4120
  132OSM   H13B14213   3.549   1.904   6.261  1.8210 -1.9444 -2.2203
  132OSM   H13C14214   3.383   1.945   6.220 -1.7923 -1.4468  1.3056
  132OSM    C1214215   3.362   1.811   6.440  0.0649 -0.2055  0.0772
  132OSM   H12A14216   3.450   1.862   6.474  0.9386 -0.1791 -2.0612
  132OSM   H12B14217   3.340   1.732   6.510  0.1548 -1.3975 -1.2030
  132OSM    C1114218   3.242   1.905   6.448 -0.2036 -0.2982 -0.1110
  132OSM   H11A14219   3.257   1.990   6.378 -2.6063  1.5311  1.4569
  132OSM   H11B14220   3.230   1.963   6.542 -1.9829 -1.4653  0.4162
  132OSM      P14221   3.059   1.734   6.516 -0.1715 -0.0612  0.1914
  132OSM    O1314222   2.921   1.697   6.488 -0.2973 -0.1595 -0.1969
  132OSM    O1414223   3.158   1.623   6.513  0.2407 -0.2200 -0.0634
  132OSM    O1114224   3.062   1.801   6.658  0.0213 -0.1552  0.0107
  132OSM    O1214225   3.118   1.849   6.418 -0.4807  0.2592  0.3101
  132OSM    C1S14226   2.996   1.753   6.774 -0.9570  0.5358  0.1040
  132OSM    H1S14227   3.035   1.651   6.793 -2.2906 -0.2309 -1.1044
  132OSM    H1T14228   2.886   1.747   6.767 -0.9551  0.4643  0.1267
  132OSM     NF14229   2.993   1.781   7.022  0.1090  0.3239 -0.4155
  132OSM    HNF14230   2.922   1.826   7.076 -0.4421 -0.4751 -0.4666
  132OSM    C2S14231   3.029   1.844   6.897  0.6706  0.3314 -0.1691
  132OSM    H2S14232   3.139   1.862   6.903  0.3835  1.7999  2.1375
  132OSM    C3S14233   2.966   1.990   6.884  0.2524 -0.3747  0.2303
  132OSM    H3S14234   2.855   1.993   6.883  0.1283 -1.4954  2.4430
  132OSM     O314235   3.009   2.043   6.759 -0.3034 -0.2868  0.3459
  132OSM    HO314236   3.045   1.964   6.717  1.0110 -0.8647  2.3823
  132OSM    C4S14237   3.014   2.092   6.991  0.9166 -0.5104  0.3408
  132OSM    H4S14238   3.114   2.132   6.967 -1.0569  3.2005 -2.6572
  132OSM    C5S14239   2.953   2.104   7.108 -0.1471 -0.2495 -1.0445
  132OSM    H5S14240   2.861   2.044   7.117 -0.3848  0.4595  3.1822
  132OSM    C6S14241   3.000   2.187   7.228  0.4128  0.4228  0.2426
  132OSM    H6S14242   2.922   2.251   7.274  0.9076  0.7427  0.6470
  132OSM    H6T14243   3.074   2.263   7.198 -0.2154  1.1209  0.4352
  132OSM    C7S14244   3.062   2.088   7.332 -0.0309 -0.0280 -0.2247
  132OSM    H7S14245   3.149   2.032   7.292 -0.6628 -1.1291 -0.1023
  132OSM    H7T14246   2.989   2.008   7.357  0.5919 -1.5635 -2.9482
  132OSM    C8S14247   3.093   2.157   7.459 -0.9460  0.1011 -0.6074
  132OSM    H8S14248   3.011   2.221   7.498 -0.7216  0.7960 -1.2474
  132OSM    H8T14249   3.167   2.236   7.435 -2.4292  2.1072  1.0024
  132OSM    C9S14250   3.151   2.067   7.566 -0.1613  0.1269 -0.3009
  132OSM    H9S14251   3.250   2.035   7.527 -0.3867 -1.5276  0.4110
  132OSM    H9T14252   3.087   1.980   7.591 -1.6677  1.5708  1.1447
  132OSM   C10S14253   3.186   2.138   7.698 -0.0609 -0.0853 -0.8792
  132OSM   H10S14254   3.090   2.182   7.733  0.4496  1.2735 -1.1179
  132OSM   H10T14255   3.261   2.216   7.672 -1.2537  0.4916 -2.7926
  132OSM   C11S14256   3.256   2.046   7.803  0.5061 -0.4183  0.0987
  132OSM   H11S14257   3.353   2.005   7.766  0.6761  1.5348 -1.7776
  132OSM   H11T14258   3.188   1.960   7.818  1.1121 -0.7498  1.0801
  132OSM   C12S14259   3.262   2.121   7.938 -0.0677  0.7657  0.5743
  132OSM   H12S14260   3.163   2.168   7.951  0.5954  2.8539 -1.2182
  132OSM   H12T14261   3.336   2.205   7.936  0.4358  0.3218 -0.1431
  132OSM   C13S14262   3.289   2.027   8.054 -0.0546 -0.5042 -0.5861
  132OSM   H13S14263   3.371   1.956   8.031 -1.0064 -1.5578 -0.7733
  132OSM   H13T14264   3.198   1.966   8.071 -0.3941  0.0450 -0.3721
  132OSM   C14S14265   3.332   2.098   8.178 -0.6622 -0.5738 -0.1574
  132OSM   H14S14266   3.273   2.192   8.180 -0.4129 -0.2562 -3.1876
  132OSM   H14T14267   3.439   2.128   8.165  0.3666 -4.7527 -3.3486
  132OSM   C15S14268   3.312   2.017   8.311 -0.6366 -0.5745 -0.7499
  132OSM   H15S14269   3.342   1.913   8.289  0.9309 -0.5022  0.7627
  132OSM   H15T14270   3.206   2.019   8.343  0.0966  3.4983  2.2996
  132OSM   C16S14271   3.415   2.049   8.422 -0.1258 -0.6951  0.1083
  132OSM   H16S14272   3.380   2.006   8.518  0.5524  0.0871  0.7155
  132OSM   H16T14273   3.431   2.158   8.434 -1.7328 -0.4329  0.0814
  132OSM   C17S14274   3.552   1.996   8.386  0.1839 -0.5948 -0.4748
  132OSM   H17S14275   3.557   1.980   8.277 -2.0770  1.4918 -0.9899
  132OSM   H17T14276   3.563   1.897   8.435 -0.7009 -0.4160  0.1181
  132OSM   C18S14277   3.652   2.095   8.443  0.1138  0.1453 -0.0414
  132OSM   H18S14278   3.650   2.194   8.393  1.8048  0.4668  0.4435
  132OSM   H18T14279   3.756   2.061   8.426  1.4871  3.8646  0.0433
  132OSM   H18U14280   3.623   2.103   8.550  4.0212 -0.3161  1.1995
  132OSM    C1F14281   3.064   1.675   7.067  0.0065 -0.2705  0.3631
  132OSM     OF14282   3.147   1.617   6.999 -0.1733  0.5821 -0.0110
  132OSM    C2F14283   3.041   1.641   7.210 -0.4435 -0.3001 -1.1254
  132OSM    H2F14284   2.957   1.569   7.221  0.6061 -1.4076 -0.1111
  132OSM    H2G14285   3.018   1.738   7.259 -1.1456 -1.2698  0.5313
  132OSM    C3F14286   3.175   1.582   7.273 -0.9230  0.0681 -0.3052
  132OSM    H3F14287   3.261   1.649   7.253  0.6398 -1.6018  0.5688
  132OSM    H3G14288   3.191   1.483   7.227 -3.7431 -0.4325 -0.3687
  132OSM    C4F14289   3.168   1.578   7.427 -0.0580 -0.3264 -0.3807
  132OSM    H4F14290   3.080   1.518   7.456 -1.5513  1.5943 -0.7757
  132OSM    H4G14291   3.166   1.681   7.470  0.7498 -0.4447 -0.0267
  132OSM    C5F14292   3.290   1.516   7.505 -0.0258  0.4336 -0.4380
  132OSM    H5F14293   3.364   1.598   7.490 -0.1459  0.4733 -0.8348
  132OSM    H5G14294   3.319   1.425   7.449  2.3973 -0.0031  1.3814
  132OSM    C6F14295   3.267   1.480   7.655 -0.2284 -0.1493  0.0033
  132OSM    H6F14296   3.344   1.403   7.678 -1.6194 -1.9899 -1.2165
  132OSM    H6G14297   3.170   1.426   7.658 -0.0704 -0.7210 -2.7295
  132OSM    C7F14298   3.271   1.600   7.748 -0.7135 -0.0120 -0.3498
  132OSM    H7F14299   3.194   1.672   7.714  0.1322  0.2683 -1.7204
  132OSM    H7G14300   3.362   1.663   7.743 -0.1998 -0.6701  0.4007
  132OSM    C8F14301   3.253   1.568   7.901  0.5707  0.3665  0.3905
  132OSM    H8F14302   3.241   1.662   7.959  0.8877  1.8418 -1.8207
  132OSM    H8G14303   3.340   1.521   7.951 -0.5561 -1.8257  0.4037
  132OSM    C9F14304   3.129   1.481   7.922 -0.0856 -0.7101  0.5110
  132OSM    H9F14305   3.150   1.376   7.898  2.1234  0.1630 -1.8881
  132OSM   C10F14306   3.006   1.523   7.956 -0.2046 -0.3255 -0.2704
  132OSM   H10F14307   2.927   1.449   7.974  0.2788 -0.5738  0.8895
  132OSM   C11F14308   2.955   1.665   7.981  0.1671 -0.5199 -0.3087
  132OSM   H11F14309   2.874   1.689   7.909 -0.4747 -1.2298  0.1638
  132OSM   H11G14310   3.036   1.732   7.946  0.7733 -1.2935 -0.4286
  132OSM   C12F14311   2.935   1.701   8.129 -0.3872  0.3167 -0.6027
  132OSM   H12F14312   2.935   1.811   8.143  1.0540  0.3886 -1.0949
  132OSM   H12G14313   3.014   1.651   8.189  0.2886  0.8399 -1.0564
  132OSM   C13F14314   2.802   1.659   8.191  0.3277 -0.0541  0.2472
  132OSM   H13F14315   2.780   1.552   8.174 -0.0677 -0.0576  0.7457
  132OSM   H13G14316   2.716   1.717   8.152  0.0395  0.4965  1.6387
  132OSM   C14F14317   2.807   1.675   8.339  0.5478  1.3250 -0.3397
  132OSM   H14F14318   2.843   1.776   8.369  1.4739  0.7880  0.4347
  132OSM   H14G14319   2.881   1.605   8.383  0.1861  0.7836 -0.5788
  132OSM   C15F14320   2.666   1.637   8.391  0.2372 -0.1781  0.0044
  132OSM   H15F14321   2.644   1.532   8.361  0.6829  0.4102 -2.6320
  132OSM   H15G14322   2.587   1.697   8.341 -1.1125 -0.5785  1.5336
  132OSM   C16F14323   2.645   1.653   8.541  0.0348 -0.3745  0.5131
  132OSM   H16F14324   2.648   1.760   8.571  1.8235 -0.2270 -0.1043
  132OSM   H16G14325   2.734   1.612   8.593  0.6108  1.1675  0.8057
  132OSM   C17F14326   2.519   1.587   8.589 -0.1385  0.0961 -0.2485
  132OSM   H17F14327   2.540   1.545   8.690  3.4502  0.3713 -0.7238
  132OSM   H17G14328   2.496   1.502   8.520 -1.3885 -1.3572  1.8406
  132OSM   C18F14329   2.409   1.687   8.599  0.1067 -0.1199  0.2001
  132OSM   H18F14330   2.356   1.712   8.505 -0.3759  0.0008  0.5040
  132OSM   H18G14331   2.459   1.777   8.641  0.6456 -1.1970  1.9734
  132OSM   H18H14332   2.332   1.657   8.673 -0.4735 -0.3852 -0.5030
  133OSM      N14333   3.996   2.145   6.604 -0.4803 -0.2688 -0.0789
  133OSM    C1514334   3.874   2.085   6.654 -0.5524 -0.2611  0.1183
  133OSM   H15A14335   3.838   2.142   6.738 -0.9343  1.3059 -1.0593
  133OSM   H15B14336   3.887   1.981   6.680  2.4427  0.5701  2.5148
  133OSM   H15C14337   3.795   2.098   6.582 -0.7085  1.5230  0.5637
  133OSM    C1414338   3.963   2.271   6.539 -0.3981 -0.8456 -0.5540
  133OSM   H14A14339   3.925   2.351   6.601 -0.7268  0.0285 -1.8332
  133OSM   H14B14340   3.887   2.253   6.464 -2.4318 -1.8983  1.6178
  133OSM   H14C14341   4.058   2.301   6.498  0.2505 -0.1995  1.3304
  133OSM    C1314342   4.089   2.180   6.715  0.0550 -0.0451  0.0395
  133OSM   H13A14343   4.158   2.105   6.750  0.8241  1.4713  1.9617
  133OSM   H13B14344   4.026   2.215   6.795  0.2390  0.4713 -0.0420
  133OSM   H13C14345   4.149   2.264   6.683 -0.1032 -0.3978 -1.2619
  133OSM    C1214346   4.063   2.055   6.500 -0.0663  0.4726  0.2257
  133OSM   H12A14347   4.095   1.966   6.553 -0.7054  0.6788  0.9718
  133OSM   H12B14348   4.157   2.104   6.480  0.6489  0.5873  3.4471
  133OSM    C1114349   3.992   2.019   6.362  0.2249  0.1443 -0.6424
  133OSM   H11A14350   4.069   1.971   6.298  0.7119 -0.8279  0.6370
  133OSM   H11B14351   3.955   2.105   6.302 -3.2401  0.2160  1.3422
  133OSM      P14352   3.890   1.789   6.435  0.2372 -0.6623  0.1346
  133OSM    O1314353   3.925   1.710   6.319  0.1774  0.1078  0.2068
  133OSM    O1414354   3.975   1.782   6.553  0.0688 -0.3214 -0.1327
  133OSM    O1114355   3.740   1.752   6.482  0.0302 -0.2049  0.3862
  133OSM    O1214356   3.874   1.943   6.393  0.7379 -0.2401  0.2066
  133OSM    C1S14357   3.719   1.661   6.584 -0.5571  0.3609  0.3499
  133OSM    H1S14358   3.795   1.581   6.592  1.0666  1.5175 -2.1358
  133OSM    H1T14359   3.624   1.606   6.569 -0.9827  0.9592  0.8136
  133OSM     NF14360   3.683   1.619   6.821  0.6460 -0.6047  0.2425
  133OSM    HNF14361   3.593   1.620   6.864  1.1058 -1.7384  1.3127
  133OSM    C2S14362   3.707   1.720   6.725  0.5115  0.1788 -0.0004
  133OSM    H2S14363   3.803   1.765   6.760 -0.3742  0.8774  1.6853
  133OSM    C3S14364   3.596   1.823   6.726  0.3397  0.7937  0.3530
  133OSM    H3S14365   3.506   1.764   6.699  0.6955  0.7275 -0.7389
  133OSM     O314366   3.605   1.927   6.627 -0.3499 -0.1460 -0.1528
  133OSM    HO314367   3.658   1.877   6.564 -1.9122 -1.0853 -0.7840
  133OSM    C4S14368   3.580   1.884   6.864 -0.1608  0.0676 -0.4197
  133OSM    H4S14369   3.655   1.953   6.905 -0.4614 -0.1038  0.4292
  133OSM    C5S14370   3.473   1.863   6.935 -0.1003  0.6920  0.2573
  133OSM    H5S14371   3.409   1.786   6.891  1.7769 -0.8578  0.1012
  133OSM    C6S14372   3.439   1.925   7.074 -0.9255 -0.5510  0.4526
  133OSM    H6S14373   3.329   1.935   7.065 -1.0579 -2.7617 -0.9001
  133OSM    H6T14374   3.473   2.031   7.076  0.9807 -0.9974 -2.2896
  133OSM    C7S14375   3.505   1.863   7.198 -0.8634 -0.0453  0.3139
  133OSM    H7S14376   3.614   1.879   7.193 -0.6470 -0.9483  1.5041
  133OSM    H7T14377   3.503   1.752   7.187  2.6045 -0.0549 -1.2193
  133OSM    C8S14378   3.453   1.911   7.328 -0.0114 -0.2257 -0.1806
  133OSM    H8S14379   3.348   1.882   7.349  0.2929  0.0035  1.8520
  133OSM    H8T14380   3.452   2.022   7.338 -0.2440 -0.2182 -0.2726
  133OSM    C9S14381   3.544   1.848   7.432 -0.8002  0.3369 -0.9712
  133OSM    H9S14382   3.646   1.887   7.412 -0.0729 -0.8503  0.2731
  133OSM    H9T14383   3.557   1.739   7.418 -5.0514 -0.4440 -0.2753
  133OSM   C10S14384   3.523   1.876   7.577 -0.4379  0.2133 -0.3979
  133OSM   H10S14385   3.422   1.838   7.606  0.3045 -0.3481  1.5945
  133OSM   H10T14386   3.532   1.986   7.590 -0.3147  0.0164  1.3709
  133OSM   C11S14387   3.616   1.797   7.675 -0.4294  0.1664 -0.9770
  133OSM   H11S14388   3.724   1.820   7.660 -0.0780  0.4161  1.5421
  133OSM   H11T14389   3.606   1.688   7.657 -3.0906 -0.4324  2.9269
  133OSM   C12S14390   3.593   1.831   7.817 -0.4606  0.0213 -0.1496
  133OSM   H12S14391   3.496   1.791   7.855 -0.5455  1.3037  1.0753
  133OSM   H12T14392   3.587   1.939   7.846  0.7868 -0.3690  1.7452
  133OSM   C13S14393   3.705   1.765   7.899  0.0916  0.7689 -0.0211
  133OSM   H13S14394   3.799   1.774   7.839 -1.1446 -1.3499 -2.4773
  133OSM   H13T14395   3.677   1.657   7.902  1.0670  0.4618 -0.8634
  133OSM   C14S14396   3.724   1.825   8.040  0.2370  0.3372 -0.0778
  133OSM   H14S14397   3.623   1.819   8.085  0.3319  0.5229  0.1672
  133OSM   H14T14398   3.746   1.934   8.052  0.2967  0.1920  1.2922
  133OSM   C15S14399   3.817   1.741   8.127  0.0750  0.4775  1.0332
  133OSM   H15S14400   3.920   1.771   8.098  0.2844 -1.1844 -0.0820
  133OSM   H15T14401   3.812   1.636   8.093  2.1862  0.1047  1.7145
  133OSM   C16S14402   3.802   1.768   8.272 -0.5520 -0.4264 -0.5443
  133OSM   H16S14403   3.705   1.739   8.318 -0.9600  0.8476 -0.5449
  133OSM   H16T14404   3.819   1.876   8.294 -0.0583 -0.9565  2.0074
  133OSM   C17S14405   3.889   1.683   8.367  0.5444  0.1285  0.0949
  133OSM   H17S14406   3.999   1.687   8.352  0.5759  0.0805  0.3092
  133OSM   H17T14407   3.850   1.580   8.356  0.5476  0.3457 -2.8359
  133OSM   C18S14408   3.872   1.722   8.509  0.2217 -0.1715  0.2898
  133OSM   H18S14409   3.948   1.671   8.571  1.8888 -1.5191 -2.6504
  133OSM   H18T14410   3.774   1.682   8.543 -0.1861  0.5268 -0.0323
  133OSM   H18U14411   3.891   1.830   8.529  3.0054 -0.5857  0.2487
  133OSM    C1F14412   3.773   1.525   6.846  0.0880 -0.4009 -0.4572
  133OSM     OF14413   3.890   1.547   6.820 -0.3132 -0.1140 -0.1545
  133OSM    C2F14414   3.715   1.402   6.903 -0.3939  0.2290  0.6156
  133OSM    H2F14415   3.721   1.325   6.822 -0.1523  2.0686 -1.2015
  133OSM    H2G14416   3.606   1.412   6.922 -0.5252 -0.8330  0.4773
  133OSM    C3F14417   3.792   1.346   7.030  0.2137  0.3329 -0.0884
  133OSM    H3F14418   3.892   1.314   6.993  0.7465  1.5829  0.2360
  133OSM    H3G14419   3.736   1.253   7.055  0.5957 -0.2453 -1.3131
  133OSM    C4F14420   3.789   1.444   7.143 -0.4207 -0.3786 -0.2912
  133OSM    H4F14421   3.689   1.477   7.178 -0.6779  0.6817 -1.9419
  133OSM    H4G14422   3.838   1.539   7.112  0.0145  0.1657  1.8688
  133OSM    C5F14423   3.862   1.395   7.267 -0.0134  0.6165 -0.5333
  133OSM    H5F14424   3.955   1.342   7.238 -0.1842  0.2176 -0.3656
  133OSM    H5G14425   3.794   1.324   7.318 -0.9272  2.3630  0.7915
  133OSM    C6F14426   3.898   1.495   7.376 -0.1765  0.0118  0.3381
  133OSM    H6F14427   3.802   1.526   7.423 -0.4448  0.6451 -0.5966
  133OSM    H6G14428   3.940   1.586   7.329  3.2201 -1.7170 -0.2548
  133OSM    C7F14429   3.995   1.441   7.480  0.2700  0.2328 -0.1667
  133OSM    H7F14430   4.078   1.396   7.423  0.0169 -0.9007  0.3410
  133OSM    H7G14431   3.949   1.354   7.531  0.2185  0.0687 -0.4953
  133OSM    C8F14432   4.049   1.545   7.578 -0.0872 -0.3085  0.3347
  133OSM    H8F14433   4.084   1.640   7.531  0.2136 -1.1898 -1.3093
  133OSM    H8G14434   4.146   1.513   7.621  0.4489  0.3693 -0.3376
  133OSM    C9F14435   3.947   1.559   7.689 -0.0193 -0.2601 -0.7654
  133OSM    H9F14436   3.846   1.589   7.660 -0.3718  0.3746  1.0180
  133OSM   C10F14437   3.958   1.501   7.812 -0.1990  0.0009 -0.0848
  133OSM   H10F14438   3.874   1.520   7.880 -0.3568 -0.5977 -0.1034
  133OSM   C11F14439   4.083   1.432   7.865 -0.6808  0.3996 -0.8110
  133OSM   H11F14440   4.091   1.479   7.965 -0.8186 -1.2725  0.0205
  133OSM   H11G14441   4.178   1.455   7.811 -0.6185  0.4579 -0.6784
  133OSM   C12F14442   4.092   1.277   7.888 -0.1536 -0.3529 -0.7934
  133OSM   H12F14443   4.189   1.252   7.936 -1.0992 -1.1246  0.7653
  133OSM   H12G14444   4.090   1.238   7.784  0.9750 -0.1694 -0.8992
  133OSM   C13F14445   3.970   1.213   7.961 -0.0048  0.2331 -0.3849
  133OSM   H13F14446   3.879   1.260   7.917  1.6818  3.7404 -0.5254
  133OSM   H13G14447   3.973   1.264   8.060  2.1114 -1.2586  0.3922
  133OSM   C14F14448   3.964   1.070   7.972  0.1806  0.3700  0.1453
  133OSM   H14F14449   3.908   1.030   8.059  0.0221 -1.0906 -0.6000
  133OSM   H14G14450   4.069   1.035   7.984  0.3215  0.5040 -0.6396
  133OSM   C15F14451   3.888   1.011   7.854 -0.0735 -0.2587  0.0637
  133OSM   H15F14452   3.935   1.042   7.759  2.4781 -0.8127  1.0737
  133OSM   H15G14453   3.781   1.040   7.858 -0.3024 -0.7506 -1.7011
  133OSM   C16F14454   3.901   0.860   7.852  0.5383 -0.4733 -0.3042
  133OSM   H16F14455   3.818   0.820   7.790  0.6286  0.7597 -1.2472
  133OSM   H16G14456   3.886   0.837   7.960  1.4759  1.7391  0.3436
  133OSM   C17F14457   4.034   0.814   7.786  0.1012 -0.8521  0.3799
  133OSM   H17F14458   4.111   0.882   7.830 -0.4474  0.4939 -0.6552
  133OSM   H17G14459   4.014   0.830   7.678 -0.4972  1.4902  0.7783
  133OSM   C18F14460   4.054   0.661   7.817  0.5998 -0.3266 -0.2078
  133OSM   H18F14461   3.981   0.604   7.755  1.1376 -0.7009 -0.5067
  133OSM   H18G14462   4.030   0.637   7.923  1.3869  1.6342  0.4491
  133OSM   H18H14463   4.161   0.633   7.803  0.2705 -2.5216  1.2069
  134OSM      N14464   4.831   5.556   6.283  0.2466  0.0237 -0.1337
  134OSM    C1514465   4.779   5.573   6.138 -0.6803  0.7660 -0.3789
  134OSM   H15A14466   4.752   5.677   6.124 -0.6544  0.9817  1.0341
  134OSM   H15B14467   4.686   5.520   6.122  0.2452 -0.5181 -1.6701
  134OSM   H15C14468   4.849   5.539   6.064  0.7247  0.5099  1.0164
  134OSM    C1414469   4.717   5.583   6.387 -0.8716 -0.1007  0.2428
  134OSM   H14A14470   4.737   5.553   6.489 -0.2750  0.5791  0.3271
  134OSM   H14B14471   4.635   5.518   6.358 -0.8805 -0.8584  1.8899
  134OSM   H14C14472   4.687   5.686   6.394  0.3011  0.2462  0.3249
  134OSM    C1314473   4.888   5.420   6.301 -0.2964  0.7579 -0.4452
  134OSM   H13A14474   4.923   5.406   6.402  0.1432 -0.2156 -0.7254
  134OSM   H13B14475   4.966   5.414   6.226 -1.1714  2.7281 -1.6070
  134OSM   H13C14476   4.813   5.346   6.282  0.7714 -0.4587 -0.1049
  134OSM    C1214477   4.948   5.652   6.293  0.1943 -0.0508  0.0374
  134OSM   H12A14478   5.018   5.621   6.217  0.5876 -0.3863  0.5299
  134OSM   H12B14479   4.980   5.628   6.393 -2.0583 -0.4448  0.7232
  134OSM    C1114480   4.916   5.804   6.279  0.5233 -1.0006  0.2098
  134OSM   H11A14481   4.868   5.814   6.180  0.9784 -0.9189 -0.0051
  134OSM   H11B14482   5.004   5.871   6.273 -2.0110  2.5935  0.2306
  134OSM      P14483   4.877   5.899   6.514 -0.3195  0.4383 -0.2296
  134OSM    O1314484   4.975   6.010   6.492  0.3033 -0.0328  0.4918
  134OSM    O1414485   4.764   5.928   6.600 -0.0240  0.1346 -0.1783
  134OSM    O1114486   4.949   5.779   6.577 -0.4550  0.1354  0.6246
  134OSM    O1214487   4.828   5.861   6.375 -0.1473  0.0108  0.2388
  134OSM    C1S14488   5.039   5.791   6.686  0.7849  0.5062  0.0865
  134OSM    H1S14489   5.034   5.885   6.745 -2.1283  1.3433 -1.3389
  134OSM    H1T14490   5.142   5.786   6.646  0.3166 -0.3239 -1.0487
  134OSM     NF14491   5.082   5.700   6.909 -0.1448 -0.2006 -0.0018
  134OSM    HNF14492   5.171   5.657   6.925  0.2472  0.2938 -0.7701
  134OSM    C2S14493   5.021   5.669   6.782 -0.4078 -0.1123 -0.1818
  134OSM    H2S14494   4.913   5.642   6.791 -0.6555  0.5588 -0.9673
  134OSM    C3S14495   5.076   5.528   6.708  0.1541 -0.0200 -0.3432
  134OSM    H3S14496   5.181   5.547   6.676  0.3241 -0.8634 -0.2952
  134OSM     O314497   5.002   5.503   6.591  0.1478 -0.4967  0.1562
  134OSM    HO314498   4.941   5.576   6.579 -0.0715 -0.2392  2.4337
  134OSM    C4S14499   5.060   5.414   6.805 -0.0252  0.1001 -0.0962
  134OSM    H4S14500   4.958   5.374   6.815 -0.0500 -0.6594 -2.6205
  134OSM    C5S14501   5.160   5.353   6.872 -0.0966  0.9447 -0.0870
  134OSM    H5S14502   5.267   5.378   6.868 -0.2609  1.9962  1.2825
  134OSM    C6S14503   5.141   5.236   6.971  0.1823  0.7914  0.4375
  134OSM    H6S14504   5.210   5.155   6.939  2.3483  1.6635  2.5876
  134OSM    H6T14505   5.037   5.203   6.989  1.0875 -1.7509  1.3652
  134OSM    C7S14506   5.207   5.288   7.097  0.7766 -0.7491 -0.1949
  134OSM    H7S14507   5.174   5.393   7.114  2.1096 -0.3560  0.1384
  134OSM    H7T14508   5.317   5.284   7.082  0.7761 -2.7851 -0.0139
  134OSM    C8S14509   5.178   5.200   7.222 -0.4288 -0.1817 -0.4171
  134OSM    H8S14510   5.212   5.097   7.199  1.2904  0.2915 -0.0994
  134OSM    H8T14511   5.067   5.211   7.228 -0.1890  3.4188 -0.4957
  134OSM    C9S14512   5.240   5.265   7.347  0.6018  0.1330  0.2968
  134OSM    H9S14513   5.195   5.361   7.378 -0.5454  0.0495 -1.0216
  134OSM    H9T14514   5.343   5.301   7.326  1.1132 -1.5660 -0.2822
  134OSM   C10S14515   5.243   5.169   7.468  0.1842  0.4300  0.3093
  134OSM   H10S14516   5.292   5.216   7.555 -1.3111  2.5508  0.0939
  134OSM   H10T14517   5.310   5.086   7.439 -0.1212  0.6691 -1.1886
  134OSM   C11S14518   5.105   5.122   7.512 -0.8528  0.1673 -0.6407
  134OSM   H11S14519   5.065   5.072   7.421  0.4250 -2.4606  0.1616
  134OSM   H11T14520   5.040   5.210   7.533 -0.7076 -0.1986  1.5368
  134OSM   C12S14521   5.114   5.045   7.650  0.4132  0.1068  0.2645
  134OSM   H12S14522   5.180   4.957   7.638  0.1416 -0.0602 -0.0142
  134OSM   H12T14523   5.012   5.008   7.676  0.1035 -0.6415 -1.8310
  134OSM   C13S14524   5.160   5.130   7.768 -0.7750 -0.1176  0.1035
  134OSM   H13S14525   5.102   5.225   7.766 -0.7854 -0.0985  0.9962
  134OSM   H13T14526   5.265   5.155   7.743 -1.0027 -0.2098 -0.9872
  134OSM   C14S14527   5.163   5.059   7.907  0.4656 -0.2637  0.3447
  134OSM   H14S14528   5.224   5.120   7.976  1.4891 -1.1332  0.2222
  134OSM   H14T14529   5.218   4.964   7.913  0.6950 -0.0568  1.7260
  134OSM   C15S14530   5.019   5.045   7.951  0.5025  0.0362 -0.1906
  134OSM   H15S14531   4.972   4.986   7.869  1.5080  1.5684 -1.9680
  134OSM   H15T14532   4.968   5.143   7.962 -1.6280 -1.1076  0.5793
  134OSM   C16S14533   5.005   4.977   8.087  0.0308  0.6492  0.0922
  134OSM   H16S14534   5.070   4.887   8.097 -0.4567  0.3426  0.5454
  134OSM   H16T14535   4.902   4.939   8.103  0.4214 -0.2646  0.4900
  134OSM   C17S14536   5.012   5.072   8.202  0.4529  0.3021 -0.1510
  134OSM   H17S14537   4.927   5.141   8.182 -0.9490 -1.2962  0.0076
  134OSM   H17T14538   5.111   5.121   8.193  0.0625  0.8989 -1.4320
  134OSM   C18S14539   5.005   4.990   8.330  0.5519  0.5018 -0.5381
  134OSM   H18S14540   5.075   4.905   8.314 -1.6254 -1.2391 -1.2852
  134OSM   H18T14541   4.905   4.947   8.350  0.4344  0.5732 -0.9674
  134OSM   H18U14542   5.045   5.042   8.420 -0.0859 -0.4516  0.3233
  134OSM    C1F14543   5.050   5.804   6.992  0.5740  0.5569 -0.5455
  134OSM     OF14544   4.933   5.842   6.987  0.5290  0.5008 -0.3350
  134OSM    C2F14545   5.153   5.857   7.080 -0.6540 -0.0796 -0.6792
  134OSM    H2F14546   5.172   5.965   7.060 -0.8880  0.8201  3.1009
  134OSM    H2G14547   5.249   5.808   7.053 -0.1856  0.9890 -1.0091
  134OSM    C3F14548   5.123   5.816   7.227 -0.2172 -0.3415 -0.5018
  134OSM    H3F14549   5.025   5.856   7.262 -0.2297 -2.0164  1.6061
  134OSM    H3G14550   5.209   5.861   7.281 -1.3574  0.4269  0.7500
  134OSM    C4F14551   5.136   5.665   7.244 -0.2187 -0.0051 -0.3393
  134OSM    H4F14552   5.242   5.634   7.252 -0.6359 -1.2343  0.7126
  134OSM    H4G14553   5.089   5.618   7.155 -1.7680  2.0954 -0.7079
  134OSM    C5F14554   5.064   5.606   7.365  0.1463 -0.2402  0.6732
  134OSM    H5F14555   5.043   5.498   7.356  1.9579 -0.5264 -1.1061
  134OSM    H5G14556   4.963   5.650   7.355 -0.6844 -2.4250 -1.7709
  134OSM    C6F14557   5.123   5.638   7.503  0.5972 -0.3284  0.1305
  134OSM    H6F14558   5.165   5.740   7.492  0.5619 -0.5657 -2.8664
  134OSM    H6G14559   5.212   5.572   7.515  0.6952 -0.3881 -0.8856
  134OSM    C7F14560   5.028   5.621   7.623  0.5963  0.5378  0.2537
  134OSM    H7F14561   4.984   5.520   7.609  1.2987 -0.1330  2.4943
  134OSM    H7G14562   4.949   5.697   7.637  2.0650  2.2756 -0.4659
  134OSM    C8F14563   5.101   5.624   7.755 -0.5137  0.6796  0.5076
  134OSM    H8F14564   5.165   5.715   7.760  0.3023  0.1583 -0.1631
  134OSM    H8G14565   5.174   5.541   7.759  0.4149  1.4977  1.5115
  134OSM    C9F14566   5.005   5.626   7.873 -0.3822  0.4753  0.4827
  134OSM    H9F14567   4.919   5.693   7.859 -0.8622 -0.4291 -1.1872
  134OSM   C10F14568   5.011   5.545   7.987 -0.0105 -0.4575 -0.0881
  134OSM   H10F14569   4.944   5.566   8.072  0.9986  0.3457  0.5422
  134OSM   C11F14570   5.115   5.436   8.008  0.2801 -0.0408  0.1621
  134OSM   H11F14571   5.161   5.400   7.913 -1.4707 -0.2688 -0.6406
  134OSM   H11G14572   5.076   5.343   8.055  0.9303  0.6495  2.1606
  134OSM   C12F14573   5.230   5.477   8.102 -0.2223 -0.5313 -0.5044
  134OSM   H12F14574   5.260   5.577   8.066  2.9098 -0.1750  2.6309
  134OSM   H12G14575   5.316   5.406   8.096  2.1465  1.8830  2.1334
  134OSM   C13F14576   5.193   5.496   8.249 -0.6084  1.1712 -0.8973
  134OSM   H13F14577   5.118   5.424   8.289 -0.6701  2.3316  1.2088
  134OSM   H13G14578   5.134   5.590   8.250 -2.5125  0.0487  0.6639
  134OSM   C14F14579   5.317   5.488   8.335  0.4095 -0.0291  0.0220
  134OSM   H14F14580   5.373   5.583   8.328 -2.0480  1.5440  0.6667
  134OSM   H14G14581   5.381   5.407   8.293  2.3638  1.3861  0.1261
  134OSM   C15F14582   5.303   5.469   8.489  1.1505 -0.0480 -0.7174
  134OSM   H15F14583   5.401   5.459   8.540 -0.4646  0.1294  2.7150
  134OSM   H15G14584   5.246   5.373   8.498  1.3899 -0.4203 -2.7137
  134OSM   C16F14585   5.232   5.582   8.553 -0.3952 -0.6490 -0.7749
  134OSM   H16F14586   5.125   5.596   8.529  0.2836  3.0273 -2.3698
  134OSM   H16G14587   5.282   5.677   8.525  1.4050 -1.1469  0.5307
  134OSM   C17F14588   5.246   5.577   8.712  1.0162  0.4874  0.6500
  134OSM   H17F14589   5.206   5.669   8.759 -0.8165  0.1783 -0.1915
  134OSM   H17G14590   5.355   5.568   8.731  1.0348 -0.5078  0.1524
  134OSM   C18F14591   5.182   5.452   8.770 -0.2287  0.0022 -0.1019
  134OSM   H18F14592   5.233   5.360   8.737 -1.6734 -1.4569  1.4876
  134OSM   H18G14593   5.078   5.448   8.731  0.2981 -1.5521 -1.4692
  134OSM   H18H14594   5.187   5.451   8.881  0.8306 -0.7466 -0.1500
  135OSM      N14595   4.043   5.445   6.213  0.1811  0.0361 -0.2655
  135OSM    C1514596   3.901   5.465   6.247  0.3793  0.5187 -0.2223
  135OSM   H15A14597   3.883   5.504   6.346 -0.6991 -2.7969  0.9967
  135OSM   H15B14598   3.850   5.370   6.250  0.4504  0.4859  2.7047
  135OSM   H15C14599   3.859   5.532   6.173  0.6339  1.6766  0.6492
  135OSM    C1414600   4.067   5.355   6.092 -0.8486 -0.6190  0.1462
  135OSM   H14A14601   4.035   5.407   6.004 -0.1030  0.1199  0.3030
  135OSM   H14B14602   3.996   5.274   6.103 -1.1280 -0.4246 -0.2068
  135OSM   H14C14603   4.171   5.327   6.089 -0.4835  0.4380  1.5674
  135OSM    C1314604   4.103   5.579   6.201 -0.3375 -0.5947 -0.0784
  135OSM   H13A14605   4.066   5.634   6.116 -0.4170 -2.7611 -1.5118
  135OSM   H13B14606   4.211   5.577   6.209 -0.4670 -1.5520  2.6574
  135OSM   H13C14607   4.081   5.633   6.292  1.4899  0.4676 -0.2228
  135OSM    C1214608   4.102   5.371   6.329 -0.1256 -0.2114 -0.4832
  135OSM   H12A14609   4.201   5.334   6.307  0.6344  1.5463 -0.1662
  135OSM   H12B14610   4.040   5.283   6.341  0.5393 -0.7009 -0.5658
  135OSM    C1114611   4.106   5.445   6.463 -0.3163 -0.5886 -0.5366
  135OSM   H11A14612   4.088   5.375   6.548 -1.6650  0.4123  0.0437
  135OSM   H11B14613   4.018   5.513   6.471  1.1194  1.5337 -1.6593
  135OSM      P14614   4.373   5.469   6.465  0.2418  0.0212  0.2694
  135OSM    O1314615   4.386   5.330   6.509 -0.2016  0.1964 -0.0382
  135OSM    O1414616   4.426   5.487   6.330  0.4084 -0.1243 -0.1301
  135OSM    O1114617   4.471   5.561   6.554  0.3754  0.2987  0.2016
  135OSM    O1214618   4.228   5.531   6.472  0.2982  0.4477 -0.0352
  135OSM    C1S14619   4.433   5.624   6.673 -0.6419  0.0295  0.0468
  135OSM    H1S14620   4.326   5.652   6.678 -0.4530  1.1851 -1.6951
  135OSM    H1T14621   4.494   5.715   6.694 -2.0541  0.8183  0.8756
  135OSM     NF14622   4.414   5.589   6.925  0.5732 -1.4125 -0.3050
  135OSM    HNF14623   4.461   5.671   6.958 -1.0288 -0.1592 -0.9734
  135OSM    C2S14624   4.470   5.531   6.799 -0.1139 -0.4201  0.6796
  135OSM    H2S14625   4.415   5.438   6.773  3.4506 -2.3535 -0.6960
  135OSM    C3S14626   4.623   5.503   6.802 -0.1711  0.7442  0.3813
  135OSM    H3S14627   4.690   5.592   6.792  1.8535 -0.5937  1.4147
  135OSM     O314628   4.682   5.425   6.696 -0.6143 -0.4514 -0.2993
  135OSM    HO314629   4.617   5.437   6.627  0.2947 -0.5340 -1.2038
  135OSM    C4S14630   4.660   5.417   6.926 -0.9706 -0.6548  0.2501
  135OSM    H4S14631   4.627   5.312   6.924 -0.8601 -0.6950 -2.3666
  135OSM    C5S14632   4.741   5.458   7.031 -0.2882  0.4804  0.1661
  135OSM    H5S14633   4.782   5.560   7.024 -1.1249  0.7331 -1.8531
  135OSM    C6S14634   4.786   5.389   7.160 -0.6463 -0.0857  0.4608
  135OSM    H6S14635   4.786   5.459   7.247 -2.4665 -1.6345  1.7933
  135OSM    H6T14636   4.892   5.356   7.158 -0.3984  0.7295 -1.1085
  135OSM    C7S14637   4.705   5.274   7.208 -0.1901 -0.2187 -0.2435
  135OSM    H7S14638   4.721   5.185   7.143  2.4669  0.9531 -1.3582
  135OSM    H7T14639   4.597   5.296   7.205 -0.6418 -1.6281  2.2145
  135OSM    C8S14640   4.724   5.226   7.357 -0.5785 -0.4486  0.4006
  135OSM    H8S14641   4.834   5.231   7.371 -0.7184  0.1815  1.4790
  135OSM    H8T14642   4.681   5.124   7.367  1.3028 -1.3918 -0.6591
  135OSM    C9S14643   4.668   5.321   7.471  0.0238  0.4185  0.3489
  135OSM    H9S14644   4.564   5.344   7.439 -0.0242 -0.4807 -0.1769
  135OSM    H9T14645   4.727   5.414   7.464  0.2670  0.3017  0.8029
  135OSM   C10S14646   4.670   5.271   7.609  0.5245  0.9223 -0.2626
  135OSM   H10S14647   4.762   5.211   7.629 -0.7157 -0.9221  0.1843
  135OSM   H10T14648   4.586   5.199   7.619 -0.0047  1.4856 -0.5692
  135OSM   C11S14649   4.658   5.385   7.710 -0.1970 -0.2882  0.0778
  135OSM   H11S14650   4.572   5.444   7.673 -0.7175 -0.7847  0.4720
  135OSM   H11T14651   4.746   5.453   7.711  1.3027 -2.1107 -0.9705
  135OSM   C12S14652   4.630   5.345   7.856  0.3958 -0.3762 -0.0910
  135OSM   H12S14653   4.706   5.268   7.883 -0.3730 -0.7066  1.2033
  135OSM   H12T14654   4.529   5.299   7.850 -0.3047  1.2662 -2.2463
  135OSM   C13S14655   4.634   5.461   7.962  0.3192 -1.0730 -0.2662
  135OSM   H13S14656   4.546   5.528   7.962  0.5679 -0.7289  0.5250
  135OSM   H13T14657   4.725   5.520   7.935 -0.2839 -0.0470 -0.1101
  135OSM   C14S14658   4.641   5.408   8.108 -0.4121  0.1165  0.3290
  135OSM   H14S14659   4.723   5.335   8.120 -0.0871 -0.1542 -2.6295
  135OSM   H14T14660   4.545   5.354   8.116 -0.6111  0.5262  0.7500
  135OSM   C15S14661   4.664   5.515   8.212 -0.0171 -0.4867 -0.3944
  135OSM   H15S14662   4.596   5.596   8.178 -0.7993 -0.7770  0.4287
  135OSM   H15T14663   4.772   5.543   8.216  0.3401 -1.6664 -1.2276
  135OSM   C16S14664   4.640   5.465   8.354 -0.1627 -0.0596 -0.8817
  135OSM   H16S14665   4.689   5.365   8.352  0.1036  0.0413  0.1640
  135OSM   H16T14666   4.535   5.438   8.375 -0.4936 -0.1503 -2.5015
  135OSM   C17S14667   4.700   5.552   8.465  0.1664 -0.1465 -0.6707
  135OSM   H17S14668   4.647   5.649   8.455  2.0085  0.7972 -1.8020
  135OSM   H17T14669   4.806   5.572   8.437  0.2148 -0.4942 -0.7464
  135OSM   C18S14670   4.682   5.495   8.604  0.1798  0.3687 -0.8157
  135OSM   H18S14671   4.751   5.541   8.679  0.2529 -1.3242  0.2004
  135OSM   H18T14672   4.694   5.385   8.600 -1.7919  0.1450 -1.1940
  135OSM   H18U14673   4.577   5.501   8.637  0.2889 -0.8471 -0.1909
  135OSM    C1F14674   4.285   5.573   6.948  1.2867  0.3745  0.2220
  135OSM     OF14675   4.213   5.507   6.874 -0.2240  0.6105 -0.0885
  135OSM    C2F14676   4.219   5.655   7.050 -0.0412  0.4960  0.5002
  135OSM    H2F14677   4.127   5.697   7.004 -0.4864  1.1426  1.9281
  135OSM    H2G14678   4.294   5.727   7.087 -0.1451  0.7990  0.1238
  135OSM    C3F14679   4.174   5.571   7.167 -0.1182 -0.3805  0.2453
  135OSM    H3F14680   4.122   5.482   7.127  0.8756 -1.9191  2.1935
  135OSM    H3G14681   4.111   5.636   7.230  0.1676  1.3906 -1.2024
  135OSM    C4F14682   4.295   5.543   7.261  0.8770 -0.2943 -0.9147
  135OSM    H4F14683   4.347   5.638   7.284 -1.5197  1.3605 -1.9082
  135OSM    H4G14684   4.365   5.468   7.219  1.2674 -0.4449 -0.0270
  135OSM    C5F14685   4.251   5.489   7.400  0.7575  0.7048 -0.0562
  135OSM    H5F14686   4.349   5.460   7.444  0.3003  0.2380  0.6774
  135OSM    H5G14687   4.201   5.392   7.379  3.7084 -0.8586 -0.4824
  135OSM    C6F14688   4.166   5.575   7.484  0.5358  0.5701 -0.4018
  135OSM    H6F14689   4.068   5.603   7.439 -0.8162 -1.6711  0.9349
  135OSM    H6G14690   4.217   5.671   7.505 -1.0388  1.2482  0.5430
  135OSM    C7F14691   4.142   5.506   7.621  0.5347  0.6330  0.1256
  135OSM    H7F14692   4.103   5.404   7.596 -1.0923  1.2229  0.1280
  135OSM    H7G14693   4.062   5.567   7.669 -0.0961 -0.6517  0.7731
  135OSM    C8F14694   4.261   5.493   7.717  0.0855 -0.2065 -0.3143
  135OSM    H8F14695   4.338   5.430   7.668  1.1347  0.5028  0.3944
  135OSM    H8G14696   4.217   5.436   7.801  0.7778  0.4044  0.4886
  135OSM    C9F14697   4.322   5.626   7.762 -0.3936 -0.9586  0.1798
  135OSM    H9F14698   4.408   5.671   7.712 -2.4248  1.9080 -0.9801
  135OSM   C10F14699   4.279   5.698   7.868  0.2017  0.5760 -0.3848
  135OSM   H10F14700   4.343   5.781   7.900  1.0290 -0.3761  0.4842
  135OSM   C11F14701   4.157   5.660   7.951 -0.2416 -0.6943  0.3311
  135OSM   H11F14702   4.095   5.587   7.895 -0.9253  0.0385  0.1156
  135OSM   H11G14703   4.093   5.747   7.979 -0.5037 -0.8647  0.2593
  135OSM   C12F14704   4.207   5.597   8.085  0.5591  0.0567 -0.1190
  135OSM   H12F14705   4.275   5.665   8.140  0.7544  0.0395 -0.3385
  135OSM   H12G14706   4.255   5.498   8.067  1.4348  0.7656 -1.9420
  135OSM   C13F14707   4.083   5.566   8.177  0.0307 -0.3095 -0.2115
  135OSM   H13F14708   4.025   5.494   8.116 -0.4076  0.4902 -0.7498
  135OSM   H13G14709   4.013   5.651   8.189 -0.7675 -0.8754 -0.7535
  135OSM   C14F14710   4.131   5.507   8.307  0.4527  0.1765 -0.5972
  135OSM   H14F14711   4.197   5.581   8.357  0.9268 -0.4787 -0.2317
  135OSM   H14G14712   4.195   5.419   8.285 -0.7972 -0.4693 -1.8503
  135OSM   C15F14713   4.017   5.473   8.402  0.6393 -0.1987 -0.0426
  135OSM   H15F14714   4.075   5.436   8.489  0.9379  0.7209  0.1555
  135OSM   H15G14715   3.967   5.386   8.354  2.3141  0.0503 -2.4506
  135OSM   C16F14716   3.913   5.571   8.447 -0.6560 -0.7010  0.4085
  135OSM   H16F14717   3.856   5.605   8.358  0.1993 -0.0172  0.1113
  135OSM   H16G14718   3.975   5.660   8.469  0.4073 -0.7287 -2.1638
  135OSM   C17F14719   3.820   5.521   8.548  0.4280 -0.6699 -0.2250
  135OSM   H17F14720   3.864   5.444   8.615 -0.3474 -0.2088  0.8570
  135OSM   H17G14721   3.731   5.472   8.503 -2.0740 -0.0836  3.5996
  135OSM   C18F14722   3.779   5.625   8.652  0.0791 -0.2814 -0.3843
  135OSM   H18F14723   3.737   5.716   8.604  0.4092  0.1084  0.0481
  135OSM   H18G14724   3.869   5.667   8.703 -0.6220 -0.9947  1.5298
  135OSM   H18H14725   3.721   5.600   8.743  1.9259  2.1011  1.6119
  136OSM      N14726   1.080   6.658   6.222  0.2210 -0.1903 -0.3683
  136OSM    C1514727   0.933   6.651   6.218 -0.4809  0.6915  0.3583
  136OSM   H15A14728   0.896   6.710   6.135  0.3760  0.9797  0.1645
  136OSM   H15B14729   0.881   6.699   6.299 -0.4551 -0.9313  1.3795
  136OSM   H15C14730   0.907   6.547   6.209  0.6652  0.3801  0.5142
  136OSM    C1414731   1.133   6.590   6.099  0.0410  0.2902 -0.4702
  136OSM   H14A14732   1.239   6.567   6.099 -0.0218 -0.1506 -2.3991
  136OSM   H14B14733   1.103   6.634   6.005 -1.4963  0.3332  0.0236
  136OSM   H14C14734   1.101   6.487   6.098 -0.0701  0.3244 -0.3297
  136OSM    C1314735   1.128   6.805   6.211  0.0097  0.0843 -0.1711
  136OSM   H13A14736   1.077   6.866   6.137 -0.5814 -1.9890 -1.5759
  136OSM   H13B14737   1.230   6.801   6.175 -0.5300 -0.4487 -1.7408
  136OSM   H13C14738   1.122   6.858   6.305 -1.1401  1.3609 -0.9268
  136OSM    C1214739   1.138   6.603   6.352  0.3483  0.1780  0.7406
  136OSM   H12A14740   1.109   6.678   6.424  0.0182  0.7610  0.0275
  136OSM   H12B14741   1.246   6.603   6.342  0.6154  0.6378  3.0418
  136OSM    C1114742   1.091   6.462   6.390  0.5936  0.2695 -0.1951
  136OSM   H11A14743   0.983   6.453   6.367  0.6656 -0.9532 -0.0934
  136OSM   H11B14744   1.112   6.444   6.498 -0.0346 -1.4968 -0.3419
  136OSM      P14745   1.321   6.336   6.350 -0.0943 -0.2190  0.1053
  136OSM    O1314746   1.375   6.251   6.240  0.2043  0.7943  0.1381
  136OSM    O1414747   1.394   6.458   6.383  0.0864 -0.2308  0.0833
  136OSM    O1114748   1.300   6.249   6.481  0.1164  0.3198  0.3741
  136OSM    O1214749   1.170   6.363   6.316 -0.1129  0.2530  0.6814
  136OSM    C1S14750   1.215   6.129   6.466 -0.2013 -0.2907 -0.5166
  136OSM    H1S14751   1.284   6.059   6.415  1.3636 -0.0922  1.2327
  136OSM    H1T14752   1.129   6.133   6.395 -0.0730 -3.9221 -1.0258
  136OSM     NF14753   1.100   5.934   6.576 -0.4342 -0.1192 -0.3366
  136OSM    HNF14754   1.005   5.931   6.604 -0.4987 -1.5938 -0.6143
  136OSM    C2S14755   1.169   6.066   6.599  0.5103  1.1751  0.4093
  136OSM    H2S14756   1.253   6.046   6.669 -0.0002 -2.5160  0.1510
  136OSM    C3S14757   1.084   6.172   6.678  0.0492 -0.0273 -0.2493
  136OSM    H3S14758   0.993   6.203   6.622 -2.3892  0.8116  3.7876
  136OSM     O314759   1.154   6.286   6.713 -0.2016 -0.6657  0.2704
  136OSM    HO314760   1.224   6.293   6.648 -0.4394  2.5060  0.2201
  136OSM    C4S14761   1.027   6.117   6.813 -0.0288  0.0328 -0.2136
  136OSM    H4S14762   0.921   6.088   6.800 -0.2969  1.9852 -3.7957
  136OSM    C5S14763   1.087   6.107   6.938 -0.6675  0.8580  0.0792
  136OSM    H5S14764   1.179   6.160   6.966  0.3022 -0.3532 -0.7518
  136OSM    C6S14765   1.012   6.049   7.058  0.6518 -0.3847 -0.2484
  136OSM    H6S14766   1.031   6.120   7.141  2.4012  1.9984 -2.5280
  136OSM    H6T14767   1.056   5.950   7.083 -0.0107 -0.6040  0.0845
  136OSM    C7S14768   0.861   6.032   7.064 -0.1544  0.8804  0.2431
  136OSM    H7S14769   0.820   5.951   7.000  2.5347  0.2555 -0.8210
  136OSM    H7T14770   0.822   6.131   7.033 -2.9578 -0.1763  0.0928
  136OSM    C8S14771   0.810   6.003   7.207  0.0178 -0.0363  0.0398
  136OSM    H8S14772   0.854   6.084   7.268  3.5243 -1.3305 -0.5214
  136OSM    H8T14773   0.862   5.914   7.247 -2.0360 -1.1663  0.3571
  136OSM    C9S14774   0.657   5.973   7.222  0.1011  0.5573  1.0232
  136OSM    H9S14775   0.643   5.878   7.165 -0.9093  0.9297  0.6358
  136OSM    H9T14776   0.584   6.048   7.185  0.1816 -0.1456 -0.6899
  136OSM   C10S14777   0.620   5.946   7.364 -0.1675  0.2837  0.4413
  136OSM   H10S14778   0.694   5.881   7.415 -1.2147 -0.9735  0.3998
  136OSM   H10T14779   0.530   5.881   7.365  1.0472 -1.5282 -0.7591
  136OSM   C11S14780   0.590   6.069   7.451 -0.8626 -0.5415 -0.0510
  136OSM   H11S14781   0.528   6.136   7.389 -2.2249 -2.0770 -0.4090
  136OSM   H11T14782   0.684   6.123   7.478 -0.7760 -0.1932 -1.0201
  136OSM   C12S14783   0.510   6.022   7.571 -0.0531 -0.1322  0.3996
  136OSM   H12S14784   0.428   5.955   7.539  0.3879 -0.0799 -0.8705
  136OSM   H12T14785   0.461   6.108   7.622  0.3830  0.9903 -1.0138
  136OSM   C13S14786   0.595   5.966   7.681 -0.2598  0.3128  0.2249
  136OSM   H13S14787   0.661   6.045   7.724 -0.1598 -0.9154  2.4527
  136OSM   H13T14788   0.673   5.893   7.651  1.4007  2.0916 -0.0125
  136OSM   C14S14789   0.513   5.923   7.799  0.6839 -0.8466  0.1909
  136OSM   H14S14790   0.462   5.825   7.788 -1.0233  0.1154 -0.8949
  136OSM   H14T14791   0.426   5.991   7.818  0.6238 -0.8348 -0.1222
  136OSM   C15S14792   0.597   5.900   7.930  0.6764 -0.2414  0.6649
  136OSM   H15S14793   0.676   5.978   7.935  1.2719 -0.6365 -1.3127
  136OSM   H15T14794   0.668   5.817   7.909 -0.2838 -0.7038 -0.9382
  136OSM   C16S14795   0.510   5.888   8.059 -1.2140 -0.3226 -0.6043
  136OSM   H16S14796   0.494   5.779   8.072 -1.0444 -0.1673  1.1250
  136OSM   H16T14797   0.407   5.928   8.046 -2.1883 -2.6112 -0.5236
  136OSM   C17S14798   0.571   5.948   8.183 -0.4094  0.3693 -0.0562
  136OSM   H17S14799   0.569   6.059   8.175 -0.5742  0.2482 -5.2636
  136OSM   H17T14800   0.675   5.911   8.199 -1.2784 -1.1879  2.7103
  136OSM   C18S14801   0.503   5.909   8.312 -0.2713 -0.4394  0.1527
  136OSM   H18S14802   0.496   5.798   8.315  0.1371 -0.4465  1.3079
  136OSM   H18T14803   0.397   5.942   8.302 -0.6478 -1.5491  0.2776
  136OSM   H18U14804   0.549   5.949   8.405 -0.4663  1.8709 -0.6755
  136OSM    C1F14805   1.154   5.820   6.526 -0.3570 -0.3582 -0.0518
  136OSM     OF14806   1.267   5.824   6.484 -0.2957  0.2293  0.1979
  136OSM    C2F14807   1.068   5.696   6.508 -0.4060 -0.7841 -0.5033
  136OSM    H2F14808   1.072   5.658   6.403 -0.7829 -0.9458 -0.4598
  136OSM    H2G14809   0.964   5.725   6.533 -1.2307 -0.4738 -3.7920
  136OSM    C3F14810   1.125   5.573   6.580 -1.2215  0.1191 -0.7012
  136OSM    H3F14811   1.224   5.549   6.535 -0.9863  0.6201 -0.4593
  136OSM    H3G14812   1.053   5.490   6.564  1.1666 -2.4877  0.9919
  136OSM    C4F14813   1.139   5.597   6.731 -0.1021  0.5954 -0.2326
  136OSM    H4F14814   1.227   5.661   6.755 -0.0113  0.0771  0.9139
  136OSM    H4G14815   1.159   5.502   6.786 -5.0836 -0.7656 -0.2558
  136OSM    C5F14816   1.017   5.645   6.809  0.1138 -0.5121 -0.5430
  136OSM    H5F14817   0.926   5.603   6.761 -0.6830  0.1965  0.3227
  136OSM    H5G14818   1.007   5.755   6.805  2.7239 -0.1842  0.1378
  136OSM    C6F14819   1.019   5.588   6.953  0.1414 -0.3116 -0.0538
  136OSM    H6F14820   1.123   5.598   6.989  0.3997 -2.2540 -0.1894
  136OSM    H6G14821   0.996   5.479   6.951  0.6431 -0.4097 -0.4780
  136OSM    C7F14822   0.913   5.655   7.044 -0.1988  0.6829  0.1360
  136OSM    H7F14823   0.812   5.637   7.000  1.2849  1.4281 -3.9466
  136OSM    H7G14824   0.926   5.765   7.041 -0.9114  0.7870  0.5856
  136OSM    C8F14825   0.908   5.614   7.186  0.5514 -0.0031  0.1332
  136OSM    H8F14826   0.851   5.689   7.245 -0.7621  1.3341 -2.6409
  136OSM    H8G14827   1.013   5.602   7.222  0.1296 -1.3583  1.0118
  136OSM    C9F14828   0.843   5.475   7.197 -1.0168 -0.3698  0.0037
  136OSM    H9F14829   0.911   5.389   7.182  0.9645  0.7353  2.0287
  136OSM   C10F14830   0.714   5.448   7.223  0.7455 -0.5545  0.1403
  136OSM   H10F14831   0.675   5.345   7.221 -4.5111  1.1023 -3.5377
  136OSM   C11F14832   0.614   5.556   7.252  0.2571  0.2241 -0.1408
  136OSM   H11F14833   0.565   5.584   7.156  1.5804  0.8478 -0.6560
  136OSM   H11G14834   0.656   5.652   7.288 -0.0160  1.0623 -1.9616
  136OSM   C12F14835   0.518   5.534   7.368  0.1580  0.1273 -0.1563
  136OSM   H12F14836   0.468   5.436   7.354 -0.0242  0.2658 -0.4637
  136OSM   H12G14837   0.441   5.611   7.386  0.6350  0.2451  1.6147
  136OSM   C13F14838   0.598   5.526   7.498 -0.0553 -0.0384  0.0523
  136OSM   H13F14839   0.662   5.617   7.511 -0.8358  0.7863 -1.6098
  136OSM   H13G14840   0.669   5.442   7.511 -0.3171 -0.3215 -0.3507
  136OSM   C14F14841   0.497   5.519   7.620 -0.0025 -0.1246 -0.4437
  136OSM   H14F14842   0.445   5.421   7.615 -1.1096  0.5144 -3.1723
  136OSM   H14G14843   0.424   5.598   7.594 -0.2364  0.0189  0.6118
  136OSM   C15F14844   0.560   5.553   7.753 -0.0421  0.2671 -1.2631
  136OSM   H15F14845   0.605   5.655   7.755  2.2520 -0.6906  0.9826
  136OSM   H15G14846   0.645   5.483   7.766  0.3434  1.1778  1.9535
  136OSM   C16F14847   0.477   5.523   7.879  0.0030 -0.1269 -0.4185
  136OSM   H16F14848   0.383   5.583   7.878  0.2731  0.3196  0.1221
  136OSM   H16G14849   0.530   5.536   7.976 -0.1520  1.1292 -0.4916
  136OSM   C17F14850   0.418   5.378   7.890  0.3990 -0.6850  0.3829
  136OSM   H17F14851   0.323   5.361   7.834 -0.1041  2.5425  0.0151
  136OSM   H17G14852   0.382   5.374   7.995  2.3929  3.2696  1.4455
  136OSM   C18F14853   0.510   5.260   7.850  1.0834  0.2809 -0.1841
  136OSM   H18F14854   0.537   5.275   7.743  0.2591  2.6566 -0.1158
  136OSM   H18G14855   0.464   5.161   7.869 -2.3168  1.5495 -1.0324
  136OSM   H18H14856   0.605   5.266   7.908  2.1431 -3.3913 -1.2813
  137OSM      N14857   5.729   4.895   6.566  0.3925  0.3342  0.2487
  137OSM    C1514858   5.722   4.925   6.713  0.4854 -0.1017  0.0480
  137OSM   H15A14859   5.766   5.023   6.728  0.0157 -0.0607  1.2829
  137OSM   H15B14860   5.772   4.853   6.776  0.1910 -2.0305 -1.7970
  137OSM   H15C14861   5.618   4.944   6.733  0.6756  0.8843  0.1414
  137OSM    C1414862   5.675   4.764   6.527 -0.7698 -0.4429 -0.6081
  137OSM   H14A14863   5.659   4.751   6.421  0.6851 -1.3922 -0.7283
  137OSM   H14B14864   5.588   4.736   6.585  1.0006 -1.7763  1.5547
  137OSM   H14C14865   5.745   4.684   6.543  0.6425  1.0851  1.3611
  137OSM    C1314866   5.644   4.995   6.492 -0.0581  0.0892  0.5680
  137OSM   H13A14867   5.643   4.981   6.385 -0.1223  2.3617  0.2269
  137OSM   H13B14868   5.680   5.095   6.510 -1.4701  0.5439  0.9928
  137OSM   H13C14869   5.545   4.996   6.535  0.5135  1.3103  1.9390
  137OSM    C1214870   5.881   4.913   6.522 -0.2351  0.1742 -0.4925
  137OSM   H12A14871   5.891   4.898   6.415 -0.8502  0.2296 -0.5656
  137OSM   H12B14872   5.938   4.832   6.564  1.9672  0.5333 -2.5741
  137OSM    C1114873   5.946   5.051   6.560  0.1448 -0.1825  0.0993
  137OSM   H11A14874   6.052   5.055   6.526 -0.7488 -1.2397 -3.2150
  137OSM   H11B14875   5.931   5.066   6.669  0.6366 -0.0491  0.1530
  137OSM      P14876   5.892   5.198   6.350 -0.3991  0.0590 -0.0640
  137OSM    O1314877   5.923   5.078   6.275  0.3767 -0.1225 -0.2700
  137OSM    O1414878   5.768   5.273   6.309 -0.2455 -0.3719 -0.1014
  137OSM    O1114879   6.020   5.291   6.358 -0.1319  0.3385  0.3211
  137OSM    O1214880   5.869   5.152   6.495 -0.7045 -0.2149  0.0242
  137OSM    C1S14881   6.019   5.417   6.431  0.1911  1.0094  0.4459
  137OSM    H1S14882   5.914   5.450   6.445 -0.7563 -2.4067  2.8974
  137OSM    H1T14883   6.073   5.498   6.379  3.7204 -0.2365  1.8608
  137OSM     NF14884   6.066   5.524   6.652  0.0931  0.0060 -0.1394
  137OSM    HNF14885   6.149   5.573   6.678  0.3077 -1.3825  2.0668
  137OSM    C2S14886   6.085   5.407   6.569  0.0563 -0.2350  0.6807
  137OSM    H2S14887   6.039   5.315   6.612  0.9896 -1.3798 -0.6907
  137OSM    C3S14888   6.239   5.373   6.554 -0.3605 -0.5115  0.1740
  137OSM    H3S14889   6.295   5.455   6.503 -0.2984  0.0883  1.1708
  137OSM     O314890   6.260   5.246   6.499 -0.2320 -0.2137  0.3121
  137OSM    HO314891   6.183   5.229   6.443 -0.1574 -0.7912  0.3870
  137OSM    C4S14892   6.294   5.369   6.694 -0.0050  0.3584  0.6770
  137OSM    H4S14893   6.362   5.453   6.717  0.7515 -0.6431  2.3152
  137OSM    C5S14894   6.273   5.275   6.789  0.5932 -0.4682 -0.9308
  137OSM    H5S14895   6.202   5.194   6.767 -0.1014 -0.4544  1.0029
  137OSM    C6S14896   6.334   5.278   6.923  0.0203  0.3990 -0.1932
  137OSM    H6S14897   6.379   5.378   6.940  0.8443  0.1172 -0.6920
  137OSM    H6T14898   6.416   5.205   6.934 -1.5664 -1.2767  1.3721
  137OSM    C7S14899   6.220   5.266   7.025 -0.1424  0.4593 -0.2592
  137OSM    H7S14900   6.172   5.166   7.026 -0.5605  0.5252 -3.4447
  137OSM    H7T14901   6.143   5.343   7.002 -0.3303  0.9203  1.7469
  137OSM    C8S14902   6.281   5.288   7.164  0.9649  0.2574  0.3864
  137OSM    H8S14903   6.269   5.396   7.186  1.5118  0.2065  0.9559
  137OSM    H8T14904   6.391   5.270   7.161  1.2948  1.2561  3.2538
  137OSM    C9S14905   6.218   5.201   7.270  0.3378 -0.3067  0.1541
  137OSM    H9S14906   6.228   5.095   7.239 -1.8673 -0.8171  0.9674
  137OSM    H9T14907   6.108   5.216   7.269  0.4537  0.6235  0.6187
  137OSM   C10S14908   6.281   5.217   7.416  1.4753 -0.1782 -0.0492
  137OSM   H10S14909   6.261   5.325   7.434  1.7683 -0.2439  0.7317
  137OSM   H10T14910   6.389   5.196   7.402  1.2690 -0.4349 -1.3919
  137OSM   C11S14911   6.209   5.118   7.511 -0.6848  0.6755  0.2978
  137OSM   H11S14912   6.218   5.019   7.461 -1.1104  1.0084 -0.4415
  137OSM   H11T14913   6.106   5.152   7.534  0.0007  3.1104  0.0166
  137OSM   C12S14914   6.268   5.118   7.655 -0.4655  0.3571  0.2942
  137OSM   H12S14915   6.298   5.222   7.678  2.1191 -0.0334 -0.8948
  137OSM   H12T14916   6.368   5.069   7.658 -0.4361  0.4209  3.6459
  137OSM   C13S14917   6.189   5.046   7.757 -0.4376 -0.1512 -0.1679
  137OSM   H13S14918   6.166   4.946   7.714  0.1677  0.6828 -2.5975
  137OSM   H13T14919   6.091   5.093   7.780 -0.9247 -1.0536 -0.3455
  137OSM   C14S14920   6.253   5.025   7.891 -0.1857  0.3993  0.4690
  137OSM   H14S14921   6.308   5.113   7.930  1.2218 -0.4321  0.4272
  137OSM   H14T14922   6.332   4.950   7.869 -1.5970 -1.1317  0.3936
  137OSM   C15S14923   6.163   4.948   7.988 -0.0034  0.0258 -0.0813
  137OSM   H15S14924   6.133   4.850   7.945  0.3743  0.1760 -0.6967
  137OSM   H15T14925   6.068   5.006   7.993 -0.8895 -1.1913 -1.6125
  137OSM   C16S14926   6.230   4.929   8.118  0.8019  0.6765 -0.0180
  137OSM   H16S14927   6.333   4.892   8.105  0.1777 -0.6301 -1.6741
  137OSM   H16T14928   6.176   4.847   8.170 -0.3643  0.0302 -2.0946
  137OSM   C17S14929   6.225   5.058   8.197  0.1116  0.2759  0.3936
  137OSM   H17S14930   6.122   5.099   8.187 -0.2270 -0.1705  1.7748
  137OSM   H17T14931   6.282   5.139   8.148 -1.2593  0.1899 -1.4213
  137OSM   C18S14932   6.278   5.039   8.337  0.3682 -0.5275 -0.6031
  137OSM   H18S14933   6.378   4.991   8.340  0.7133  0.2298  0.6644
  137OSM   H18T14934   6.208   4.976   8.395 -1.0216  0.6210 -0.9696
  137OSM   H18U14935   6.296   5.139   8.382  3.2182 -1.7863  1.3203
  137OSM    C1F14936   5.946   5.549   6.713  0.1135 -0.2338 -0.6626
  137OSM     OF14937   5.857   5.465   6.725  1.0087 -0.7988 -0.2771
  137OSM    C2F14938   5.939   5.691   6.776  0.2033 -0.3632 -0.5030
  137OSM    H2F14939   5.901   5.764   6.702  0.5688  0.8358  0.4715
  137OSM    H2G14940   6.042   5.726   6.802  0.9756 -2.7085 -0.0861
  137OSM    C3F14941   5.852   5.696   6.908 -0.6250  0.5675 -0.9464
  137OSM    H3F14942   5.921   5.670   6.991  0.8777  1.9987 -1.6825
  137OSM    H3G14943   5.764   5.630   6.895 -2.0569  2.1024  0.4829
  137OSM    C4F14944   5.793   5.836   6.930 -0.2557 -1.0556  0.0716
  137OSM    H4F14945   5.730   5.872   6.846 -0.3216 -0.1588  0.4925
  137OSM    H4G14946   5.866   5.918   6.946  0.1094 -1.4492  0.4465
  137OSM    C5F14947   5.696   5.841   7.054 -0.4858 -0.0056  0.3219
  137OSM    H5F14948   5.599   5.791   7.033  0.7088 -1.9651 -0.7957
  137OSM    H5G14949   5.680   5.951   7.056  0.6085  0.2750 -2.5394
  137OSM    C6F14950   5.745   5.792   7.189 -0.5690  0.1031  0.0373
  137OSM    H6F14951   5.849   5.830   7.198 -0.0012 -1.6939  2.0338
  137OSM    H6G14952   5.756   5.681   7.185  1.6250  0.3075 -1.7484
  137OSM    C7F14953   5.660   5.843   7.307 -0.1201 -0.7410  0.2782
  137OSM    H7F14954   5.649   5.952   7.286  1.1689 -1.0008 -2.1740
  137OSM    H7G14955   5.713   5.840   7.404 -3.5454 -1.4116  2.3168
  137OSM    C8F14956   5.525   5.779   7.323  0.3554  0.2405 -0.2393
  137OSM    H8F14957   5.464   5.807   7.234 -1.2257 -0.1332  0.6700
  137OSM    H8G14958   5.479   5.830   7.410  0.4964  0.1526 -0.1133
  137OSM    C9F14959   5.534   5.628   7.349 -0.0440  0.6698  0.6820
  137OSM    H9F14960   5.535   5.566   7.258  1.2286  1.5274  0.0691
  137OSM   C10F14961   5.529   5.571   7.471 -0.2572  0.5321 -0.1392
  137OSM   H10F14962   5.549   5.464   7.482  0.7309  0.9142  2.5530
  137OSM   C11F14963   5.533   5.638   7.606 -0.2844  0.0754 -0.3938
  137OSM   H11F14964   5.462   5.723   7.598 -1.1830 -0.5723  0.4276
  137OSM   H11G14965   5.631   5.683   7.630 -0.0509 -0.2554 -0.7115
  137OSM   C12F14966   5.474   5.549   7.705  0.2081 -0.0944 -0.1843
  137OSM   H12F14967   5.534   5.455   7.707  1.5660  0.7012 -1.2835
  137OSM   H12G14968   5.370   5.533   7.670  0.2436  1.5856 -1.1763
  137OSM   C13F14969   5.470   5.613   7.844  0.6650  0.3933 -0.1040
  137OSM   H13F14970   5.393   5.566   7.909 -0.2238  0.6150 -0.9596
  137OSM   H13G14971   5.429   5.716   7.841  0.3045  0.2335 -1.1887
  137OSM   C14F14972   5.601   5.598   7.918  0.4441 -0.0595 -0.3703
  137OSM   H14F14973   5.676   5.665   7.871  1.0447 -1.0228 -0.8155
  137OSM   H14G14974   5.646   5.496   7.913 -0.9777 -1.0718  3.8392
  137OSM   C15F14975   5.598   5.650   8.062 -0.1477  0.2047 -0.2643
  137OSM   H15F14976   5.697   5.649   8.113  0.3753 -1.7921 -1.2157
  137OSM   H15G14977   5.543   5.574   8.120  2.9042 -0.4796  1.9652
  137OSM   C16F14978   5.541   5.794   8.073  0.0310  0.7489  0.3680
  137OSM   H16F14979   5.431   5.796   8.058 -0.1630  0.2023  1.5831
  137OSM   H16G14980   5.582   5.858   7.992  0.4961  0.7914  0.6329
  137OSM   C17F14981   5.587   5.849   8.208  0.5560  0.3108 -0.9292
  137OSM   H17F14982   5.698   5.849   8.204  0.6094  2.4664 -0.5701
  137OSM   H17G14983   5.564   5.776   8.289  0.3186 -0.7190 -1.9092
  137OSM   C18F14984   5.550   5.995   8.246 -0.3179 -0.9420 -0.2091
  137OSM   H18F14985   5.588   6.055   8.161 -0.1546  1.5346  1.5033
  137OSM   H18G14986   5.614   6.018   8.335  3.7551  0.2442 -3.1432
  137OSM   H18H14987   5.443   6.023   8.252 -0.1968 -0.0219 -1.7641
  138OSM      N14988   6.043   0.190   6.096  0.0646 -0.0060  0.1110
  138OSM    C1514989   6.017   0.042   6.117 -0.3908  0.5311 -0.1277
  138OSM   H15A14990   6.076   0.009   6.202 -0.2710  0.9176 -0.0575
  138OSM   H15B14991   6.035  -0.015   6.027 -3.9010 -2.0623  0.5720
  138OSM   H15C14992   5.914   0.018   6.140 -0.8532  2.0649 -0.4974
  138OSM    C1414993   6.190   0.211   6.045  0.9525  0.2975 -0.2305
  138OSM   H14A14994   6.258   0.192   6.127  0.8654  0.0320 -0.2171
  138OSM   H14B14995   6.192   0.316   6.019 -2.8371  1.4815  3.2691
  138OSM   H14C14996   6.204   0.147   5.959 -3.9156 -0.4168 -0.7956
  138OSM    C1314997   5.954   0.229   5.975  0.3093  0.2498 -0.3606
  138OSM   H13A14998   5.950   0.337   5.965 -0.0975  0.3684  0.8505
  138OSM   H13B14999   5.853   0.193   5.986  0.2016  0.5607 -0.3055
  138OSM   H13C15000   5.992   0.175   5.890 -0.8404 -0.0518 -0.6891
  138OSM    C1215001   6.001   0.276   6.221  0.0212 -0.0366  0.3179
  138OSM   H12A15002   6.057   0.240   6.307  0.4999  2.7708  1.2732
  138OSM   H12B15003   5.894   0.268   6.236 -0.3773 -0.9072 -2.3942
  138OSM    C1115004   6.038   0.428   6.209  0.7644 -0.3636  0.2896
  138OSM   H11A15005   6.144   0.436   6.176  1.0499  2.2689  1.6013
  138OSM   H11B15006   6.034   0.484   6.304  0.5812  0.5558 -0.2522
  138OSM      P15007   5.809   0.543   6.132  0.3975  0.4129 -0.6177
  138OSM    O1315008   5.801   0.690   6.153  0.2183 -0.3424  0.4211
  138OSM    O1415009   5.733   0.482   6.020  0.0257 -0.0337 -0.1142
  138OSM    O1115010   5.763   0.465   6.274 -0.1255  1.2129  0.2964
  138OSM    O1215011   5.953   0.500   6.112 -0.5541  0.0848 -0.3190
  138OSM    C1S15012   5.742   0.548   6.390  0.0210 -0.6330  0.0901
  138OSM    H1S15013   5.664   0.625   6.370 -0.1738 -0.7960  0.2276
  138OSM    H1T15014   5.839   0.596   6.416 -1.4239  3.0388 -0.5909
  138OSM     NF15015   5.691   0.562   6.621 -0.3091 -0.2450  0.3848
  138OSM    HNF15016   5.769   0.569   6.683  0.4350  1.0837 -0.6472
  138OSM    C2S15017   5.706   0.457   6.516 -0.0443 -0.5877  0.0523
  138OSM    H2S15018   5.604   0.414   6.503 -0.4590  0.8543 -2.0073
  138OSM    C3S15019   5.811   0.352   6.547 -0.1740  0.8640  0.4182
  138OSM    H3S15020   5.919   0.376   6.535 -0.2021 -0.1538 -3.0716
  138OSM     O315021   5.797   0.242   6.452 -0.1249 -0.5636  0.2443
  138OSM    HO315022   5.728   0.279   6.396  1.9500  1.3500 -1.2536
  138OSM    C4S15023   5.783   0.304   6.688  0.3638  0.4475  0.5616
  138OSM    H4S15024   5.676   0.277   6.685 -0.9200  4.8285 -0.3954
  138OSM    C5S15025   5.866   0.322   6.795  0.7780 -0.2057 -0.0674
  138OSM    H5S15026   5.957   0.383   6.784  1.0787 -1.0206 -2.7086
  138OSM    C6S15027   5.809   0.286   6.929 -0.5825 -0.1609 -0.3975
  138OSM    H6S15028   5.841   0.365   7.000 -1.1706  0.1668 -0.4833
  138OSM    H6T15029   5.861   0.200   6.976 -0.6463  0.7010  1.3009
  138OSM    C7S15030   5.656   0.263   6.956  0.1276 -0.2827 -0.1365
  138OSM    H7S15031   5.623   0.164   6.918 -0.7933 -0.3663  0.8484
  138OSM    H7T15032   5.591   0.348   6.925 -0.4793 -0.4333  0.6982
  138OSM    C8S15033   5.632   0.231   7.102 -0.6290  0.1389 -0.5367
  138OSM    H8S15034   5.673   0.312   7.166 -0.6180  0.2983 -0.7471
  138OSM    H8T15035   5.700   0.146   7.122  2.1629  2.4991  0.6732
  138OSM    C9S15036   5.489   0.204   7.129 -0.5003 -0.6209 -0.1271
  138OSM    H9S15037   5.460   0.122   7.060 -2.0268 -0.8367  0.7083
  138OSM    H9T15038   5.419   0.288   7.105  1.1955  1.3808  1.5066
  138OSM   C10S15039   5.467   0.168   7.278 -0.4590 -0.6597  0.7557
  138OSM   H10S15040   5.489   0.252   7.347 -0.0269 -1.7692  1.9929
  138OSM   H10T15041   5.539   0.091   7.313  2.6905  1.1588 -1.1893
  138OSM   C11S15042   5.326   0.126   7.305  0.1057 -0.5859 -0.3209
  138OSM   H11S15043   5.308   0.032   7.251 -1.4228 -0.8550  0.5973
  138OSM   H11T15044   5.263   0.208   7.265  1.3031  1.4130  1.6282
  138OSM   C12S15045   5.301   0.115   7.458 -0.0453 -0.5574  0.2998
  138OSM   H12S15046   5.192   0.112   7.482 -0.0918 -0.4828  0.0981
  138OSM   H12T15047   5.340   0.202   7.515  0.3427 -0.9447  0.6359
  138OSM   C13S15048   5.362  -0.015   7.521  0.2636 -0.7297 -0.3983
  138OSM   H13S15049   5.458  -0.043   7.472  0.4492  1.6900 -1.5326
  138OSM   H13T15050   5.295  -0.100   7.494 -1.1563  0.2837 -0.1663
  138OSM   C14S15051   5.366  -0.002   7.673 -0.6387 -0.4178 -1.0923
  138OSM   H14S15052   5.281   0.043   7.729  0.0393  2.0238 -1.9060
  138OSM   H14T15053   5.455   0.058   7.701 -1.0245 -0.9397  1.5217
  138OSM   C15S15054   5.401  -0.143   7.721 -0.7576 -0.4044 -0.5358
  138OSM   H15S15055   5.491  -0.177   7.665  1.2985 -1.7750  3.2238
  138OSM   H15T15056   5.310  -0.207   7.710 -1.1618  0.0861 -0.1124
  138OSM   C16S15057   5.463  -0.139   7.861 -0.4226  0.4265  0.2152
  138OSM   H16S15058   5.386  -0.100   7.932 -2.8285 -2.5752 -0.5441
  138OSM   H16T15059   5.553  -0.075   7.851 -0.7383  0.7850 -0.3616
  138OSM   C17S15060   5.497  -0.285   7.899  0.0564  0.3502 -0.7794
  138OSM   H17S15061   5.410  -0.354   7.902  0.7322 -0.5006 -0.2567
  138OSM   H17T15062   5.533  -0.262   8.002 -0.9981  1.3567 -0.6039
  138OSM   C18S15063   5.605  -0.350   7.814  0.1449  0.4676 -0.0499
  138OSM   H18S15064   5.698  -0.292   7.793  1.1581 -1.7162 -2.0219
  138OSM   H18T15065   5.566  -0.366   7.711  0.4715  1.3844 -0.3360
  138OSM   H18U15066   5.650  -0.440   7.860 -1.5259 -1.8112 -2.6058
  138OSM    C1F15067   5.592   0.644   6.636  0.4920 -0.6658  0.7985
  138OSM     OF15068   5.493   0.647   6.563  0.2485  0.1419  0.5021
  138OSM    C2F15069   5.599   0.746   6.740 -0.0293 -0.7140 -0.2764
  138OSM    H2F15070   5.641   0.838   6.694  1.6385 -1.7345 -0.8702
  138OSM    H2G15071   5.675   0.709   6.811 -0.4079 -1.5803 -0.3131
  138OSM    C3F15072   5.460   0.781   6.801  0.1930  0.5779  0.7730
  138OSM    H3F15073   5.397   0.818   6.717 -0.0934  1.9374  1.5688
  138OSM    H3G15074   5.454   0.866   6.872 -2.1541  1.3939 -0.2914
  138OSM    C4F15075   5.387   0.653   6.854 -0.2148 -0.9108 -0.6509
  138OSM    H4F15076   5.404   0.569   6.783 -0.3668 -1.3435 -0.1817
  138OSM    H4G15077   5.279   0.671   6.874 -0.1059  1.7365 -1.9912
  138OSM    C5F15078   5.444   0.606   6.991  0.7165 -0.6153 -0.1075
  138OSM    H5F15079   5.555   0.612   6.995  0.8696 -3.1551  1.3030
  138OSM    H5G15080   5.410   0.503   7.015 -3.0415  0.0786 -1.8232
  138OSM    C6F15081   5.395   0.700   7.108 -0.7019  0.0195  0.8433
  138OSM    H6F15082   5.291   0.668   7.132 -0.4209 -2.4807 -0.9664
  138OSM    H6G15083   5.394   0.802   7.063  1.7252  0.9443  2.6609
  138OSM    C7F15084   5.481   0.695   7.236  0.2797  0.6982  0.2649
  138OSM    H7F15085   5.431   0.766   7.305  0.2372  0.1190  0.8485
  138OSM    H7G15086   5.572   0.747   7.201  0.3853  0.6332  0.4425
  138OSM    C8F15087   5.498   0.559   7.303  0.1236 -0.2086 -0.2499
  138OSM    H8F15088   5.570   0.562   7.387  0.2557  0.2548 -0.3761
  138OSM    H8G15089   5.547   0.499   7.224 -0.4652  1.4104 -1.9198
  138OSM    C9F15090   5.367   0.504   7.344 -0.7118  0.2069 -0.1593
  138OSM    H9F15091   5.300   0.470   7.263 -0.4673 -0.8857  0.0833
  138OSM   C10F15092   5.324   0.511   7.476  0.2656  0.9425  0.0806
  138OSM   H10F15093   5.227   0.471   7.508  1.6290 -0.7523  2.3784
  138OSM   C11F15094   5.401   0.557   7.599 -0.9446  0.3340 -0.1675
  138OSM   H11F15095   5.346   0.642   7.645  2.5941  2.3632  0.6304
  138OSM   H11G15096   5.501   0.600   7.578 -0.5965 -0.5932 -0.4903
  138OSM   C12F15097   5.426   0.436   7.701 -0.0778  0.5593 -0.6559
  138OSM   H12F15098   5.488   0.357   7.653 -0.7789 -1.3788  1.4383
  138OSM   H12G15099   5.332   0.381   7.726 -0.6974  2.7186  2.3631
  138OSM   C13F15100   5.498   0.470   7.834  0.2525 -0.3894  0.5082
  138OSM   H13F15101   5.422   0.512   7.904 -1.5255 -1.7605 -0.5326
  138OSM   H13G15102   5.577   0.547   7.821 -1.4853  1.6610  1.4236
  138OSM   C14F15103   5.572   0.352   7.909  0.4543 -0.4594  0.1515
  138OSM   H14F15104   5.616   0.407   7.994  0.8932 -0.5496 -0.0146
  138OSM   H14G15105   5.658   0.315   7.848 -0.1641 -0.1379 -0.9486
  138OSM   C15F15106   5.482   0.250   7.971 -0.2395  0.0931 -0.1649
  138OSM   H15F15107   5.437   0.182   7.896 -0.6014 -0.3738  0.4621
  138OSM   H15G15108   5.402   0.310   8.018 -1.4239 -1.2171 -0.4541
  138OSM   C16F15109   5.546   0.168   8.093 -0.8852  0.3529 -0.1301
  138OSM   H16F15110   5.606   0.233   8.161 -1.3143 -0.6421  1.2400
  138OSM   H16G15111   5.616   0.088   8.062 -0.5951  1.0290 -1.2946
  138OSM   C17F15112   5.420   0.097   8.160 -0.4429  0.3804  0.0916
  138OSM   H17F15113   5.358   0.039   8.089  0.3550 -0.2258 -0.1230
  138OSM   H17G15114   5.361   0.187   8.187  0.3134  0.7688  0.5021
  138OSM   C18F15115   5.437   0.025   8.289  0.4277 -0.5279 -0.2210
  138OSM   H18F15116   5.333   0.004   8.321  0.0316  3.1470  1.4100
  138OSM   H18G15117   5.478   0.091   8.367  1.8201 -1.1861 -0.3647
  138OSM   H18H15118   5.503  -0.062   8.270  1.0193 -0.1572  0.1197
  139OSM      N15119   2.201   0.119   6.290 -0.3230 -0.0358  0.0040
  139OSM    C1515120   2.283   0.224   6.228  0.9245 -0.0361 -0.0908
  139OSM   H15A15121   2.330   0.181   6.141  1.6701 -0.5127  0.5358
  139OSM   H15B15122   2.361   0.258   6.294  1.0650 -1.5682  0.5851
  139OSM   H15C15123   2.222   0.306   6.194  3.2255  1.4458 -0.8633
  139OSM    C1415124   2.083   0.099   6.198  0.1251 -0.0121 -0.1627
  139OSM   H14A15125   2.023   0.189   6.198  2.0167  1.3342  0.7950
  139OSM   H14B15126   2.028   0.018   6.243  2.0938 -0.9349  0.6711
  139OSM   H14C15127   2.112   0.072   6.097 -2.5069 -1.0041 -0.7377
  139OSM    C1315128   2.272  -0.015   6.294  0.5595 -0.1580 -0.2853
  139OSM   H13A15129   2.199  -0.088   6.325 -1.2573  1.0715 -1.4582
  139OSM   H13B15130   2.343  -0.001   6.374  1.7431  0.8846 -1.4810
  139OSM   H13C15131   2.318  -0.041   6.200 -0.0589  3.0800 -1.6206
  139OSM    C1215132   2.168   0.162   6.440 -0.3548  0.1325 -0.1489
  139OSM   H12A15133   2.084   0.230   6.444 -1.4536 -1.2350  1.6131
  139OSM   H12B15134   2.242   0.225   6.487  0.1305 -0.0112 -0.7199
  139OSM    C1115135   2.130   0.045   6.538  0.7452  0.0432 -0.2020
  139OSM   H11A15136   2.093   0.091   6.632 -0.1933  0.0760 -0.5763
  139OSM   H11B15137   2.220  -0.016   6.560  3.4217  2.8366 -2.6484
  139OSM      P15138   1.874   0.029   6.461 -0.0107  0.0238 -0.5115
  139OSM    O1315139   1.877   0.175   6.459  0.2877  0.2581  0.1020
  139OSM    O1415140   1.819  -0.041   6.347  0.0188  0.1986  0.1418
  139OSM    O1115141   1.800  -0.014   6.589  0.1328 -0.0759 -0.8405
  139OSM    O1215142   2.022  -0.029   6.474 -0.3372 -0.4877  0.1159
  139OSM    C1S15143   1.803  -0.149   6.638 -0.0100  0.1838  0.0710
  139OSM    H1S15144   1.869  -0.217   6.580 -2.1749 -2.1200  0.1747
  139OSM    H1T15145   1.699  -0.187   6.635  0.6239 -1.6425  0.4656
  139OSM     NF15146   1.862  -0.275   6.852  0.3309  0.1396  0.7258
  139OSM    HNF15147   1.788  -0.294   6.915  0.4500 -1.9227  0.3068
  139OSM    C2S15148   1.862  -0.148   6.786  0.0825  0.0160 -0.3504
  139OSM    H2S15149   1.969  -0.123   6.770  0.2867 -1.6019 -1.7673
  139OSM    C3S15150   1.794  -0.044   6.880 -0.0461 -0.0282  0.7859
  139OSM    H3S15151   1.685  -0.063   6.870  0.3258 -1.7156 -0.4073
  139OSM     O315152   1.804   0.090   6.828  0.3566 -0.5487 -0.6746
  139OSM    HO315153   1.811   0.067   6.734  0.9791 -3.5315 -0.0117
  139OSM    C4S15154   1.836  -0.052   7.024 -0.0945  0.2262  0.0086
  139OSM    H4S15155   1.760  -0.101   7.087  0.4230  1.3670  1.5537
  139OSM    C5S15156   1.947   0.001   7.079 -0.2676 -0.9117  0.0255
  139OSM    H5S15157   2.012   0.054   7.008 -1.2350 -2.5198 -2.1880
  139OSM    C6S15158   1.993  -0.011   7.219 -0.0338 -0.0638 -0.1674
  139OSM    H6S15159   2.011   0.088   7.266  0.3015 -1.3704  2.6887
  139OSM    H6T15160   2.092  -0.061   7.212 -0.3782 -0.5610 -2.1843
  139OSM    C7S15161   1.905  -0.075   7.325  0.4148  0.3348 -0.2323
  139OSM    H7S15162   1.906  -0.184   7.304  1.9082  0.2403  0.2087
  139OSM    H7T15163   1.801  -0.036   7.330  0.5853  0.8584 -0.7299
  139OSM    C8S15164   1.975  -0.052   7.458 -0.2061 -0.2992 -0.6828
  139OSM    H8S15165   2.003   0.055   7.463  0.0071 -0.3706 -0.2933
  139OSM    H8T15166   2.070  -0.110   7.461  0.1563  0.3087  2.3819
  139OSM    C9S15167   1.893  -0.096   7.569  0.5836  0.0056 -0.4532
  139OSM    H9S15168   1.885  -0.205   7.553  0.8151  0.2565 -2.5792
  139OSM    H9T15169   1.794  -0.045   7.567 -0.1857 -1.3371  1.2149
  139OSM   C10S15170   1.949  -0.067   7.712  0.3321  0.0585  0.3728
  139OSM   H10S15171   1.978   0.039   7.721  1.9320 -0.2871 -0.4035
  139OSM   H10T15172   2.036  -0.134   7.727  0.7949  0.3694 -0.8464
  139OSM   C11S15173   1.858  -0.109   7.824 -0.1879  0.5459 -0.2747
  139OSM   H11S15174   1.756  -0.068   7.807 -1.1606 -0.7617  1.9354
  139OSM   H11T15175   1.893  -0.046   7.909  0.1076 -0.3035  0.2458
  139OSM   C12S15176   1.851  -0.256   7.875  1.1609 -0.3211 -0.5211
  139OSM   H12S15177   1.953  -0.289   7.905  0.3575 -0.8346  1.9233
  139OSM   H12T15178   1.814  -0.329   7.800  0.9597 -0.1957 -0.5430
  139OSM   C13S15179   1.752  -0.268   7.994  0.5382  0.6276  0.2185
  139OSM   H13S15180   1.675  -0.193   7.965  0.7600  0.0053 -2.2367
  139OSM   H13T15181   1.810  -0.243   8.085  1.1246  2.7522 -0.6814
  139OSM   C14S15182   1.697  -0.413   8.006 -0.1502  0.1511  0.5764
  139OSM   H14S15183   1.773  -0.492   7.989  0.2271  0.3334  1.3870
  139OSM   H14T15184   1.623  -0.433   7.925 -1.7675  0.4608  1.9263
  139OSM   C15S15185   1.641  -0.426   8.146 -0.4171 -0.0599  0.2205
  139OSM   H15S15186   1.551  -0.365   8.166  0.1356 -0.1426  3.4981
  139OSM   H15T15187   1.717  -0.399   8.223 -0.3745 -0.9899  0.5221
  139OSM   C16S15188   1.619  -0.570   8.185  0.3061  0.1772 -0.8022
  139OSM   H16S15189   1.715  -0.626   8.178  0.5110  0.6873 -2.7872
  139OSM   H16T15190   1.542  -0.598   8.109 -0.7306  1.6071 -0.3365
  139OSM   C17S15191   1.553  -0.573   8.324  0.3075  0.7420 -0.5518
  139OSM   H17S15192   1.464  -0.507   8.329  0.3849  1.0202 -2.3429
  139OSM   H17T15193   1.627  -0.536   8.398 -0.1072 -0.4591  0.5165
  139OSM   C18S15194   1.524  -0.722   8.358 -0.3409  0.0991  0.5421
  139OSM   H18S15195   1.473  -0.721   8.457 -3.3563  0.3852 -0.8881
  139OSM   H18T15196   1.616  -0.784   8.357 -0.2244  0.0580 -3.8098
  139OSM   H18U15197   1.445  -0.769   8.296  0.6884 -0.2858 -0.5112
  139OSM    C1F15198   1.945  -0.372   6.809  0.2346  0.3317  0.4346
  139OSM     OF15199   2.026  -0.349   6.716  0.3919 -0.2790 -0.3897
  139OSM    C2F15200   1.943  -0.504   6.876 -0.3452 -0.9071 -0.2434
  139OSM    H2F15201   1.916  -0.577   6.796 -0.1617  0.4018 -1.5320
  139OSM    H2G15202   1.863  -0.498   6.952  1.2373  2.6156  1.3677
  139OSM    C3F15203   2.074  -0.542   6.946 -1.0119  0.1976  0.4450
  139OSM    H3F15204   2.155  -0.551   6.871 -1.2373  0.6016  0.1466
  139OSM    H3G15205   2.072  -0.644   6.991  0.5851  0.8757  2.1766
  139OSM    C4F15206   2.122  -0.441   7.044  0.0255  0.4506  0.3583
  139OSM    H4F15207   2.045  -0.446   7.124 -0.7950 -4.5721 -0.4252
  139OSM    H4G15208   2.125  -0.339   7.000  0.9296  0.6585  0.8921
  139OSM    C5F15209   2.270  -0.477   7.085  0.6563 -0.2325 -0.0762
  139OSM    H5F15210   2.329  -0.510   6.996  0.2731 -0.2744 -0.3193
  139OSM    H5G15211   2.252  -0.565   7.150 -2.0058  0.1371 -0.2174
  139OSM    C6F15212   2.327  -0.370   7.171  0.7638  0.0815 -0.5516
  139OSM    H6F15213   2.343  -0.283   7.104  1.7800  1.2581  1.1223
  139OSM    H6G15214   2.428  -0.396   7.211  0.3805  0.3523  0.6374
  139OSM    C7F15215   2.241  -0.317   7.293  0.0988  0.3491  0.1167
  139OSM    H7F15216   2.150  -0.271   7.249 -1.0598 -0.3293  1.6815
  139OSM    H7G15217   2.294  -0.229   7.336 -0.3957  0.7836 -0.1439
  139OSM    C8F15218   2.200  -0.415   7.400 -0.4225  0.2429  0.0342
  139OSM    H8F15219   2.170  -0.508   7.346 -0.1179  0.1100  0.0892
  139OSM    H8G15220   2.109  -0.377   7.452 -0.5521 -0.3268  0.2354
  139OSM    C9F15221   2.305  -0.446   7.504  0.6428  0.3206  1.2536
  139OSM    H9F15222   2.371  -0.523   7.463 -2.5031 -0.5536 -2.7081
  139OSM   C10F15223   2.314  -0.410   7.636 -0.1455 -0.3826 -0.0371
  139OSM   H10F15224   2.377  -0.470   7.704  2.0119 -2.4650 -3.5242
  139OSM   C11F15225   2.220  -0.312   7.694  0.8714  0.0109 -0.2672
  139OSM   H11F15226   2.134  -0.361   7.744 -1.2171  1.1371 -2.5889
  139OSM   H11G15227   2.179  -0.238   7.623 -2.0262 -0.2143  1.0470
  139OSM   C12F15228   2.303  -0.238   7.802  0.3458  0.0259  0.5489
  139OSM   H12F15229   2.262  -0.138   7.830  0.3736  0.3383 -0.4800
  139OSM   H12G15230   2.405  -0.215   7.766  0.2553  0.6936  0.7033
  139OSM   C13F15231   2.318  -0.315   7.935  0.9835  0.9032 -1.1509
  139OSM   H13F15232   2.361  -0.415   7.910  0.3305  0.6614 -1.3249
  139OSM   H13G15233   2.217  -0.336   7.976  0.8178  0.8476 -1.5829
  139OSM   C14F15234   2.409  -0.258   8.048  0.3402 -0.2215 -0.1878
  139OSM   H14F15235   2.432  -0.157   8.009  0.7421 -0.0902  0.3719
  139OSM   H14G15236   2.502  -0.318   8.041 -0.5057 -1.6199  0.2391
  139OSM   C15F15237   2.346  -0.245   8.182 -0.7599 -0.0648 -0.0328
  139OSM   H15F15238   2.318  -0.348   8.213  1.1244 -0.4453  0.5341
  139OSM   H15G15239   2.250  -0.189   8.185 -1.2272 -0.7772 -1.2460
  139OSM   C16F15240   2.443  -0.192   8.286 -0.9074 -0.5025 -0.7714
  139OSM   H16F15241   2.453  -0.082   8.274 -0.5241 -0.4417 -0.0042
  139OSM   H16G15242   2.542  -0.238   8.266  0.1517  2.0708 -1.7827
  139OSM   C17F15243   2.401  -0.210   8.436 -0.7699 -0.4564 -1.1295
  139OSM   H17F15244   2.473  -0.284   8.478 -0.6217 -0.4996 -1.4605
  139OSM   H17G15245   2.301  -0.256   8.451 -1.3307  1.0239 -0.0880
  139OSM   C18F15246   2.403  -0.074   8.516 -0.3883 -0.2976  0.2434
  139OSM   H18F15247   2.323  -0.009   8.476 -0.0112 -1.3722 -2.4917
  139OSM   H18G15248   2.496  -0.022   8.485  1.4958 -3.7934 -0.5620
  139OSM   H18H15249   2.378  -0.086   8.623 -3.4301 -0.3150 -0.3840
  140OSM      N15250   4.170   2.734   6.259 -0.0499 -0.4840  0.7791
  140OSM    C1515251   4.231   2.841   6.160 -0.6105  1.4017  0.3127
  140OSM   H15A15252   4.149   2.887   6.108 -0.7554 -0.6383 -1.3609
  140OSM   H15B15253   4.289   2.790   6.085 -0.4422 -1.3159  2.1495
  140OSM   H15C15254   4.284   2.914   6.220 -2.0467  1.3157  1.7553
  140OSM    C1415255   4.144   2.790   6.392  0.2426 -0.2674 -0.4391
  140OSM   H14A15256   4.238   2.816   6.438  0.7519  1.1761 -2.1753
  140OSM   H14B15257   4.083   2.725   6.452  0.8678 -0.5110 -0.0541
  140OSM   H14C15258   4.086   2.882   6.388  0.5999  0.0862  1.4555
  140OSM    C1315259   4.048   2.674   6.191  0.3750  0.0667  0.5877
  140OSM   H13A15260   4.074   2.633   6.095 -0.4045  0.7902  0.0549
  140OSM   H13B15261   3.971   2.750   6.183 -0.0292 -0.5048 -1.6079
  140OSM   H13C15262   3.999   2.600   6.252 -0.3026  2.0449  2.6011
  140OSM    C1215263   4.277   2.630   6.267 -0.1708  0.4988 -0.4603
  140OSM   H12A15264   4.304   2.587   6.172 -0.2226  0.1104 -0.3021
  140OSM   H12B15265   4.235   2.547   6.321  1.6587  2.0241  3.7128
  140OSM    C1115266   4.407   2.679   6.342  0.2412 -0.2247 -0.5564
  140OSM   H11A15267   4.433   2.781   6.304 -1.3608 -0.3399 -2.0975
  140OSM   H11B15268   4.482   2.604   6.310  1.0397  0.6899 -0.8742
  140OSM      P15269   4.374   2.550   6.563  0.1951  0.4407  0.4344
  140OSM    O1315270   4.313   2.581   6.692 -0.3321 -0.1425 -0.3609
  140OSM    O1415271   4.315   2.441   6.483 -0.1316 -0.8165  0.1428
  140OSM    O1115272   4.526   2.515   6.582 -0.5053  0.8249  0.2765
  140OSM    O1215273   4.385   2.684   6.482 -0.3715  0.6726 -0.1533
  140OSM    C1S15274   4.627   2.619   6.594  0.1146 -0.2459 -1.0011
  140OSM    H1S15275   4.597   2.711   6.540 -0.3679  0.3409  0.2449
  140OSM    H1T15276   4.729   2.586   6.565  0.8330  0.8113  0.2419
  140OSM     NF15277   4.722   2.776   6.757  0.0770 -0.0486 -0.5415
  140OSM    HNF15278   4.819   2.784   6.737 -0.3691  1.5512 -2.3849
  140OSM    C2S15279   4.647   2.656   6.744  0.4686 -0.3387 -0.4186
  140OSM    H2S15280   4.550   2.668   6.797  1.4653 -1.2931  1.7688
  140OSM    C3S15281   4.704   2.536   6.820 -0.0721  0.2053 -0.1688
  140OSM    H3S15282   4.810   2.518   6.794 -0.0867 -1.4410  0.7287
  140OSM     O315283   4.650   2.409   6.791  0.5712  0.7481  0.5582
  140OSM    HO315284   4.588   2.418   6.719  0.2266 -2.1345  0.3603
  140OSM    C4S15285   4.692   2.565   6.966  0.0438 -0.3608 -0.4181
  140OSM    H4S15286   4.595   2.561   7.017 -0.5777  0.7207 -1.5022
  140OSM    C5S15287   4.796   2.580   7.048 -0.1077  0.3217 -0.2336
  140OSM    H5S15288   4.896   2.565   7.004 -0.7738 -1.6711 -1.1939
  140OSM    C6S15289   4.772   2.602   7.196 -0.6220  0.0984  0.2098
  140OSM    H6S15290   4.670   2.572   7.227  0.1983 -0.2084  2.8311
  140OSM    H6T15291   4.778   2.708   7.227  1.5586 -0.4073  1.7674
  140OSM    C7S15292   4.870   2.526   7.292 -0.7076 -0.1223 -0.2135
  140OSM    H7S15293   4.966   2.581   7.295 -0.8717  0.1801 -0.4979
  140OSM    H7T15294   4.900   2.424   7.260 -0.3307 -0.4637  1.1861
  140OSM    C8S15295   4.834   2.509   7.441 -0.5569 -0.1084  0.1334
  140OSM    H8S15296   4.739   2.453   7.438  0.5683 -2.0750 -1.1520
  140OSM    H8T15297   4.809   2.606   7.489 -0.7497 -0.6349  1.1060
  140OSM    C9S15298   4.951   2.435   7.517  0.2150  0.2640 -0.3387
  140OSM    H9S15299   5.038   2.504   7.511  0.7451 -0.5019 -1.9299
  140OSM    H9T15300   4.979   2.337   7.472  0.4747 -0.9143  2.1785
  140OSM   C10S15301   4.888   2.410   7.656 -0.4028 -0.6316  0.0271
  140OSM   H10S15302   4.788   2.366   7.640 -1.6633  2.2128 -0.5918
  140OSM   H10T15303   4.864   2.508   7.703  1.5493 -0.5556  0.9912
  140OSM   C11S15304   4.975   2.329   7.743 -0.2930 -0.0440  0.6930
  140OSM   H11S15305   5.078   2.372   7.744 -0.8461  1.3201  1.7658
  140OSM   H11T15306   4.965   2.221   7.717  1.2054 -0.1179  0.3244
  140OSM   C12S15307   4.925   2.326   7.888 -0.0458 -0.0496  0.2139
  140OSM   H12S15308   4.979   2.240   7.933 -0.7175 -0.6032 -0.0208
  140OSM   H12T15309   4.815   2.309   7.892  0.2606 -2.1930  0.7197
  140OSM   C13S15310   4.975   2.451   7.965  0.1196 -0.1343 -0.4100
  140OSM   H13S15311   4.942   2.547   7.921  3.0989 -0.1402 -2.9938
  140OSM   H13T15312   5.086   2.451   7.959  0.1545  0.1241  0.1768
  140OSM   C14S15313   4.936   2.443   8.119  0.2543 -0.0249  0.1905
  140OSM   H14S15314   4.977   2.344   8.147  0.7070 -0.6814 -2.5025
  140OSM   H14T15315   4.829   2.423   8.142  0.3819 -0.9115  0.0563
  140OSM   C15S15316   4.995   2.555   8.213  0.3777 -0.2541 -0.1358
  140OSM   H15S15317   4.931   2.644   8.198 -1.2556 -1.6537 -2.0427
  140OSM   H15T15318   5.101   2.579   8.191 -0.0491  0.9760 -0.9068
  140OSM   C16S15319   4.999   2.514   8.354  0.6510  0.5151 -0.1501
  140OSM   H16S15320   5.070   2.430   8.370  0.1115  0.0720 -0.0498
  140OSM   H16T15321   4.899   2.485   8.392 -0.2441  1.9716 -1.2551
  140OSM   C17S15322   5.046   2.618   8.455  0.6660 -0.2221  0.3215
  140OSM   H17S15323   5.002   2.714   8.420  0.1542 -1.2772 -2.0819
  140OSM   H17T15324   5.157   2.633   8.453  0.5905  0.2198 -0.9282
  140OSM   C18S15325   4.991   2.592   8.601 -0.0177  0.0061 -0.6855
  140OSM   H18S15326   4.909   2.662   8.628  1.2365  0.8034  1.2740
  140OSM   H18T15327   5.069   2.624   8.673 -0.8015  0.5212 -0.0453
  140OSM   H18U15328   4.955   2.489   8.621  1.3018 -0.0766  1.6180
  140OSM    C1F15329   4.661   2.892   6.754  0.3785 -0.8205  0.1016
  140OSM     OF15330   4.544   2.897   6.721 -0.0830  0.3154  0.3786
  140OSM    C2F15331   4.742   3.015   6.800  0.4164 -0.1651 -0.2302
  140OSM    H2F15332   4.728   3.079   6.711  0.0643  0.3878  0.2160
  140OSM    H2G15333   4.843   2.983   6.835 -0.2848 -1.3631  0.7986
  140OSM    C3F15334   4.664   3.086   6.916  0.1515 -0.1280 -0.2006
  140OSM    H3F15335   4.572   3.137   6.882 -0.4276 -1.0377 -0.0239
  140OSM    H3G15336   4.731   3.159   6.966  2.6449 -2.6692  0.4351
  140OSM    C4F15337   4.623   2.992   7.033 -0.0815 -0.3225  0.3862
  140OSM    H4F15338   4.714   2.938   7.066  1.7134  0.5874 -2.6262
  140OSM    H4G15339   4.555   2.915   6.990 -1.8743  0.4086  1.7903
  140OSM    C5F15340   4.543   3.072   7.139  0.2712  0.8041 -0.0827
  140OSM    H5F15341   4.448   3.111   7.098  1.9910  4.2786 -1.1970
  140OSM    H5G15342   4.609   3.156   7.169  2.4095 -0.8520  0.1075
  140OSM    C6F15343   4.501   2.997   7.263 -0.6380  0.4674  0.5547
  140OSM    H6F15344   4.592   2.946   7.302  0.4131  1.3462 -0.6747
  140OSM    H6G15345   4.447   2.904   7.236  2.2214 -1.1297 -0.0413
  140OSM    C7F15346   4.416   3.087   7.354 -0.0211  0.2870  0.5549
  140OSM    H7F15347   4.316   3.098   7.305  1.1052  1.0323 -1.7393
  140OSM    H7G15348   4.461   3.189   7.354 -0.4650  0.4851  0.3817
  140OSM    C8F15349   4.381   3.033   7.489 -0.1760 -0.0143  0.4208
  140OSM    H8F15350   4.351   2.928   7.468  1.0222 -0.4471  0.8082
  140OSM    H8G15351   4.288   3.078   7.530  0.2769  0.4459  0.9521
  140OSM    C9F15352   4.503   3.040   7.582 -0.6416  0.1188  0.3537
  140OSM    H9F15353   4.584   2.971   7.553 -0.3792  0.4264  0.3588
  140OSM   C10F15354   4.511   3.128   7.685  0.0418  0.7186 -0.1209
  140OSM   H10F15355   4.598   3.126   7.752 -1.2754 -2.3055  1.7276
  140OSM   C11F15356   4.403   3.222   7.727 -0.0916 -0.1998 -1.2624
  140OSM   H11F15357   4.298   3.216   7.691 -0.2209 -1.0456 -0.7754
  140OSM   H11G15358   4.430   3.326   7.696 -0.9112  1.0119  1.7221
  140OSM   C12F15359   4.400   3.244   7.883  0.3811  0.5219  0.3118
  140OSM   H12F15360   4.370   3.148   7.930 -0.9875  0.9230  0.3099
  140OSM   H12G15361   4.312   3.310   7.902 -0.9271 -0.8376 -0.7046
  140OSM   C13F15362   4.516   3.313   7.951 -0.7081  0.7668 -0.7201
  140OSM   H13F15363   4.538   3.413   7.908  1.5049  0.5031 -0.3405
  140OSM   H13G15364   4.607   3.249   7.939 -0.0121  1.0061  2.2956
  140OSM   C14F15365   4.501   3.345   8.102  0.3393 -0.3174  0.5659
  140OSM   H14F15366   4.594   3.394   8.137  0.1509  1.2468 -1.0087
  140OSM   H14G15367   4.481   3.251   8.159  0.0459 -1.1242 -0.8117
  140OSM   C15F15368   4.388   3.440   8.148  0.6474 -0.3725 -0.5243
  140OSM   H15F15369   4.284   3.423   8.113  0.5667 -1.9694  0.4278
  140OSM   H15G15370   4.412   3.539   8.102  1.2818 -0.2435  0.0720
  140OSM   C16F15371   4.370   3.453   8.303 -0.0365  0.8277 -0.9639
  140OSM   H16F15372   4.450   3.513   8.352  0.2358 -0.3521  0.0824
  140OSM   H16G15373   4.378   3.350   8.344 -0.9257 -0.1544 -3.0534
  140OSM   C17F15374   4.238   3.523   8.343 -0.1287 -0.2794 -0.2540
  140OSM   H17F15375   4.151   3.469   8.301 -0.6062  0.0113  0.3495
  140OSM   H17G15376   4.237   3.618   8.286 -1.5573  1.9761  3.1964
  140OSM   C18F15377   4.216   3.545   8.490  0.5391 -0.4762 -0.5000
  140OSM   H18F15378   4.287   3.624   8.524 -0.1791  0.3426 -0.8590
  140OSM   H18G15379   4.231   3.446   8.539 -0.9912 -0.3435  0.3110
  140OSM   H18H15380   4.110   3.574   8.505  1.1707  1.0861  1.4449
  141OSM      N15381   5.219   4.807   6.304 -0.4971  0.1177 -0.5020
  141OSM    C1515382   5.354   4.741   6.321  0.8497 -0.0050 -0.2557
  141OSM   H15A15383   5.374   4.710   6.422  1.9871 -2.4241 -1.1451
  141OSM   H15B15384   5.424   4.809   6.275 -1.6218  3.5202  0.7855
  141OSM   H15C15385   5.350   4.656   6.254 -0.3808  0.0179 -0.2268
  141OSM    C1415386   5.199   4.909   6.406  0.2578 -0.1311 -0.0027
  141OSM   H14A15387   5.202   4.877   6.510 -3.1278  0.1033  0.2616
  141OSM   H14B15388   5.100   4.952   6.403  0.3916  0.2292  0.6190
  141OSM   H14C15389   5.276   4.984   6.398  2.2115 -2.0306  0.1024
  141OSM    C1315390   5.221   4.875   6.174  0.1791 -0.3762  0.5806
  141OSM   H13A15391   5.124   4.918   6.156 -1.0409 -2.5938  1.4298
  141OSM   H13B15392   5.239   4.807   6.092  1.9980  0.2619  0.3876
  141OSM   H13C15393   5.303   4.945   6.171  0.6505 -0.9613 -1.2846
  141OSM    C1215394   5.116   4.701   6.318  0.1587 -0.5009  0.0683
  141OSM   H12A15395   5.137   4.627   6.242 -0.5749  0.6764 -1.3463
  141OSM   H12B15396   5.024   4.753   6.293  0.7588  1.1638  1.1076
  141OSM    C1115397   5.108   4.613   6.443  0.2381  0.1669  0.2005
  141OSM   H11A15398   5.003   4.577   6.453 -0.2272  0.1978 -3.2226
  141OSM   H11B15399   5.134   4.680   6.528  1.2714  3.1174 -2.2471
  141OSM      P15400   5.200   4.393   6.330  0.5358 -0.3285 -0.0781
  141OSM    O1315401   5.100   4.425   6.223 -0.2487 -0.4696 -0.3073
  141OSM    O1415402   5.336   4.364   6.286  0.5951  0.3583  0.8214
  141OSM    O1115403   5.135   4.278   6.419  0.0545 -0.1545 -0.4007
  141OSM    O1215404   5.205   4.504   6.442 -0.2990 -0.6319 -0.6837
  141OSM    C1S15405   5.213   4.234   6.530 -0.3531 -0.5696 -0.2980
  141OSM    H1S15406   5.323   4.245   6.517 -0.0852 -2.4105  0.2205
  141OSM    H1T15407   5.197   4.125   6.544 -0.5181 -0.5408 -0.2619
  141OSM     NF15408   5.271   4.228   6.759  0.1494 -0.2052  0.1048
  141OSM    HNF15409   5.234   4.172   6.833  0.4270  1.1704  1.3495
  141OSM    C2S15410   5.177   4.289   6.671  0.2282  0.5288 -0.3251
  141OSM    H2S15411   5.184   4.399   6.676 -0.4100  0.5252  1.4309
  141OSM    C3S15412   5.031   4.258   6.706  0.9103 -0.2464 -0.8013
  141OSM    H3S15413   5.006   4.152   6.682 -1.0255  0.0231 -0.2035
  141OSM     O315414   4.938   4.317   6.612  0.2565  0.3849 -0.0892
  141OSM    HO315415   4.976   4.320   6.524 -1.8854 -0.6338 -1.1496
  141OSM    C4S15416   4.993   4.292   6.848  0.1695  0.0193 -0.1790
  141OSM    H4S15417   5.000   4.212   6.923  2.7171  0.7124  0.4245
  141OSM    C5S15418   4.934   4.408   6.885 -0.2191 -0.1374 -0.2407
  141OSM    H5S15419   4.921   4.484   6.806 -2.2603 -0.1850  0.0184
  141OSM    C6S15420   4.891   4.451   7.021 -0.3384  0.1157 -0.8526
  141OSM    H6S15421   4.805   4.521   7.011  1.4030  2.2871 -1.5699
  141OSM    H6T15422   4.975   4.506   7.070  0.5944 -2.2603  0.3747
  141OSM    C7S15423   4.856   4.346   7.129  0.8492  0.0281  0.5951
  141OSM    H7S15424   4.940   4.276   7.148 -0.2318 -0.9552  1.9438
  141OSM    H7T15425   4.763   4.295   7.097 -0.5374  0.8556  3.0092
  141OSM    C8S15426   4.815   4.424   7.259 -0.0708 -0.3883 -0.0325
  141OSM    H8S15427   4.730   4.491   7.237  0.0581 -0.3492 -0.4087
  141OSM    H8T15428   4.904   4.479   7.300  1.1077 -1.1896 -1.4258
  141OSM    C9S15429   4.764   4.329   7.369 -0.2902  0.2153  0.0120
  141OSM    H9S15430   4.823   4.235   7.366  2.3100  1.7518 -1.8719
  141OSM    H9T15431   4.661   4.303   7.338 -0.2454 -0.0267  0.0658
  141OSM   C10S15432   4.748   4.393   7.507  0.6226  0.4377  0.0906
  141OSM   H10S15433   4.697   4.489   7.484  2.1361  0.9154 -1.5209
  141OSM   H10T15434   4.853   4.422   7.530  1.3549 -3.3682  2.2568
  141OSM   C11S15435   4.680   4.329   7.625  0.5328  0.2535 -0.5234
  141OSM   H11S15436   4.744   4.243   7.652 -0.0739 -0.2476 -0.6793
  141OSM   H11T15437   4.585   4.290   7.584 -0.0028  1.7630 -0.7808
  141OSM   C12S15438   4.660   4.421   7.753  0.3744  0.1528  0.1298
  141OSM   H12S15439   4.586   4.498   7.721 -1.1400 -1.5749 -0.7281
  141OSM   H12T15440   4.757   4.467   7.779  0.7124 -0.1104 -0.6505
  141OSM   C13S15441   4.585   4.340   7.869 -1.1414 -0.5213  0.1004
  141OSM   H13S15442   4.656   4.263   7.904  0.0136  1.0809  1.4763
  141OSM   H13T15443   4.493   4.300   7.821 -0.6915 -2.1128  0.5131
  141OSM   C14S15444   4.550   4.429   7.990  0.6382  0.4603 -0.6413
  141OSM   H14S15445   4.481   4.391   8.068  0.4306  2.7479  0.3731
  141OSM   H14T15446   4.488   4.511   7.950 -0.2233 -0.0892 -0.4615
  141OSM   C15S15447   4.679   4.474   8.074  0.2558  0.1668  0.3751
  141OSM   H15S15448   4.734   4.552   8.017  0.0537  1.0487  1.3707
  141OSM   H15T15449   4.736   4.382   8.102 -0.6011 -0.5772 -0.2412
  141OSM   C16S15450   4.651   4.561   8.198 -0.1217 -0.4346 -0.2990
  141OSM   H16S15451   4.606   4.488   8.268 -0.5895  0.3911  0.2747
  141OSM   H16T15452   4.590   4.651   8.174  1.8886  1.6010  1.7511
  141OSM   C17S15453   4.775   4.634   8.255 -0.3576  0.0805  0.3921
  141OSM   H17S15454   4.747   4.695   8.344  0.0513 -1.9805  2.0063
  141OSM   H17T15455   4.810   4.713   8.186  1.3582 -0.8412  0.1618
  141OSM   C18S15456   4.886   4.536   8.285  0.7141 -0.8364  0.9683
  141OSM   H18S15457   4.846   4.446   8.338 -2.0137 -0.8014 -0.8338
  141OSM   H18T15458   4.977   4.585   8.326  0.3634  1.0304 -0.4072
  141OSM   H18U15459   4.925   4.489   8.193  1.3059 -0.4514  1.0190
  141OSM    C1F15460   5.400   4.269   6.766  0.4190 -0.5925  0.2747
  141OSM     OF15461   5.434   4.361   6.691  0.2643  0.3091 -0.2858
  141OSM    C2F15462   5.489   4.214   6.866 -0.4697  0.6253 -0.1358
  141OSM    H2F15463   5.534   4.119   6.831 -1.6570  0.2083 -0.6041
  141OSM    H2G15464   5.420   4.179   6.946 -1.2984 -0.5432 -1.3122
  141OSM    C3F15465   5.603   4.307   6.913 -0.2794  0.2033 -0.0637
  141OSM    H3F15466   5.563   4.407   6.939 -0.9119 -0.4465  1.6544
  141OSM    H3G15467   5.679   4.329   6.836  1.6631 -2.4282  0.9469
  141OSM    C4F15468   5.664   4.265   7.048  0.9429  0.2087 -0.0745
  141OSM    H4F15469   5.745   4.190   7.032  1.6604  0.7468  0.9348
  141OSM    H4G15470   5.589   4.229   7.122  0.5087  2.9787  0.9630
  141OSM    C5F15471   5.725   4.389   7.115 -0.0492 -0.0199  0.6291
  141OSM    H5F15472   5.646   4.465   7.130  1.5447  1.0974  4.4370
  141OSM    H5G15473   5.799   4.437   7.048  0.4594 -1.1253  0.3648
  141OSM    C6F15474   5.790   4.348   7.241  0.6981 -0.5376 -0.2610
  141OSM    H6F15475   5.871   4.421   7.265  0.8640 -0.1977 -1.7472
  141OSM    H6G15476   5.823   4.242   7.231 -0.8167 -1.1405  0.7729
  141OSM    C7F15477   5.695   4.356   7.357 -0.4152 -0.3888 -0.1571
  141OSM    H7F15478   5.602   4.300   7.331 -0.6686 -0.5054  0.9421
  141OSM    H7G15479   5.657   4.461   7.361 -1.0002 -0.5442 -1.2883
  141OSM    C8F15480   5.766   4.308   7.481  0.0704 -0.1009  0.7410
  141OSM    H8F15481   5.713   4.346   7.572 -1.1943  1.4157 -0.5663
  141OSM    H8G15482   5.870   4.347   7.478  0.8829 -1.8917  2.5884
  141OSM    C9F15483   5.788   4.156   7.486  0.3669 -0.2239 -0.5461
  141OSM    H9F15484   5.803   4.123   7.383  1.3726  0.8371 -0.7582
  141OSM   C10F15485   5.781   4.064   7.587  0.1823  0.1537  0.7185
  141OSM   H10F15486   5.809   3.961   7.562 -1.1935 -0.0407 -0.1012
  141OSM   C11F15487   5.759   4.105   7.726  0.0058 -0.4637  0.5931
  141OSM   H11F15488   5.660   4.154   7.733 -0.9723 -1.6234 -3.1047
  141OSM   H11G15489   5.837   4.177   7.760 -1.9103  3.0007 -1.7288
  141OSM   C12F15490   5.755   3.994   7.826 -0.3581 -0.2257 -0.0854
  141OSM   H12F15491   5.846   3.931   7.820 -0.6823 -0.6731 -0.4603
  141OSM   H12G15492   5.666   3.927   7.828 -1.6665  1.4663  0.5095
  141OSM   C13F15493   5.765   4.036   7.976  0.3253  0.4805  0.4913
  141OSM   H13F15494   5.676   4.101   7.988  0.9933  1.8871 -1.5701
  141OSM   H13G15495   5.856   4.097   7.994 -0.7026  2.3565 -0.4141
  141OSM   C14F15496   5.756   3.915   8.076  0.4330 -0.7040  0.0121
  141OSM   H14F15497   5.840   3.848   8.045  1.6529  1.2906 -1.2250
  141OSM   H14G15498   5.663   3.854   8.068 -0.3724  0.5812 -0.7432
  141OSM   C15F15499   5.791   3.959   8.218  0.3250 -0.4092 -0.3153
  141OSM   H15F15500   5.862   4.044   8.213 -0.6465  0.3569 -1.6948
  141OSM   H15G15501   5.837   3.877   8.277 -1.8627 -2.4874 -1.3386
  141OSM   C16F15502   5.669   3.998   8.301 -0.0101  0.4212 -0.2151
  141OSM   H16F15503   5.623   4.093   8.268  2.6054  1.3271 -1.4796
  141OSM   H16G15504   5.713   4.025   8.400 -0.0891  0.3408 -0.1578
  141OSM   C17F15505   5.575   3.874   8.321  0.3840 -0.3078  0.3396
  141OSM   H17F15506   5.637   3.797   8.371 -1.5161 -1.8578  0.4143
  141OSM   H17G15507   5.528   3.849   8.224 -1.1237  0.1054  0.9253
  141OSM   C18F15508   5.468   3.912   8.426  0.2071  0.0336 -0.3567
  141OSM   H18F15509   5.508   3.888   8.527  2.6314  1.3614 -0.9316
  141OSM   H18G15510   5.372   3.857   8.414  0.2830  0.0386 -1.0281
  141OSM   H18H15511   5.451   4.022   8.431 -0.0350 -0.0001 -0.4309
  142OSM      N15512   4.020   6.671   6.052  0.2546  0.1353  0.4604
  142OSM    C1515513   4.070   6.566   5.944 -0.0992  0.2966 -0.0726
  142OSM   H15A15514   4.000   6.485   5.933  0.6055 -0.4451  0.7815
  142OSM   H15B15515   4.164   6.519   5.968  0.2676  1.0671  0.0260
  142OSM   H15C15516   4.081   6.621   5.851  1.1113  0.1274 -0.0534
  142OSM    C1415517   4.102   6.793   6.024  0.0695  0.4185  0.4085
  142OSM   H14A15518   4.200   6.795   6.071 -0.1117  3.6752  0.8631
  142OSM   H14B15519   4.046   6.877   6.062 -3.1296 -0.6387 -1.5654
  142OSM   H14C15520   4.116   6.815   5.919  0.8460  0.6908  0.5600
  142OSM    C1315521   3.877   6.703   6.017 -0.3040  0.1938  0.2865
  142OSM   H13A15522   3.868   6.739   5.915  0.8584  0.3007  0.2129
  142OSM   H13B15523   3.837   6.772   6.089 -0.1410  0.0139  0.5499
  142OSM   H13C15524   3.807   6.621   6.011 -0.2111  0.1539 -0.3653
  142OSM    C1215525   4.026   6.620   6.195 -0.4495  0.1868  0.0146
  142OSM   H12A15526   4.128   6.590   6.210 -0.2459  0.9490  0.1904
  142OSM   H12B15527   3.965   6.532   6.208  0.3950 -0.4023  0.0435
  142OSM    C1115528   3.991   6.727   6.302 -0.5252 -0.2486  0.2615
  142OSM   H11A15529   4.058   6.811   6.277  3.3338 -2.9886  0.5585
  142OSM   H11B15530   4.038   6.692   6.396  2.4855  1.7497 -0.3593
  142OSM      P15531   3.798   6.901   6.313 -0.0879  0.0298 -0.0066
  142OSM    O1315532   3.897   6.990   6.252  0.7036  0.2544 -0.3229
  142OSM    O1415533   3.665   6.917   6.251  0.3862 -0.6204 -0.1430
  142OSM    O1115534   3.800   6.952   6.461 -0.1418  0.1722 -0.3727
  142OSM    O1215535   3.850   6.756   6.302 -0.2716  0.3915 -0.2149
  142OSM    C1S15536   3.890   6.903   6.562 -0.3973 -0.8858  0.1203
  142OSM    H1S15537   3.993   6.942   6.543 -0.1173 -1.9448 -0.6456
  142OSM    H1T15538   3.896   6.793   6.573  0.7907 -0.8977 -0.4831
  142OSM     NF15539   3.930   6.920   6.804 -0.3598 -0.1824 -0.1838
  142OSM    HNF15540   3.923   6.830   6.847 -0.6188  0.1236  0.4304
  142OSM    C2S15541   3.834   6.952   6.699 -0.1079  0.0612 -0.0075
  142OSM    H2S15542   3.821   7.062   6.685  1.7578  0.0666 -2.4788
  142OSM    C3S15543   3.689   6.901   6.725  0.2325  0.6527 -0.4109
  142OSM    H3S15544   3.684   6.790   6.731  0.1416  0.7119  0.9119
  142OSM     O315545   3.595   6.934   6.621  0.3716 -1.0855 -0.0293
  142OSM    HO315546   3.651   6.957   6.546  2.4824 -1.2959  1.4138
  142OSM    C4S15547   3.634   6.956   6.857  0.1653 -0.4050 -0.2167
  142OSM    H4S15548   3.635   7.061   6.887 -3.2305 -1.1547  3.3759
  142OSM    C5S15549   3.573   6.883   6.949 -0.2151  0.1525  0.2464
  142OSM    H5S15550   3.567   6.775   6.929  1.6449 -0.7249  3.5681
  142OSM    C6S15551   3.515   6.929   7.081  0.0880  0.3160  0.2274
  142OSM    H6S15552   3.575   6.881   7.161  0.8033 -1.8462 -1.5173
  142OSM    H6T15553   3.409   6.894   7.080  1.0886 -3.0948 -1.8887
  142OSM    C7S15554   3.511   7.086   7.102  0.2780  0.0695 -0.1671
  142OSM    H7S15555   3.446   7.130   7.023 -1.6930  1.9688  2.3682
  142OSM    H7T15556   3.615   7.122   7.088  0.5165 -0.1190  1.0215
  142OSM    C8S15557   3.458   7.145   7.234  0.0305 -0.5696 -0.3675
  142OSM    H8S15558   3.359   7.097   7.251  0.6003 -1.4620  0.5935
  142OSM    H8T15559   3.460   7.256   7.236  0.2391 -0.5401  2.7560
  142OSM    C9S15560   3.561   7.106   7.342  0.6203  0.1165 -0.1585
  142OSM    H9S15561   3.667   7.138   7.326  0.8779  0.3805  1.7995
  142OSM    H9T15562   3.562   6.996   7.360 -0.8303  0.4014  2.0111
  142OSM   C10S15563   3.514   7.172   7.468  0.2927 -0.6819 -0.4117
  142OSM   H10S15564   3.406   7.146   7.478  0.4234 -0.7029  1.1316
  142OSM   H10T15565   3.510   7.282   7.452 -0.6000 -0.5088  0.8603
  142OSM   C11S15566   3.593   7.117   7.586 -0.3100  0.2853 -0.0842
  142OSM   H11S15567   3.702   7.119   7.561 -0.0675 -1.8562  0.5794
  142OSM   H11T15568   3.565   7.010   7.600  0.0070 -0.0953 -2.0471
  142OSM   C12S15569   3.570   7.184   7.717  0.4646  0.0791 -0.4814
  142OSM   H12S15570   3.462   7.197   7.738  0.8610  0.4450  1.5430
  142OSM   H12T15571   3.614   7.286   7.724  0.7797 -0.0989  0.2420
  142OSM   C13S15572   3.639   7.122   7.842  0.4313  0.3562  0.2565
  142OSM   H13S15573   3.750   7.133   7.837  0.4468  0.5802  1.0545
  142OSM   H13T15574   3.621   7.012   7.845  0.6790  0.3384  2.3643
  142OSM   C14S15575   3.608   7.199   7.974  0.2077  0.2881  0.2930
  142OSM   H14S15576   3.499   7.212   7.988 -0.0158 -1.0501 -0.0854
  142OSM   H14T15577   3.652   7.300   7.985  0.8885  0.0100  0.1819
  142OSM   C15S15578   3.669   7.122   8.091 -0.2918  0.5515 -0.6215
  142OSM   H15S15579   3.660   7.185   8.182  1.2233 -2.0049  1.4803
  142OSM   H15T15580   3.780   7.112   8.086 -0.3092 -0.7738  0.7705
  142OSM   C16S15581   3.601   6.987   8.125 -0.0170  0.0510 -0.5542
  142OSM   H16S15582   3.601   6.909   8.046 -0.5409 -0.0250 -0.4813
  142OSM   H16T15583   3.496   7.019   8.140 -0.0794  1.0176 -2.7825
  142OSM   C17S15584   3.657   6.946   8.267 -0.1817  0.4211 -0.1238
  142OSM   H17S15585   3.596   6.857   8.289  1.0485 -0.0129  1.8105
  142OSM   H17T15586   3.644   7.018   8.351  1.0804  0.0759  0.3956
  142OSM   C18S15587   3.801   6.896   8.270  0.0635 -0.3896  0.5643
  142OSM   H18S15588   3.816   6.813   8.198 -1.6717 -0.1110 -0.1840
  142OSM   H18T15589   3.824   6.851   8.368  3.1570 -1.4474 -0.5254
  142OSM   H18U15590   3.877   6.974   8.248  2.2262 -2.2000  1.2620
  142OSM    C1F15591   4.049   6.980   6.813  0.4437  0.4939  0.2645
  142OSM     OF15592   4.074   7.080   6.742  0.0006  0.2984  0.6377
  142OSM    C2F15593   4.156   6.904   6.892  0.4456 -0.3359 -0.1362
  142OSM    H2F15594   4.247   6.937   6.837  0.8561  0.7653  1.1291
  142OSM    H2G15595   4.129   6.797   6.881  0.1923 -0.1001 -2.1322
  142OSM    C3F15596   4.141   6.955   7.040 -0.6589 -0.1927 -0.5327
  142OSM    H3F15597   4.127   7.065   7.046  0.8641 -0.0341  0.9797
  142OSM    H3G15598   4.237   6.934   7.092 -1.2358  0.8878  1.0586
  142OSM    C4F15599   4.020   6.907   7.113 -0.1681 -0.1321 -0.5669
  142OSM    H4F15600   3.997   6.799   7.105 -2.2863  0.0611  1.6368
  142OSM    H4G15601   3.932   6.960   7.071 -0.1547 -0.2452 -0.7379
  142OSM    C5F15602   4.033   6.906   7.269 -0.1709 -0.2668  0.1568
  142OSM    H5F15603   4.098   6.991   7.297  0.9168 -0.8824 -0.4455
  142OSM    H5G15604   4.089   6.812   7.286  0.4534  0.1720  0.5535
  142OSM    C6F15605   3.893   6.891   7.327  0.0160  0.6024  0.8520
  142OSM    H6F15606   3.835   6.816   7.269  0.9326  0.2632  0.3433
  142OSM    H6G15607   3.843   6.989   7.314  2.1201  1.6786  0.4653
  142OSM    C7F15608   3.898   6.844   7.474 -0.6538  1.0427 -0.8203
  142OSM    H7F15609   3.953   6.750   7.501 -1.7464  0.2336 -1.3312
  142OSM    H7G15610   3.792   6.823   7.500 -0.0431 -0.2898  0.7739
  142OSM    C8F15611   3.965   6.947   7.575 -0.4784  0.2133  0.3692
  142OSM    H8F15612   3.937   7.043   7.525 -1.3087 -1.5132 -2.7969
  142OSM    H8G15613   4.075   6.940   7.568 -0.6301 -0.9870 -1.7500
  142OSM    C9F15614   3.908   6.937   7.714  0.0832  0.3971 -0.4064
  142OSM    H9F15615   3.800   6.958   7.710  0.1541  2.0292  2.9138
  142OSM   C10F15616   3.960   6.906   7.836 -0.1137  0.2871 -0.0016
  142OSM   H10F15617   3.904   6.920   7.930  1.3464  1.9353  0.6953
  142OSM   C11F15618   4.107   6.868   7.853  0.6523 -0.1023 -0.0126
  142OSM   H11F15619   4.143   6.830   7.755 -1.2837 -1.0674 -0.4121
  142OSM   H11G15620   4.117   6.779   7.919 -1.4643 -1.9450 -1.9901
  142OSM   C12F15621   4.191   6.988   7.900 -0.3311  0.2120  0.5687
  142OSM   H12F15622   4.173   7.071   7.828 -1.1485 -0.0867  0.4163
  142OSM   H12G15623   4.299   6.965   7.893 -0.0080  1.8925 -0.6589
  142OSM   C13F15624   4.162   7.041   8.042  0.5633 -0.0786 -0.5977
  142OSM   H13F15625   4.064   7.092   8.028  0.1526 -0.6976 -0.0378
  142OSM   H13G15626   4.238   7.116   8.072 -0.2634  0.0047  1.4248
  142OSM   C14F15627   4.158   6.947   8.157 -0.3075 -0.0493  0.0197
  142OSM   H14F15628   4.090   6.859   8.143  0.8189 -0.9689  0.1932
  142OSM   H14G15629   4.117   7.002   8.245 -0.3761  0.6447 -0.4367
  142OSM   C15F15630   4.295   6.893   8.193  0.0685 -0.6649  0.0785
  142OSM   H15F15631   4.358   6.866   8.105 -0.2945  0.7768 -0.6624
  142OSM   H15G15632   4.298   6.810   8.267  0.4078  0.3085  1.1998
  142OSM   C16F15633   4.382   6.995   8.267 -0.3354  0.0092  0.3706
  142OSM   H16F15634   4.344   7.021   8.368  0.8659  0.0366  0.8309
  142OSM   H16G15635   4.399   7.087   8.207  0.6141  0.0259  0.6584
  142OSM   C17F15636   4.527   6.947   8.282 -0.3032  0.3951  0.4801
  142OSM   H17F15637   4.561   6.922   8.179  0.0622  1.9088  0.2069
  142OSM   H17G15638   4.522   6.855   8.344  1.8692 -0.4747 -0.5147
  142OSM   C18F15639   4.624   7.049   8.346 -0.3038  0.1024 -0.3507
  142OSM   H18F15640   4.725   7.003   8.352 -0.5550 -0.4367 -0.1204
  142OSM   H18G15641   4.600   7.077   8.451 -1.6241  1.3494 -0.9453
  142OSM   H18H15642   4.634   7.143   8.288 -0.8229 -0.0033 -0.6154
  143OSM      N15643   4.961   2.773   6.117  0.6996  0.0521 -0.0280
  143OSM    C1515644   5.069   2.683   6.070  0.4449  0.5398  1.0162
  143OSM   H15A15645   5.169   2.707   6.102 -0.2287  0.2538  3.4987
  143OSM   H15B15646   5.063   2.666   5.963 -1.9293 -0.4210  1.2361
  143OSM   H15C15647   5.041   2.589   6.115 -1.0837  1.3836  1.8900
  143OSM    C1415648   4.985   2.913   6.074 -0.4148 -0.4705  0.3972
  143OSM   H14A15649   5.060   2.951   6.141 -1.1118 -0.0599  0.9650
  143OSM   H14B15650   4.890   2.963   6.089 -1.6472 -2.7147  0.6514
  143OSM   H14C15651   5.008   2.915   5.968 -0.3232  0.1469  0.4280
  143OSM    C1315652   4.825   2.735   6.064  0.0228  0.6217  0.1630
  143OSM   H13A15653   4.741   2.793   6.098 -0.5732  0.6106 -1.2402
  143OSM   H13B15654   4.805   2.633   6.096  1.2402  0.8204  1.7377
  143OSM   H13C15655   4.821   2.731   5.957  2.3704  1.4970 -0.0227
  143OSM    C1215656   4.954   2.771   6.274 -0.2717  0.5733 -0.1217
  143OSM   H12A15657   4.891   2.847   6.317  1.2282  0.5087  2.3377
  143OSM   H12B15658   5.054   2.790   6.309  0.9818 -2.5670 -1.5528
  143OSM    C1115659   4.905   2.646   6.340  1.0485 -0.4112 -0.3632
  143OSM   H11A15660   4.798   2.634   6.313  1.3366 -2.2939 -0.8473
  143OSM   H11B15661   4.909   2.663   6.449  3.3106  1.2271 -0.6368
  143OSM      P15662   5.105   2.472   6.369 -0.3575 -0.1485  0.0199
  143OSM    O1315663   5.154   2.344   6.314  0.5401 -0.2540  0.2704
  143OSM    O1415664   5.203   2.583   6.371 -1.1716 -0.0730 -0.3026
  143OSM    O1115665   5.053   2.441   6.518 -0.0758 -0.6287  0.2816
  143OSM    O1215666   4.965   2.518   6.300 -0.0470 -0.0202  0.8716
  143OSM    C1S15667   5.147   2.445   6.626 -0.1635 -0.2093  0.5044
  143OSM    H1S15668   5.171   2.550   6.651 -1.9584  0.6790 -1.2737
  143OSM    H1T15669   5.241   2.389   6.604 -0.2390 -0.1662  0.0697
  143OSM     NF15670   5.176   2.410   6.872  0.4635  0.6040  0.2009
  143OSM    HNF15671   5.260   2.356   6.870 -1.0845 -1.9731 -1.4041
  143OSM    C2S15672   5.085   2.384   6.756 -0.5025 -0.0718 -0.7145
  143OSM    H2S15673   4.989   2.433   6.782  0.3188  1.3235 -0.1576
  143OSM    C3S15674   5.063   2.231   6.726 -0.1522  0.3868  0.3859
  143OSM    H3S15675   5.162   2.193   6.693  0.4055  1.2463  1.0140
  143OSM     O315676   4.968   2.206   6.621 -0.1038 -0.2104 -0.3976
  143OSM    HO315677   4.956   2.289   6.575 -0.1548  0.0822  0.1311
  143OSM    C4S15678   5.022   2.174   6.859 -0.1463 -0.2782  0.3363
  143OSM    H4S15679   4.934   2.223   6.903  1.1002  1.4143  1.0456
  143OSM    C5S15680   5.086   2.078   6.931  0.0789 -0.3273  0.0812
  143OSM    H5S15681   5.175   2.032   6.885 -0.9084  0.0911 -2.4650
  143OSM    C6S15682   5.056   2.028   7.074 -0.4552  0.0422 -0.1101
  143OSM    H6S15683   5.014   1.925   7.069  1.1188 -0.6545  0.4873
  143OSM    H6T15684   4.971   2.094   7.101 -0.2769 -0.1479  0.9752
  143OSM    C7S15685   5.170   2.027   7.173  0.5438  0.3312 -0.1771
  143OSM    H7S15686   5.268   2.005   7.125  1.0739 -0.4086  1.2089
  143OSM    H7T15687   5.162   1.940   7.242  0.7200  1.9140  1.9542
  143OSM    C8S15688   5.180   2.151   7.260  0.1314 -0.7274 -0.1281
  143OSM    H8S15689   5.086   2.168   7.317 -0.4613  0.0685 -1.2966
  143OSM    H8T15690   5.199   2.244   7.203 -0.8761 -2.4067 -3.5227
  143OSM    C9S15691   5.295   2.139   7.366 -0.4541 -0.6310 -0.2412
  143OSM    H9S15692   5.390   2.132   7.308 -0.9003 -0.3483 -1.0186
  143OSM    H9T15693   5.282   2.048   7.428  1.5396 -0.8781 -0.1200
  143OSM   C10S15694   5.312   2.261   7.452  0.2189  0.3398 -0.1957
  143OSM   H10S15695   5.231   2.261   7.529  1.4963  2.5400  1.2757
  143OSM   H10T15696   5.302   2.338   7.373  2.9926 -1.2264 -2.2525
  143OSM   C11S15697   5.449   2.270   7.516  0.5331  0.4663 -0.1815
  143OSM   H11S15698   5.455   2.375   7.552  0.5826  0.5297 -0.3772
  143OSM   H11T15699   5.524   2.245   7.438  1.4856  3.0593 -0.2031
  143OSM   C12S15700   5.462   2.184   7.645  0.6298  0.2300 -0.0480
  143OSM   H12S15701   5.571   2.185   7.664  0.5482 -1.2510  0.6247
  143OSM   H12T15702   5.447   2.076   7.625 -1.6542  0.4505  0.1802
  143OSM   C13S15703   5.363   2.211   7.762 -1.7544 -0.1905  0.3444
  143OSM   H13S15704   5.269   2.153   7.750 -0.5674 -1.7193 -2.3750
  143OSM   H13T15705   5.349   2.321   7.771 -0.8994  0.0809 -1.2679
  143OSM   C14S15706   5.422   2.166   7.907 -0.3452 -0.3834  0.9474
  143OSM   H14S15707   5.517   2.223   7.920 -0.4265 -0.2145  0.8056
  143OSM   H14T15708   5.438   2.057   7.902  0.9675 -0.2054  0.8995
  143OSM   C15S15709   5.332   2.210   8.015  0.0129  0.0735 -0.3846
  143OSM   H15S15710   5.225   2.192   7.993 -0.5047  0.9367  1.2820
  143OSM   H15T15711   5.340   2.320   8.025 -0.1724 -0.0111  0.8564
  143OSM   C16S15712   5.355   2.162   8.162 -0.4236  0.9218  0.5685
  143OSM   H16S15713   5.466   2.162   8.167 -0.2876 -0.2928 -1.3314
  143OSM   H16T15714   5.327   2.055   8.177 -2.4892  0.8640 -2.6508
  143OSM   C17S15715   5.295   2.249   8.273  0.2316 -0.6905 -0.2597
  143OSM   H17S15716   5.185   2.234   8.270  0.2082 -0.4101 -1.0035
  143OSM   H17T15717   5.308   2.354   8.237 -0.8804 -0.3880  0.1706
  143OSM   C18S15718   5.353   2.230   8.409 -0.4312 -0.4637 -0.0628
  143OSM   H18S15719   5.460   2.254   8.390 -1.0244  2.2448 -0.4744
  143OSM   H18T15720   5.338   2.126   8.444 -0.6508 -0.5209 -0.3266
  143OSM   H18U15721   5.303   2.295   8.484 -1.0721  0.6123 -1.3677
  143OSM    C1F15722   5.173   2.519   6.937  0.4814 -0.2199  0.3081
  143OSM     OF15723   5.089   2.604   6.917  0.4233  0.5033  0.8025
  143OSM    C2F15724   5.267   2.533   7.048 -0.3069 -0.0721  0.2578
  143OSM    H2F15725   5.369   2.561   7.011  1.3239 -2.4855  2.5947
  143OSM    H2G15726   5.267   2.436   7.102 -0.9673  0.2890  0.9127
  143OSM    C3F15727   5.229   2.653   7.139  0.1295 -0.7423  0.1651
  143OSM    H3F15728   5.127   2.635   7.179  0.5004 -0.2896  1.3633
  143OSM    H3G15729   5.225   2.745   7.076  3.1419 -0.3843  0.3452
  143OSM    C4F15730   5.307   2.686   7.257 -0.9520 -0.5677  0.1458
  143OSM    H4F15731   5.407   2.717   7.220 -1.5640  2.4273  0.7474
  143OSM    H4G15732   5.325   2.592   7.314 -0.5750 -1.5032 -1.4638
  143OSM    C5F15733   5.240   2.799   7.326  0.5543 -0.8046  0.2541
  143OSM    H5F15734   5.131   2.787   7.341  0.2187  0.6617 -0.7755
  143OSM    H5G15735   5.253   2.895   7.271 -1.9079 -0.3123  0.4335
  143OSM    C6F15736   5.298   2.813   7.471 -0.0656 -1.1067  0.3427
  143OSM    H6F15737   5.266   2.913   7.509  2.6334  1.0977 -2.6312
  143OSM    H6G15738   5.409   2.807   7.460 -0.0736 -0.4199 -0.1926
  143OSM    C7F15739   5.240   2.703   7.552 -0.0932  0.0234 -0.2526
  143OSM    H7F15740   5.257   2.602   7.508  2.2159 -0.4149  1.4571
  143OSM    H7G15741   5.129   2.717   7.555  0.0311  1.6475 -1.4770
  143OSM    C8F15742   5.298   2.705   7.697 -0.3299  0.2622  0.1025
  143OSM    H8F15743   5.408   2.714   7.681 -0.5009  1.7791 -0.4115
  143OSM    H8G15744   5.274   2.609   7.747  0.3352  0.3617  0.6372
  143OSM    C9F15745   5.232   2.816   7.781  0.1574 -0.7035  0.6659
  143OSM    H9F15746   5.159   2.889   7.744  1.5168  1.5762  2.2112
  143OSM   C10F15747   5.247   2.816   7.913 -0.2586  0.2732  0.1743
  143OSM   H10F15748   5.198   2.901   7.963 -2.7470 -0.0055 -1.5775
  143OSM   C11F15749   5.325   2.716   7.995  0.3142 -0.4154  0.2320
  143OSM   H11F15750   5.409   2.672   7.937  1.1451  1.1191  0.2285
  143OSM   H11G15751   5.253   2.634   8.015 -2.0677  1.3308 -0.7136
  143OSM   C12F15752   5.378   2.780   8.122  0.1454  0.3188 -0.2410
  143OSM   H12F15753   5.290   2.817   8.179  0.0255 -1.6352  0.9480
  143OSM   H12G15754   5.442   2.868   8.099  2.9788 -0.4280  3.8079
  143OSM   C13F15755   5.445   2.677   8.205 -0.0056 -0.4284 -0.2790
  143OSM   H13F15756   5.543   2.660   8.155  0.2210 -0.9202  0.3161
  143OSM   H13G15757   5.389   2.583   8.226 -0.1223 -0.0954  0.9638
  143OSM   C14F15758   5.473   2.728   8.347  0.6892  0.3171 -1.2308
  143OSM   H14F15759   5.371   2.742   8.390  0.9860 -2.0926  0.4300
  143OSM   H14G15760   5.533   2.822   8.344  2.8256 -0.9737 -0.7286
  143OSM   C15F15761   5.534   2.632   8.451  0.4827  0.2573  0.2470
  143OSM   H15F15762   5.628   2.585   8.413 -0.0453 -0.1247 -0.6357
  143OSM   H15G15763   5.459   2.552   8.470  1.0410 -0.4112 -0.3007
  143OSM   C16F15764   5.564   2.707   8.589  0.5184 -0.0538 -0.4083
  143OSM   H16F15765   5.467   2.751   8.618  0.1250 -1.5971  0.8139
  143OSM   H16G15766   5.644   2.783   8.577  1.3564 -1.1065 -1.7475
  143OSM   C17F15767   5.605   2.608   8.695  0.0023 -0.6532  0.0553
  143OSM   H17F15768   5.704   2.567   8.666 -1.5776 -3.2616 -2.2777
  143OSM   H17G15769   5.533   2.524   8.709  0.7403 -0.8919  3.0583
  143OSM   C18F15770   5.614   2.672   8.842 -0.4373 -0.2084  0.8088
  143OSM   H18F15771   5.646   2.778   8.836  1.3478 -0.7865 -2.1215
  143OSM   H18G15772   5.679   2.608   8.906 -1.2931 -1.4640  0.4796
  143OSM   H18H15773   5.508   2.671   8.877 -0.2359  1.0318  1.5140
  144OSM      N15774   5.216   1.935   6.433 -0.0235 -0.3382 -0.2902
  144OSM    C1515775   5.242   2.085   6.398 -0.1687  0.2798  1.3073
  144OSM   H15A15776   5.163   2.123   6.335  1.3108  3.0331  0.9763
  144OSM   H15B15777   5.335   2.093   6.344 -0.8059  1.0636  0.2843
  144OSM   H15C15778   5.257   2.146   6.485  3.3660  0.1666  0.9516
  144OSM    C1415779   5.089   1.926   6.508 -0.0068 -1.2834 -0.4239
  144OSM   H14A15780   5.014   1.930   6.431  1.4668 -2.7150 -2.0143
  144OSM   H14B15781   5.076   2.006   6.580 -1.6043 -3.0088  1.3449
  144OSM   H14C15782   5.082   1.834   6.565  0.3001 -0.1987  1.4450
  144OSM    C1315783   5.202   1.859   6.312 -0.0307 -0.1955 -0.1577
  144OSM   H13A15784   5.298   1.861   6.262 -1.0365 -1.4075 -2.2451
  144OSM   H13B15785   5.132   1.903   6.243 -1.3787 -2.3367 -0.2233
  144OSM   H13C15786   5.170   1.757   6.327 -0.1232 -0.1649 -0.1518
  144OSM    C1215787   5.335   1.888   6.519 -0.2174 -0.7441 -0.4045
  144OSM   H12A15788   5.322   1.785   6.549  0.0516  0.0699  2.9964
  144OSM   H12B15789   5.320   1.941   6.612  0.9346 -1.1217  0.0058
  144OSM    C1115790   5.482   1.904   6.469 -0.5413 -0.3196  0.3123
  144OSM   H11A15791   5.504   1.832   6.388 -0.8226 -0.8067  0.6681
  144OSM   H11B15792   5.557   1.883   6.549  0.0536  2.4641  0.6066
  144OSM      P15793   5.653   2.069   6.355  0.4677  0.4347 -0.6269
  144OSM    O1315794   5.673   1.963   6.255  0.6417  0.0083 -0.1904
  144OSM    O1415795   5.662   2.205   6.307  0.5637  0.3672 -0.4505
  144OSM    O1115796   5.740   2.046   6.480 -0.4945 -0.1041  0.7369
  144OSM    O1215797   5.510   2.036   6.416  0.1883 -0.1712  0.2872
  144OSM    C1S15798   5.735   2.135   6.590  0.5390 -0.5172  0.3542
  144OSM    H1S15799   5.645   2.114   6.652 -0.4989 -1.0558 -1.2917
  144OSM    H1T15800   5.732   2.238   6.549  1.0247 -1.0801 -1.1582
  144OSM     NF15801   5.865   2.240   6.770  0.4075  0.4625 -0.8806
  144OSM    HNF15802   5.931   2.314   6.757  0.0570  0.5429 -2.3531
  144OSM    C2S15803   5.862   2.127   6.675 -0.8465  0.0831  0.1492
  144OSM    H2S15804   5.859   2.031   6.730 -0.8496 -1.7135 -2.7412
  144OSM    C3S15805   5.998   2.110   6.593 -0.4186  0.9254  0.2262
  144OSM    H3S15806   6.019   2.203   6.536 -1.8644 -0.3984 -2.6753
  144OSM     O315807   6.001   2.021   6.482  0.1838 -0.9578  0.0132
  144OSM    HO315808   5.909   1.993   6.476  0.3270 -1.5402  0.3963
  144OSM    C4S15809   6.105   2.082   6.693 -0.2066 -0.2652  0.3613
  144OSM    H4S15810   6.158   2.173   6.725  1.8317 -0.9963 -0.7870
  144OSM    C5S15811   6.145   1.963   6.748  0.3301 -0.9016 -0.1403
  144OSM    H5S15812   6.092   1.874   6.712 -0.2476 -0.7847  0.4033
  144OSM    C6S15813   6.253   1.946   6.850 -0.6378 -0.3704  0.0114
  144OSM    H6S15814   6.310   2.038   6.877  0.5295 -0.4892 -1.8788
  144OSM    H6T15815   6.324   1.868   6.816 -0.9439 -0.3331 -0.7348
  144OSM    C7S15816   6.204   1.890   6.984 -0.2660 -1.2285 -0.3125
  144OSM    H7S15817   6.150   1.794   6.970 -0.6372 -0.8854 -1.2854
  144OSM    H7T15818   6.156   1.969   7.045 -1.0253 -1.0729 -1.0905
  144OSM    C8S15819   6.329   1.847   7.063  0.2022  0.1387  0.2801
  144OSM    H8S15820   6.402   1.930   7.049  0.6503 -0.2470  0.3170
  144OSM    H8T15821   6.378   1.764   7.009 -2.6171 -0.7802 -1.0091
  144OSM    C9S15822   6.310   1.811   7.212  0.5818 -0.2494  0.7688
  144OSM    H9S15823   6.258   1.716   7.238  0.8775 -0.8364 -0.7406
  144OSM    H9T15824   6.240   1.893   7.241  2.0195  0.7001  1.6572
  144OSM   C10S15825   6.428   1.829   7.308  0.0338 -0.1803  0.0502
  144OSM   H10S15826   6.472   1.927   7.278 -0.2580 -0.6329 -2.0609
  144OSM   H10T15827   6.508   1.756   7.284 -0.0033 -0.4514  0.7484
  144OSM   C11S15828   6.393   1.820   7.455  0.1799 -0.3443  0.4588
  144OSM   H11S15829   6.357   1.717   7.475 -0.2674 -0.3413 -0.2768
  144OSM   H11T15830   6.307   1.889   7.473  0.9555  0.4952  1.0937
  144OSM   C12S15831   6.506   1.848   7.549  0.3368 -0.3263 -0.8850
  144OSM   H12S15832   6.554   1.946   7.528  0.0296 -0.4363 -2.1725
  144OSM   H12T15833   6.577   1.763   7.541  1.2290  0.0390  1.8875
  144OSM   C13S15834   6.458   1.840   7.696  0.0237  0.3901  0.6080
  144OSM   H13S15835   6.406   1.742   7.711 -2.1020  1.1539 -1.2740
  144OSM   H13T15836   6.382   1.920   7.710 -3.4561 -2.6712  1.1135
  144OSM   C14S15837   6.581   1.854   7.784  0.3013  0.1243 -0.1843
  144OSM   H14S15838   6.641   1.940   7.748  1.5715 -1.5780 -2.3866
  144OSM   H14T15839   6.631   1.755   7.786 -2.0099 -1.1187  0.3488
  144OSM   C15S15840   6.531   1.883   7.928  0.2836  0.0704 -0.3137
  144OSM   H15S15841   6.454   1.808   7.958 -0.3044  1.2816  1.3292
  144OSM   H15T15842   6.489   1.986   7.926  0.3835  0.1231 -2.4030
  144OSM   C16S15843   6.656   1.883   8.014 -0.1470 -0.2985  0.0355
  144OSM   H16S15844   6.716   1.961   7.964  0.3890 -0.8863 -0.2537
  144OSM   H16T15845   6.720   1.792   8.019  0.7453  0.2366 -1.2511
  144OSM   C17S15846   6.633   1.943   8.163  0.1664 -0.0088  0.2841
  144OSM   H17S15847   6.550   1.879   8.200 -0.0551 -0.0015 -0.1880
  144OSM   H17T15848   6.583   2.041   8.143  1.8813  0.9334  0.4611
  144OSM   C18S15849   6.753   1.945   8.253 -0.1429  0.3216  0.1758
  144OSM   H18S15850   6.726   1.958   8.360  1.2602  0.4168  0.5393
  144OSM   H18T15851   6.820   2.030   8.230 -1.7735  1.4132 -0.6991
  144OSM   H18U15852   6.810   1.852   8.232 -0.8996  0.3633 -2.4889
  144OSM    C1F15853   5.771   2.249   6.866 -0.6434  0.4258  0.5166
  144OSM     OF15854   5.679   2.169   6.873  0.0941 -1.1840 -0.4034
  144OSM    C2F15855   5.789   2.366   6.963  0.1184  0.3017  0.2239
  144OSM    H2F15856   5.824   2.451   6.902  1.4453 -2.4273 -3.1328
  144OSM    H2G15857   5.870   2.340   7.035  0.9120  2.3816  0.1465
  144OSM    C3F15858   5.663   2.398   7.044  0.1962 -0.0093  0.2373
  144OSM    H3F15859   5.616   2.304   7.079  0.0967 -0.2726 -0.5829
  144OSM    H3G15860   5.589   2.443   6.973 -1.1240 -1.2177  0.7949
  144OSM    C4F15861   5.683   2.499   7.159  0.1483  0.5618  0.3103
  144OSM    H4F15862   5.741   2.450   7.240  1.9195  1.4532 -0.3526
  144OSM    H4G15863   5.585   2.527   7.203 -0.2962  0.3623 -0.5317
  144OSM    C5F15864   5.747   2.630   7.123 -0.9570 -0.7807  0.2385
  144OSM    H5F15865   5.679   2.688   7.058  0.4035 -0.6247 -1.1191
  144OSM    H5G15866   5.829   2.605   7.051 -1.1409 -0.9693  0.0941
  144OSM    C6F15867   5.807   2.718   7.243 -0.1498  0.2457  0.2889
  144OSM    H6F15868   5.845   2.816   7.208  1.8989  0.3815  2.6060
  144OSM    H6G15869   5.890   2.652   7.276 -0.6392 -1.9046 -2.4169
  144OSM    C7F15870   5.711   2.751   7.359 -0.0415  0.6037 -0.3148
  144OSM    H7F15871   5.675   2.651   7.392  1.8213 -0.2217 -0.6806
  144OSM    H7G15872   5.626   2.806   7.312 -1.4370 -1.3933 -0.2592
  144OSM    C8F15873   5.780   2.825   7.473 -0.4871 -0.5578  0.2959
  144OSM    H8F15874   5.709   2.868   7.546  0.1656 -0.8444  1.1082
  144OSM    H8G15875   5.833   2.910   7.426 -1.4218 -1.3310 -2.3528
  144OSM    C9F15876   5.880   2.727   7.539 -0.1893 -0.7453  0.5978
  144OSM    H9F15877   5.982   2.742   7.502 -0.8348  1.2791 -0.5883
  144OSM   C10F15878   5.859   2.666   7.656 -0.5787  0.0291  0.2681
  144OSM   H10F15879   5.920   2.581   7.688 -0.2654 -0.7353 -2.1378
  144OSM   C11F15880   5.718   2.674   7.728 -0.7058 -0.0978 -0.3480
  144OSM   H11F15881   5.652   2.602   7.676  1.1039 -1.7878 -0.4411
  144OSM   H11G15882   5.672   2.775   7.715 -1.4765 -0.5069 -0.8566
  144OSM   C12F15883   5.735   2.644   7.880  0.4246 -0.1233 -0.1431
  144OSM   H12F15884   5.639   2.662   7.932  0.3851 -1.2306  0.1937
  144OSM   H12G15885   5.808   2.720   7.916 -1.1591  0.4819  2.0329
  144OSM   C13F15886   5.770   2.501   7.908  0.3215 -0.3748  0.5927
  144OSM   H13F15887   5.875   2.495   7.871 -0.2527  0.6862 -1.3157
  144OSM   H13G15888   5.703   2.434   7.850  0.4457 -2.1641  2.4023
  144OSM   C14F15889   5.752   2.462   8.052  0.0046  0.8333 -0.6876
  144OSM   H14F15890   5.645   2.470   8.083  0.1762 -1.0491  0.5569
  144OSM   H14G15891   5.793   2.544   8.114 -0.2478 -0.0845  0.7404
  144OSM   C15F15892   5.817   2.326   8.097 -0.0348  0.1682  0.4489
  144OSM   H15F15893   5.927   2.345   8.097  0.1702 -0.3816  3.7159
  144OSM   H15G15894   5.776   2.252   8.025 -0.6101 -0.8817  1.7898
  144OSM   C16F15895   5.792   2.307   8.250  0.5953 -0.4576  0.1476
  144OSM   H16F15896   5.831   2.206   8.278 -0.5736 -0.9401  0.0885
  144OSM   H16G15897   5.683   2.307   8.271  0.8824 -0.9211  1.7682
  144OSM   C17F15898   5.858   2.417   8.338  0.2690 -0.0893  0.4393
  144OSM   H17F15899   5.815   2.518   8.322  1.1614  0.0139 -1.6664
  144OSM   H17G15900   5.966   2.420   8.310  0.3381  1.4752  0.8209
  144OSM   C18F15901   5.848   2.396   8.491 -0.8497 -0.2579 -0.2411
  144OSM   H18F15902   5.891   2.482   8.545  0.5896 -1.5178  0.7173
  144OSM   H18G15903   5.912   2.309   8.519 -0.0881  0.1667 -0.6398
  144OSM   H18H15904   5.740   2.374   8.508 -1.4144 -0.9372 -3.8309
  145SAPE     N15905   4.468   6.499  10.864  0.1841  0.4595 -0.1008
  145SAPE   HN115906   4.506   6.403  10.855  0.1239  0.5436 -1.5203
  145SAPE   HN215907   4.468   6.535  10.962  3.3673  0.7629 -0.0976
  145SAPE   HN315908   4.370   6.492  10.831 -0.4727 -0.0366  1.8156
  145SAPE   C1215909   4.543   6.604  10.784 -0.2758 -0.1694 -0.0965
  145SAPE  H12A15910   4.594   6.667  10.859 -1.5108  0.3457  0.3291
  145SAPE  H12B15911   4.482   6.673  10.722  1.2105  1.6048  0.3271
  145SAPE   C1115912   4.639   6.521  10.696  0.0807  0.6189  0.0511
  145SAPE  H11A15913   4.701   6.599  10.648  0.5503 -0.7715 -1.7216
  145SAPE  H11B15914   4.605   6.447  10.621  1.4258 -1.7319  1.6039
  145SAPE     P15915   4.864   6.385  10.724 -0.3247 -0.3357  0.1584
  145SAPE   O1315916   4.976   6.375  10.821 -0.2810 -0.0144 -0.3884
  145SAPE   O1415917   4.829   6.264  10.651 -0.4378  0.3890 -0.0257
  145SAPE   O1215918   4.732   6.449  10.785  0.0607 -0.2002 -0.1875
  145SAPE   O1115919   4.925   6.491  10.617 -0.0185 -0.3410  0.3494
  145SAPE    C115920   4.892   6.479  10.474  0.2538 -0.1113  0.3392
  145SAPE    HA15921   4.790   6.441  10.452  0.7678 -0.7636 -1.0509
  145SAPE    HB15922   4.883   6.583  10.438 -2.1613 -0.5247 -0.4426
  145SAPE    C215923   4.998   6.418  10.378  0.2868 -0.1829 -0.4726
  145SAPE    HS15924   4.950   6.423  10.278 -1.3965  0.4729  0.3214
  145SAPE   O2115925   5.034   6.286  10.418  0.1011  0.3972  0.2521
  145SAPE   C2115926   4.936   6.195  10.377  0.5744  0.3424  0.5193
  145SAPE   O2215927   4.829   6.228  10.327 -0.4235 -0.4641 -0.1388
  145SAPE   C2215928   4.975   6.050  10.415  0.0184 -0.6066 -0.0244
  145SAPE   H2R15929   5.070   6.021  10.364 -0.3320 -1.9889  0.0747
  145SAPE   H2S15930   4.998   6.056  10.523  0.1881 -0.1516 -0.0832
  145SAPE    C315931   5.135   6.490  10.364 -0.4473 -1.1259  0.5818
  145SAPE    HX15932   5.218   6.421  10.339  0.5837  0.7348 -1.4461
  145SAPE    HY15933   5.153   6.515  10.471 -0.2841  1.2361  0.0430
  145SAPE   O3115934   5.143   6.611  10.285 -0.3780 -0.1513 -0.1126
  145SAPE   C3115935   5.131   6.589  10.155 -0.1744 -0.2228  0.3070
  145SAPE   O3215936   5.128   6.478  10.106 -0.2222 -0.0103 -0.5117
  145SAPE   C3215937   5.139   6.720  10.080 -0.4927  0.0515  0.4017
  145SAPE   H2X15938   5.213   6.789  10.126  0.2891  1.0945 -2.2797
  145SAPE   H2Y15939   5.042   6.774  10.079  0.1581  1.2553  0.1559
  145SAPE   C2315940   4.867   5.950  10.395  0.2745 -0.0580 -0.4189
  145SAPE   H3R15941   4.764   5.986  10.416  0.2998 -0.0332 -0.3363
  145SAPE   H3S15942   4.896   5.863  10.458 -2.2396 -2.0252 -1.7918
  145SAPE   C2415943   4.872   5.876  10.260  0.3254  0.1852  0.3809
  145SAPE   H4R15944   4.976   5.838  10.245  0.3669  0.2672  0.4580
  145SAPE   H4S15945   4.859   5.957  10.184 -0.9957 -0.9086 -0.6116
  145SAPE   C2515946   4.762   5.766  10.246  0.5838 -0.1375  0.4195
  145SAPE   H5R15947   4.729   5.736  10.346  0.4585 -0.5065  0.2684
  145SAPE   C2615948   4.711   5.706  10.136  0.7121  0.2726  0.1640
  145SAPE   H6R15949   4.638   5.625  10.152 -2.3351  1.7578 -4.3163
  145SAPE   C2715950   4.750   5.729   9.991 -0.2518  0.4998 -0.3168
  145SAPE   H7R15951   4.860   5.733   9.982 -0.2759 -1.5462 -2.3944
  145SAPE   H7S15952   4.713   5.831   9.966  1.9877  1.2039 -0.9526
  145SAPE   C2815953   4.690   5.638   9.886 -0.4110 -0.0351  0.1495
  145SAPE   H8R15954   4.637   5.544   9.911 -0.8347 -0.8934 -3.4482
  145SAPE   C2915955   4.718   5.657   9.759  0.4221 -0.0333  0.5743
  145SAPE   H9R15956   4.664   5.591   9.690 -1.8837  1.9261  0.3710
  145SAPE  C21015957   4.803   5.760   9.678 -0.2522  0.2726 -0.1895
  145SAPE  H10R15958   4.883   5.805   9.740 -0.8161  2.2943 -0.8302
  145SAPE  H10S15959   4.736   5.847   9.657 -0.1832 -0.1846 -2.6101
  145SAPE  C21115960   4.857   5.703   9.552 -0.3798 -0.5168 -0.2525
  145SAPE  H11R15961   4.966   5.687   9.547 -0.2555  0.6344 -2.1840
  145SAPE  C21215962   4.795   5.678   9.436  0.0847 -0.2168  0.0808
  145SAPE  H12R15963   4.851   5.629   9.354 -1.6330 -0.7929 -0.8093
  145SAPE  C21315964   4.647   5.697   9.411 -0.9557 -0.4016 -0.3852
  145SAPE  H13R15965   4.586   5.682   9.503 -1.9461  0.5037 -0.8728
  145SAPE  H13S15966   4.621   5.614   9.342 -1.3718 -1.7039  1.2798
  145SAPE  C21415967   4.595   5.822   9.346  0.4094 -0.2882  0.4741
  145SAPE  H14R15968   4.622   5.905   9.412  0.9073  0.2447 -0.3792
  145SAPE  C21515969   4.535   5.835   9.223 -0.3660 -0.7856  0.5574
  145SAPE  H15R15970   4.490   5.930   9.191  1.3496 -0.9083 -2.5790
  145SAPE  C21615971   4.491   5.727   9.128  0.0899  0.3667 -0.1950
  145SAPE  H16R15972   4.465   5.630   9.175 -1.5632  0.0546 -1.6557
  145SAPE  H16S15973   4.576   5.690   9.067  0.0940 -1.1179  0.6729
  145SAPE  C21715974   4.386   5.752   9.028  0.6213 -0.1751  0.1969
  145SAPE  H17R15975   4.428   5.826   8.957 -1.4129 -1.0373 -2.0431
  145SAPE  H17S15976   4.294   5.795   9.072 -0.8438 -1.3604 -1.5675
  145SAPE  C21815977   4.346   5.627   8.944 -0.6260  0.4125 -0.2363
  145SAPE  H18R15978   4.306   5.552   9.016  0.5743  1.5888  1.7473
  145SAPE  H18S15979   4.442   5.589   8.902  1.0360  1.8167  2.0430
  145SAPE  C21915980   4.254   5.661   8.818  0.0781  0.7989 -0.2726
  145SAPE  H19R15981   4.206   5.568   8.781 -2.1610  2.2992 -1.3329
  145SAPE  H19S15982   4.309   5.706   8.732  2.3447 -0.1621  0.5828
  145SAPE  C22015983   4.148   5.758   8.852  0.2063 -0.0762  0.2739
  145SAPE  H20R15984   4.179   5.862   8.872  1.1794 -0.6450  1.9083
  145SAPE  H20S15985   4.085   5.723   8.937 -1.8548  0.3274 -1.0019
  145SAPE  H20T15986   4.077   5.756   8.766 -0.7737 -0.0551  1.0685
  145SAPE   C3315987   5.180   6.705   9.935  0.0356 -0.1635  0.7158
  145SAPE   H3X15988   5.106   6.633   9.894 -0.4674  0.7169  0.0294
  145SAPE   H3Y15989   5.283   6.664   9.921 -0.2064 -0.3704 -0.6206
  145SAPE   C3415990   5.172   6.830   9.854  0.8387 -0.4043  0.6910
  145SAPE   H4X15991   5.229   6.909   9.908  0.5052 -1.5359  2.8450
  145SAPE   H4Y15992   5.070   6.871   9.838  1.4884  1.0434  0.0968
  145SAPE   C3515993   5.240   6.808   9.710 -0.4589 -0.0917  0.4640
  145SAPE   H5X15994   5.342   6.764   9.718 -0.4636  0.1258  1.9996
  145SAPE   H5Y15995   5.255   6.910   9.669  1.5560  0.1311  1.5967
  145SAPE   C3615996   5.159   6.721   9.626  0.9422  0.1366  0.5324
  145SAPE   H6X15997   5.052   6.750   9.634  0.2681 -2.4404  2.5963
  145SAPE   H6Y15998   5.162   6.616   9.665  1.5527 -0.1788 -0.3312
  145SAPE   C3715999   5.199   6.726   9.477  0.3674 -0.5527  0.0624
  145SAPE   H7X16000   5.308   6.703   9.481  0.7124  1.0416  2.3561
  145SAPE   H7Y16001   5.182   6.828   9.436  0.1861 -1.2651 -1.7283
  145SAPE   C3816002   5.120   6.639   9.372  0.0310 -0.2886  0.1174
  145SAPE   H8X16003   5.012   6.658   9.392  0.3438  0.3062  1.3841
  145SAPE   H8Y16004   5.133   6.531   9.397  0.8479 -0.2604 -0.1725
  145SAPE   C3916005   5.157   6.673   9.228 -0.5711  0.3159 -0.2317
  145SAPE   H9X16006   5.126   6.777   9.206 -2.5623  0.2204  1.7287
  145SAPE   H9Y16007   5.101   6.605   9.160  1.9589 -2.4353  0.2352
  145SAPE  C31016008   5.302   6.646   9.186  0.1343  0.0411  0.1125
  145SAPE  H10X16009   5.328   6.553   9.240  0.5561  1.5578  2.7439
  145SAPE  H10Y16010   5.368   6.728   9.222  1.2881 -0.3876 -0.9766
  145SAPE  C31116011   5.309   6.626   9.026 -0.8938 -0.1487 -0.6942
  145SAPE  H11X16012   5.254   6.710   8.978 -0.0744  0.9551  0.2333
  145SAPE  H11Y16013   5.262   6.528   9.001  2.9457 -1.6838 -2.6529
  145SAPE  C31216014   5.457   6.603   8.985 -0.1088  0.1628 -0.3134
  145SAPE  H12X16015   5.501   6.507   9.021  1.1061 -0.3954 -3.0359
  145SAPE  H12Y16016   5.513   6.691   9.024 -0.6846  0.3327  0.1431
  145SAPE  C31316017   5.479   6.594   8.833 -0.4932 -0.0976 -0.5643
  145SAPE  H13X16018   5.588   6.584   8.815 -0.4985 -0.2887 -0.4865
  145SAPE  H13Y16019   5.433   6.675   8.772 -2.9278  0.8744  2.3168
  145SAPE  C31416020   5.421   6.469   8.768 -0.2246 -0.1788  0.0712
  145SAPE  H14X16021   5.311   6.487   8.769 -0.1705  0.2582 -0.6034
  145SAPE  H14Y16022   5.440   6.379   8.829 -0.4263 -0.8298 -0.7966
  145SAPE  C31516023   5.480   6.446   8.630  0.0347  0.2326  0.3379
  145SAPE  H15X16024   5.590   6.435   8.630  0.3103  2.5258  1.0019
  145SAPE  H15Y16025   5.460   6.539   8.573 -1.9433 -0.1006  0.4015
  145SAPE  C31616026   5.409   6.321   8.567  0.7440 -0.2132 -0.6858
  145SAPE  H16X16027   5.304   6.357   8.557  1.1345  0.6797 -1.7342
  145SAPE  H16Y16028   5.421   6.231   8.632 -1.3660  0.5747  0.9187
  145SAPE  C31716029   5.458   6.269   8.440  0.4368 -0.0398  0.7819
  145SAPE  H17X16030   5.390   6.183   8.422 -0.2816  0.7270 -0.3163
  145SAPE  H17Y16031   5.561   6.229   8.446 -0.0932 -1.4662  0.8400
  145SAPE  C31816032   5.446   6.367   8.319  0.0251  0.1558  0.1503
  145SAPE  H18X16033   5.515   6.450   8.344  0.3342  0.8850 -2.7730
  145SAPE  H18Y16034   5.343   6.404   8.298  0.1027  0.1208 -0.2959
  145SAPE  H18Z16035   5.483   6.319   8.226  0.3218 -0.0649  0.3799
  146SAPE     N16036   0.388   0.518  11.022  0.2312 -0.1769  0.2388
  146SAPE   HN116037   0.373   0.416  11.012  2.1522 -0.3618 -1.3522
  146SAPE   HN216038   0.445   0.542  11.106  0.5751 -1.6571  0.4532
  146SAPE   HN316039   0.292   0.555  11.033 -1.2751 -3.0531 -1.8607
  146SAPE   C1216040   0.457   0.575  10.906 -0.1795 -0.3187  0.7079
  146SAPE  H12A16041   0.442   0.685  10.908  1.5889 -0.0429  0.3729
  146SAPE  H12B16042   0.392   0.548  10.820 -0.1491  0.1840  0.5243
  146SAPE   C1116043   0.606   0.545  10.912  0.1978  0.0561 -0.6030
  146SAPE  H11A16044   0.649   0.568  10.812  0.3974 -0.8968 -0.7464
  146SAPE  H11B16045   0.613   0.435  10.928  0.1753  0.2196  0.6549
  146SAPE     P16046   0.717   0.767  11.003  0.0461 -0.1195  0.1643
  146SAPE   O1316047   0.596   0.852  10.994 -0.1863 -0.4712  0.4468
  146SAPE   O1416048   0.811   0.796  11.114 -0.7038  0.3913  0.3962
  146SAPE   O1216049   0.668   0.620  11.024 -0.0176 -0.1935  0.7674
  146SAPE   O1116050   0.787   0.764  10.860 -0.0489 -0.1247  0.7996
  146SAPE    C116051   0.892   0.689  10.805 -0.1058  0.4042 -0.3536
  146SAPE    HA16052   0.908   0.588  10.849  0.5450  0.3356 -0.7440
  146SAPE    HB16053   0.859   0.665  10.702  0.3467 -1.5707 -0.0829
  146SAPE    C216054   1.027   0.762  10.803  0.5286  0.5063  0.1944
  146SAPE    HS16055   1.054   0.761  10.911 -0.7980  2.2697  0.5856
  146SAPE   O2116056   1.017   0.901  10.769  0.4402  0.1520  0.3272
  146SAPE   C2116057   1.116   0.973  10.807  0.5553  1.0130 -0.1826
  146SAPE   O2216058   1.185   0.946  10.903 -0.6118 -0.7386 -0.0112
  146SAPE   C2216059   1.137   1.092  10.712  0.4215  0.4093 -0.5817
  146SAPE   H2R16060   1.172   1.060  10.612  1.7292 -0.2330  0.0477
  146SAPE   H2S16061   1.033   1.128  10.702  0.2180  0.1565  0.4810
  146SAPE    C316062   1.143   0.684  10.727 -0.0986  0.2127  0.8211
  146SAPE    HX16063   1.133   0.576  10.748 -1.8653  0.0510 -0.6014
  146SAPE    HY16064   1.234   0.723  10.778  0.0578 -0.1883  0.8553
  146SAPE   O3116065   1.132   0.720  10.587 -0.0775 -0.3833  0.7997
  146SAPE   C3116066   1.241   0.721  10.516  0.6948 -0.0428  0.3733
  146SAPE   O3216067   1.350   0.694  10.565 -0.2831 -0.6005 -0.6224
  146SAPE   C3216068   1.218   0.784  10.376  0.3673  0.7102 -0.7710
  146SAPE   H2X16069   1.311   0.833  10.341  0.6607  1.0566  0.4359
  146SAPE   H2Y16070   1.163   0.878  10.399  1.3909  0.7308  1.9386
  146SAPE   C2316071   1.222   1.204  10.778 -0.0584 -0.2373 -0.5946
  146SAPE   H3R16072   1.327   1.174  10.760 -0.2428 -1.1033 -0.2876
  146SAPE   H3S16073   1.220   1.219  10.888  0.7433  2.1306 -0.8490
  146SAPE   C2416074   1.204   1.342  10.717 -0.2801 -0.5528 -0.9502
  146SAPE   H4R16075   1.230   1.336  10.609 -1.8699 -0.8993 -1.3299
  146SAPE   H4S16076   1.280   1.408  10.763 -0.9937 -1.9326  2.4711
  146SAPE   C2516077   1.066   1.406  10.736 -0.2224  0.0551 -0.4721
  146SAPE   H5R16078   1.065   1.450  10.837  0.7368  0.1417 -0.4936
  146SAPE   C2616079   0.981   1.449  10.639  0.6050 -0.8826  0.0425
  146SAPE   H6R16080   0.887   1.501  10.662 -0.8398 -3.7049  0.9449
  146SAPE   C2716081   1.003   1.424  10.492  0.4749  0.3931  0.4247
  146SAPE   H7R16082   0.911   1.415  10.431  0.9736 -2.0280 -0.0826
  146SAPE   H7S16083   1.039   1.319  10.482 -2.4718 -0.6108 -0.6102
  146SAPE   C2816084   1.091   1.527  10.430  0.7235 -0.3754  1.1795
  146SAPE   H8R16085   1.181   1.549  10.490  1.2742 -0.4026  0.3872
  146SAPE   C2916086   1.084   1.563  10.294 -0.3765 -0.0586 -0.0973
  146SAPE   H9R16087   1.154   1.637  10.253 -1.9937  0.9394 -1.1717
  146SAPE  C21016088   0.984   1.518  10.189  0.6603  0.3453 -0.3317
  146SAPE  H10R16089   0.884   1.513  10.237  1.4862 -1.2276  1.3083
  146SAPE  H10S16090   0.995   1.413  10.154 -0.4304  0.3597 -0.7640
  146SAPE  C21116091   0.994   1.615  10.074  0.5732 -0.1764  0.1242
  146SAPE  H11R16092   0.986   1.721  10.101  3.0036 -0.1025  0.8586
  146SAPE  C21216093   1.019   1.587   9.949 -0.3994 -0.4944  0.1474
  146SAPE  H12R16094   1.034   1.675   9.883 -0.9987  1.5829  2.6262
  146SAPE  C21316095   1.034   1.454   9.889  0.5227  0.9341  0.3268
  146SAPE  H13R16096   1.071   1.374   9.955 -1.3291  0.3501  0.7083
  146SAPE  H13S16097   1.117   1.462   9.815 -0.7684  0.0012 -1.2925
  146SAPE  C21416098   0.903   1.408   9.825  0.0175 -0.5282 -0.1520
  146SAPE  H14R16099   0.823   1.379   9.895 -0.4315  0.7529 -0.1182
  146SAPE  C21516100   0.872   1.419   9.692  0.3771  0.4974 -0.8262
  146SAPE  H15R16101   0.775   1.380   9.657  0.1185 -0.3804  0.7660
  146SAPE  C21616102   0.965   1.479   9.590 -0.2858 -0.2307  0.1053
  146SAPE  H16R16103   1.068   1.438   9.585 -1.0095 -2.1437 -0.3807
  146SAPE  H16S16104   0.980   1.585   9.617  1.4916 -0.5836  0.6328
  146SAPE  C21716105   0.918   1.464   9.447  0.2468  0.7968 -0.0746
  146SAPE  H17R16106   0.997   1.495   9.375 -1.6266  3.0922 -1.2921
  146SAPE  H17S16107   0.841   1.543   9.436 -0.5747  0.2871  1.7079
  146SAPE  C21816108   0.858   1.325   9.415  0.1562  0.0261 -0.7389
  146SAPE  H18R16109   0.756   1.306   9.456 -0.3539  0.1517 -1.9103
  146SAPE  H18S16110   0.936   1.262   9.461 -0.4386 -0.4224 -0.3362
  146SAPE  C21916111   0.846   1.289   9.265 -0.0928 -0.3013  0.4760
  146SAPE  H19R16112   0.937   1.298   9.203 -1.1425  0.1526 -1.0487
  146SAPE  H19S16113   0.784   1.366   9.215 -1.4829 -2.1885 -0.8165
  146SAPE  C22016114   0.793   1.146   9.242 -0.7771 -0.3480 -0.1970
  146SAPE  H20R16115   0.684   1.141   9.263 -0.7635  0.1848 -0.0006
  146SAPE  H20S16116   0.844   1.075   9.311 -1.0605  0.2499  0.6288
  146SAPE  H20T16117   0.803   1.116   9.135  1.7246  2.1722 -0.7819
  146SAPE   C3316118   1.152   0.694  10.270 -0.3697 -0.4090 -0.1928
  146SAPE   H3X16119   1.044   0.693  10.294 -0.6160 -1.1736 -1.2609
  146SAPE   H3Y16120   1.194   0.592  10.287 -1.2992 -0.7082  0.3618
  146SAPE   C3416121   1.186   0.738  10.125  0.1755 -0.4575  0.2608
  146SAPE   H4X16122   1.296   0.743  10.115  0.1603 -1.2567 -0.3989
  146SAPE   H4Y16123   1.135   0.836  10.126 -0.6267 -0.8678  1.0888
  146SAPE   C3516124   1.130   0.655  10.004 -0.0637 -0.3480 -0.5413
  146SAPE   H5X16125   1.019   0.644  10.005  0.0156 -1.4873 -1.5905
  146SAPE   H5Y16126   1.185   0.559   9.989  1.6808  0.6615 -0.8837
  146SAPE   C3616127   1.150   0.722   9.874  0.4259 -0.9431  0.3412
  146SAPE   H6X16128   1.260   0.735   9.869  0.2876  0.0911 -0.1396
  146SAPE   H6Y16129   1.118   0.828   9.878 -0.3395 -1.1358 -0.3777
  146SAPE   C3716130   1.078   0.660   9.758 -0.2888 -0.0109  0.5123
  146SAPE   H7X16131   0.969   0.642   9.768 -0.6793  1.3053 -0.9962
  146SAPE   H7Y16132   1.117   0.558   9.740 -2.1499 -0.6388 -0.2335
  146SAPE   C3816133   1.118   0.738   9.629 -0.0443 -0.2455  0.0983
  146SAPE   H8X16134   1.228   0.752   9.629  0.2913 -2.4349 -1.1992
  146SAPE   H8Y16135   1.074   0.840   9.623 -0.4055 -0.4108 -0.1029
  146SAPE   C3916136   1.090   0.662   9.504 -0.5802  0.0585  0.2063
  146SAPE   H9X16137   0.980   0.650   9.504 -0.7933  1.7494  0.0988
  146SAPE   H9Y16138   1.141   0.564   9.512  0.7028  0.6224 -0.6513
  146SAPE  C31016139   1.133   0.738   9.372  0.4161 -0.3083 -0.5089
  146SAPE  H10X16140   1.243   0.752   9.383  0.1726 -0.1386  2.5010
  146SAPE  H10Y16141   1.074   0.830   9.355  0.1709  0.0483  1.8630
  146SAPE  C31116142   1.105   0.636   9.257  0.0869 -0.1247  0.3729
  146SAPE  H11X16143   0.997   0.610   9.268 -0.5612  1.0289 -2.3258
  146SAPE  H11Y16144   1.170   0.546   9.250 -1.0500 -1.0600  1.3521
  146SAPE  C31216145   1.113   0.687   9.113 -0.3964 -0.2467 -0.4180
  146SAPE  H12X16146   1.066   0.609   9.049  1.4208 -0.0599 -2.0879
  146SAPE  H12Y16147   1.214   0.676   9.069 -0.2414  0.0831 -0.1450
  146SAPE  C31316148   1.056   0.828   9.083 -0.7922 -0.0173 -0.0701
  146SAPE  H13X16149   1.131   0.904   9.115  0.5386 -1.7156  0.9942
  146SAPE  H13Y16150   0.969   0.854   9.147 -1.7723  0.5827 -1.5799
  146SAPE  C31416151   1.040   0.861   8.936  0.0026  0.0223  0.5783
  146SAPE  H14X16152   1.119   0.922   8.887 -0.1784  1.6749  2.2136
  146SAPE  H14Y16153   0.960   0.936   8.926 -0.3751 -0.1997  1.7649
  146SAPE  C31516154   0.990   0.745   8.848 -0.5815 -0.5950  1.0134
  146SAPE  H15X16155   0.924   0.674   8.902 -1.1492  0.9645  2.4443
  146SAPE  H15Y16156   1.082   0.689   8.818 -0.4653 -1.1646  2.3679
  146SAPE  C31616157   0.935   0.796   8.710  0.7897 -0.3683  0.2379
  146SAPE  H16X16158   1.012   0.849   8.651 -1.8148  3.9734  0.3211
  146SAPE  H16Y16159   0.860   0.876   8.726  0.8876 -0.0823 -0.6710
  146SAPE  C31716160   0.855   0.698   8.609  0.2975 -0.2247  0.5508
  146SAPE  H17X16161   0.791   0.766   8.548 -0.3327  0.1993  1.6548
  146SAPE  H17Y16162   0.796   0.625   8.669 -0.0950 -0.4874 -0.1399
  146SAPE  C31816163   0.950   0.623   8.517 -0.2125 -0.3406 -0.0695
  146SAPE  H18X16164   0.894   0.569   8.437  2.2063  0.1834 -2.2440
  146SAPE  H18Y16165   1.013   0.549   8.572  0.4955  0.4276  0.1709
  146SAPE  H18Z16166   1.014   0.693   8.460  0.0424  0.2530  0.9149
  147SAPE     N16167   0.441   4.899  11.188  0.7127 -0.2588 -0.4032
  147SAPE   HN116168   0.544   4.888  11.198  0.6234 -0.6568  0.1681
  147SAPE   HN216169   0.408   4.985  11.236 -0.3450 -1.2938  0.8059
  147SAPE   HN316170   0.405   4.827  11.254  0.2437  0.6678  0.3694
  147SAPE   C1216171   0.389   4.881  11.050  0.8881  0.3232 -0.6056
  147SAPE  H12A16172   0.445   4.955  10.989  1.1261  1.8829  1.4008
  147SAPE  H12B16173   0.280   4.897  11.062  0.9122  0.0852 -0.0577
  147SAPE   C1116174   0.416   4.733  11.010  0.0599 -0.7331  0.1190
  147SAPE  H11A16175   0.354   4.664  11.072  1.7065 -1.6184  0.8458
  147SAPE  H11B16176   0.519   4.697  11.032  0.7624  1.0429 -0.1359
  147SAPE     P16177   0.494   4.718  10.756 -0.1675  0.5088 -0.0421
  147SAPE   O1316178   0.622   4.654  10.801  0.1448  0.6207 -0.3634
  147SAPE   O1416179   0.434   4.645  10.648  0.2873  0.1796 -0.2358
  147SAPE   O1216180   0.376   4.728  10.873 -0.4961 -0.1360 -0.6349
  147SAPE   O1116181   0.520   4.867  10.715  0.3159 -0.1417 -0.1363
  147SAPE    C116182   0.408   4.948  10.673 -0.0186 -0.2040 -0.3648
  147SAPE    HA16183   0.312   4.892  10.676  1.4752 -3.0036 -1.0859
  147SAPE    HB16184   0.408   5.037  10.739  5.0635 -0.3577  0.2304
  147SAPE    C216185   0.428   4.993  10.527  0.2072  0.2401 -0.1326
  147SAPE    HS16186   0.349   5.066  10.498 -1.8603 -1.6399  0.4977
  147SAPE   O2116187   0.425   4.874  10.443  0.3576 -0.7453  0.5050
  147SAPE   C2116188   0.303   4.816  10.423 -0.5113  0.6268  0.7203
  147SAPE   O2216189   0.194   4.855  10.462  0.5376 -0.2572 -0.5176
  147SAPE   C2216190   0.328   4.680  10.346 -0.0007  0.0622  0.0753
  147SAPE   H2R16191   0.437   4.659  10.353  0.0001 -0.5633 -1.4104
  147SAPE   H2S16192   0.280   4.609  10.417 -2.5292  2.6156  1.1072
  147SAPE    C316193   0.558   5.064  10.498 -0.1742 -0.1259 -0.3380
  147SAPE    HX16194   0.643   4.993  10.504  0.5195  0.5550 -1.7245
  147SAPE    HY16195   0.584   5.134  10.580  0.6748  0.0148 -0.7230
  147SAPE   O3116196   0.564   5.137  10.373 -0.3271 -0.0651 -0.4643
  147SAPE   C3116197   0.691   5.166  10.326 -0.1326  0.4157 -0.7344
  147SAPE   O3216198   0.794   5.123  10.377  0.3874  0.2408 -0.2654
  147SAPE   C3216199   0.690   5.234  10.194  0.1560  0.2437  0.4627
  147SAPE   H2X16200   0.794   5.252  10.161 -0.1688 -1.2368 -1.5192
  147SAPE   H2Y16201   0.645   5.333  10.217 -0.4618  0.0374  0.1739
  147SAPE   C2316202   0.270   4.669  10.194 -0.2165 -0.2658 -0.7381
  147SAPE   H3R16203   0.336   4.700  10.111  0.8754 -0.5447 -0.0113
  147SAPE   H3S16204   0.189   4.745  10.197  0.2553  0.2472 -0.7651
  147SAPE   C2416205   0.242   4.526  10.144 -0.2318  0.0782  0.3465
  147SAPE   H4R16206   0.339   4.472  10.143 -0.9252 -1.2196  0.9687
  147SAPE   H4S16207   0.203   4.532  10.040  0.1824  1.7648  0.2454
  147SAPE   C2516208   0.146   4.456  10.234  0.2398 -0.3561 -0.2379
  147SAPE   H5R16209   0.178   4.412  10.330  1.0161 -0.6078 -0.6058
  147SAPE   C2616210   0.020   4.431  10.202  0.0914 -0.6503 -0.1027
  147SAPE   H6R16211  -0.037   4.388  10.285 -0.0352 -0.2173  0.0406
  147SAPE   C2716212  -0.061   4.460  10.077  0.1705 -0.2778  0.0945
  147SAPE   H7R16213  -0.063   4.368  10.014  0.8480 -0.9057  0.9589
  147SAPE   H7S16214  -0.011   4.531  10.007 -0.9727 -1.3892 -1.9443
  147SAPE   C2816215  -0.199   4.512  10.103  0.9027  0.2642 -0.7103
  147SAPE   H8R16216  -0.216   4.554  10.204 -2.7783  1.9364 -1.8652
  147SAPE   C2916217  -0.296   4.507  10.015  0.4404  0.6564  0.3564
  147SAPE   H9R16218  -0.397   4.540  10.042  1.0187  1.7645  1.2665
  147SAPE  C21016219  -0.275   4.455   9.869 -0.0342  0.3657  0.0136
  147SAPE  H10R16220  -0.270   4.345   9.881  0.4689  0.4399  0.5518
  147SAPE  H10S16221  -0.176   4.490   9.832  0.0274  0.4035  0.2131
  147SAPE  C21116222  -0.386   4.473   9.764 -0.8009  0.0358 -0.0236
  147SAPE  H11R16223  -0.487   4.474   9.808 -0.0172 -2.2322  2.0216
  147SAPE  C21216224  -0.383   4.473   9.633  0.3040  0.0272 -0.1879
  147SAPE  H12R16225  -0.480   4.484   9.581 -0.2964 -0.5608  0.7844
  147SAPE  C21316226  -0.265   4.459   9.538 -0.2087 -1.3570  0.0912
  147SAPE  H13R16227  -0.293   4.373   9.474 -2.6267  1.0199 -2.3046
  147SAPE  H13S16228  -0.168   4.437   9.588  1.5568  1.6900 -1.6952
  147SAPE  C21416229  -0.253   4.588   9.460 -0.4958 -0.2872 -0.0375
  147SAPE  H14R16230  -0.231   4.674   9.525 -1.7316  1.1330 -1.3893
  147SAPE  C21516231  -0.259   4.602   9.325  0.5344  0.7263  0.4189
  147SAPE  H15R16232  -0.251   4.708   9.297  0.6429  0.5570 -0.2228
  147SAPE  C21616233  -0.273   4.487   9.219 -0.1000  0.1964  0.1826
  147SAPE  H16R16234  -0.305   4.398   9.276 -1.9823  0.7533  0.0779
  147SAPE  H16S16235  -0.172   4.464   9.180  0.4044  1.0896  0.9221
  147SAPE  C21716236  -0.373   4.507   9.104 -0.1504 -0.3101 -0.2002
  147SAPE  H17R16237  -0.475   4.482   9.139 -0.2732  1.1264  0.5024
  147SAPE  H17S16238  -0.358   4.427   9.027  1.5582  1.3270 -1.6731
  147SAPE  C21816239  -0.363   4.652   9.030 -0.5295 -0.1442 -0.4754
  147SAPE  H18R16240  -0.255   4.662   9.004 -0.4408 -1.0268 -0.4893
  147SAPE  H18S16241  -0.386   4.723   9.112  1.1169 -0.1242  0.0053
  147SAPE  C21916242  -0.445   4.672   8.902 -0.1898 -0.4616  0.2286
  147SAPE  H19R16243  -0.425   4.586   8.834 -0.8711 -0.1804 -0.3404
  147SAPE  H19S16244  -0.419   4.772   8.860 -1.6390  0.3645  1.2233
  147SAPE  C22016245  -0.590   4.672   8.929  0.7624 -0.6442  0.5167
  147SAPE  H20R16246  -0.613   4.565   8.948  2.3788 -1.0355  0.4859
  147SAPE  H20S16247  -0.651   4.714   8.846  1.0066  0.1973  0.7518
  147SAPE  H20T16248  -0.633   4.726   9.016 -0.8669 -2.1104  0.6807
  147SAPE   C3316249   0.608   5.156  10.086  1.0141 -0.3003  0.2005
  147SAPE   H3X16250   0.514   5.214  10.070  2.2101  1.9083  0.7163
  147SAPE   H3Y16251   0.586   5.052  10.117 -1.4452  0.0301 -0.1797
  147SAPE   C3416252   0.675   5.160   9.949 -0.1753  0.5000  0.2408
  147SAPE   H4X16253   0.771   5.106   9.938 -0.1854  0.6906 -0.8536
  147SAPE   H4Y16254   0.706   5.266   9.938 -2.6756  1.3084  0.3201
  147SAPE   C3516255   0.584   5.124   9.827  0.7483 -0.0361 -0.1391
  147SAPE   H5X16256   0.649   5.095   9.742  0.1539  1.0942 -1.0101
  147SAPE   H5Y16257   0.504   5.201   9.817 -0.0379 -0.7407  0.5323
  147SAPE   C3616258   0.507   4.989   9.857  0.0776 -0.0948  0.6151
  147SAPE   H6X16259   0.436   5.020   9.936  0.6337 -0.4899  1.2788
  147SAPE   H6Y16260   0.573   4.911   9.900  1.1446  0.7251  0.5028
  147SAPE   C3716261   0.418   4.947   9.735 -0.5595 -0.2575 -0.0316
  147SAPE   H7X16262   0.344   4.870   9.764 -1.9929  0.7501 -0.8877
  147SAPE   H7Y16263   0.494   4.900   9.668 -0.3678 -0.1763  0.1269
  147SAPE   C3816264   0.354   5.052   9.654  0.5029 -0.6269 -0.2251
  147SAPE   H8X16265   0.437   5.107   9.605  1.8178  0.8373  3.3060
  147SAPE   H8Y16266   0.308   5.124   9.726  2.7284 -0.6380  1.2989
  147SAPE   C3916267   0.251   5.002   9.547 -1.3714 -0.1988 -0.0093
  147SAPE   H9X16268   0.195   5.080   9.492 -1.2935 -1.2773 -1.6736
  147SAPE   H9Y16269   0.181   4.941   9.608  2.3330 -0.8996  4.0558
  147SAPE  C31016270   0.323   4.915   9.439  0.5631 -0.0309 -0.3314
  147SAPE  H10X16271   0.236   4.867   9.391 -1.3040  0.8437  2.0028
  147SAPE  H10Y16272   0.385   4.833   9.481  0.0387 -0.8479 -1.1319
  147SAPE  C31116273   0.394   4.987   9.326  0.6794  0.6607 -0.3094
  147SAPE  H11X16274   0.463   4.919   9.271  0.3036  0.0809 -0.0759
  147SAPE  H11Y16275   0.457   5.069   9.367  1.1205 -0.0571  0.4845
  147SAPE  C31216276   0.295   5.034   9.218 -0.7323 -0.4569 -0.4733
  147SAPE  H12X16277   0.246   5.123   9.264  1.8831  0.9681 -0.2528
  147SAPE  H12Y16278   0.227   4.952   9.188 -0.7123  0.1791 -2.3699
  147SAPE  C31316279   0.350   5.098   9.088 -0.1722  1.3828  0.4441
  147SAPE  H13X16280   0.390   5.014   9.027 -2.0629  1.5614 -1.1300
  147SAPE  H13Y16281   0.435   5.156   9.130  2.1793 -1.4876 -0.0445
  147SAPE  C31416282   0.260   5.194   9.015  0.0674 -0.4168  0.2500
  147SAPE  H14X16283   0.222   5.261   9.095 -2.8644 -2.2856  0.5846
  147SAPE  H14Y16284   0.169   5.151   8.968 -1.0323  0.3265  1.6154
  147SAPE  C31516285   0.331   5.266   8.895  0.6395  0.8956 -0.0367
  147SAPE  H15X16286   0.432   5.305   8.921  2.0430 -3.1572  1.3833
  147SAPE  H15Y16287   0.271   5.351   8.858  1.1454  0.3790 -2.1569
  147SAPE  C31616288   0.334   5.176   8.770 -0.2869 -0.4482  0.1274
  147SAPE  H16X16289   0.234   5.128   8.769 -0.4126 -0.1789 -0.3254
  147SAPE  H16Y16290   0.412   5.099   8.790 -1.8711 -1.9448  0.7915
  147SAPE  C31716291   0.365   5.234   8.634  0.4770  0.9871  0.3900
  147SAPE  H17X16292   0.396   5.160   8.556 -0.2701  1.5092 -0.4198
  147SAPE  H17Y16293   0.448   5.307   8.647  1.5099  0.1318 -1.0244
  147SAPE  C31816294   0.256   5.311   8.568  0.2301 -0.4008 -0.0836
  147SAPE  H18X16295   0.230   5.396   8.635  1.5625 -1.2058  1.5305
  147SAPE  H18Y16296   0.167   5.244   8.562  0.5369 -0.7054 -1.6221
  147SAPE  H18Z16297   0.280   5.365   8.474 -0.8401  1.4368  0.6498
  148SAPE     N16298   0.533   1.368  10.787 -0.0516 -0.1347 -0.2214
  148SAPE   HN116299   0.470   1.305  10.733  1.7145 -2.4453  0.1994
  148SAPE   HN216300   0.547   1.455  10.733  1.0924 -0.9639 -1.3488
  148SAPE   HN316301   0.625   1.318  10.785  0.6985  1.1935 -2.8956
  148SAPE   C1216302   0.498   1.403  10.928  0.3782 -0.6740 -0.7804
  148SAPE  H12A16303   0.574   1.475  10.964  0.4809 -1.4246  0.5972
  148SAPE  H12B16304   0.504   1.305  10.981 -1.8535  0.6291  2.1310
  148SAPE   C1116305   0.359   1.463  10.955  0.1684 -0.2259 -0.1648
  148SAPE  H11A16306   0.345   1.560  10.903 -0.8179  0.9842  2.1703
  148SAPE  H11B16307   0.361   1.481  11.065 -1.3638 -3.4568  0.5243
  148SAPE     P16308   0.110   1.415  10.920 -0.4255 -0.1119  0.3838
  148SAPE   O1316309   0.021   1.314  10.981 -0.6741  0.0842 -0.0009
  148SAPE   O1416310   0.106   1.547  10.986  0.0397 -0.0787 -0.2658
  148SAPE   O1216311   0.258   1.364  10.926  0.3149 -1.8824  0.7930
  148SAPE   O1116312   0.088   1.436  10.761  0.1159 -0.6563  0.5099
  148SAPE    C116313   0.119   1.332  10.668 -0.0478  0.9361  0.0949
  148SAPE    HA16314   0.135   1.384  10.571  0.9035  1.1632  0.3566
  148SAPE    HB16315   0.213   1.280  10.695 -1.0815 -1.5261 -0.7718
  148SAPE    C216316   0.006   1.231  10.646 -0.1992 -1.1603 -0.2896
  148SAPE    HS16317   0.028   1.149  10.717 -0.9217 -1.3115 -0.2317
  148SAPE   O2116318  -0.006   1.192  10.508 -0.2094  0.2673  0.0829
  148SAPE   C2116319   0.094   1.114  10.460 -0.7769  0.1433 -0.0115
  148SAPE   O2216320   0.201   1.093  10.517  0.0948  0.0747 -0.1497
  148SAPE   C2216321   0.070   1.082  10.313  0.2438 -0.2951 -0.4142
  148SAPE   H2R16322   0.012   0.987  10.310 -1.4025  0.6084  0.8035
  148SAPE   H2S16323   0.006   1.160  10.266  0.7394  0.0397 -0.5336
  148SAPE    C316324  -0.131   1.289  10.690 -0.1918 -0.1776  0.9438
  148SAPE    HX16325  -0.128   1.393  10.651  0.2413 -0.3566  0.4862
  148SAPE    HY16326  -0.143   1.293  10.800  2.0844  0.6251  1.2201
  148SAPE   O3116327  -0.229   1.217  10.624 -0.1754 -0.1857 -0.0013
  148SAPE   C3116328  -0.277   1.106  10.679 -0.4460  0.1647  0.2947
  148SAPE   O3216329  -0.237   1.056  10.783 -0.0501  0.2233  0.1174
  148SAPE   C3216330  -0.377   1.038  10.578 -0.0836 -0.7334 -0.4031
  148SAPE   H2X16331  -0.472   1.096  10.583 -1.3727 -2.8376  0.7354
  148SAPE   H2Y16332  -0.400   0.942  10.627  2.4811  0.4538  3.5453
  148SAPE   C2316333   0.204   1.062  10.233  0.0651 -0.2849  0.3097
  148SAPE   H3R16334   0.256   0.976  10.282  0.1355 -0.2778  0.2476
  148SAPE   H3S16335   0.270   1.150  10.246 -0.2419 -0.2721  2.0366
  148SAPE   C2416336   0.175   1.019  10.086 -0.0017  0.0427 -0.1189
  148SAPE   H4R16337   0.102   0.936  10.072  1.0892 -0.8754 -0.5287
  148SAPE   H4S16338   0.272   0.974  10.054 -0.9654 -2.3343  0.0848
  148SAPE   C2516339   0.128   1.139  10.010 -0.6694  0.4800  0.0282
  148SAPE   H5R16340   0.115   1.225  10.077  2.0430 -0.5304  2.0134
  148SAPE   C2616341   0.107   1.154   9.881 -0.5306  0.2770  0.7248
  148SAPE   H6R16342   0.072   1.255   9.854 -2.2769 -0.6661 -0.7710
  148SAPE   C2716343   0.127   1.045   9.781 -0.7188 -0.2042  0.6233
  148SAPE   H7R16344   0.183   0.962   9.830  1.0393  0.2520 -0.5278
  148SAPE   H7S16345   0.185   1.083   9.694 -0.0696 -1.0924  0.6437
  148SAPE   C2816346  -0.009   0.996   9.730  0.3213  0.5642 -0.4241
  148SAPE   H8R16347  -0.082   0.999   9.811 -1.4788  0.6475 -1.9775
  148SAPE   C2916348  -0.041   0.941   9.612 -0.3276  0.2298  0.4471
  148SAPE   H9R16349  -0.142   0.903   9.592 -0.0499 -1.2618  1.6813
  148SAPE  C21016350   0.051   0.929   9.495 -0.8505 -0.1719 -0.0605
  148SAPE  H10R16351   0.018   0.841   9.436  0.1076  1.0853 -2.5898
  148SAPE  H10S16352   0.153   0.902   9.529 -0.9777 -1.1807 -0.4231
  148SAPE  C21116353   0.062   1.056   9.407  0.4272 -0.2986  0.6429
  148SAPE  H11R16354   0.084   1.150   9.460 -0.4047 -1.7767  3.8619
  148SAPE  C21216355   0.045   1.061   9.273 -0.5293  0.0959 -0.1557
  148SAPE  H12R16356   0.071   1.155   9.222 -0.3887 -0.0369 -0.3340
  148SAPE  C21316357   0.032   0.953   9.172 -0.3622 -0.0390 -0.1163
  148SAPE  H13R16358   0.023   0.850   9.214 -0.8479  0.0376 -0.0296
  148SAPE  H13S16359   0.132   0.943   9.125 -0.1979 -1.7285  0.4919
  148SAPE  C21416360  -0.077   0.988   9.072  0.5844 -0.4927 -0.3535
  148SAPE  H14R16361  -0.178   1.005   9.114 -1.0216 -2.1980 -3.2180
  148SAPE  C21516362  -0.065   1.001   8.937 -0.1621  0.2060  0.0037
  148SAPE  H15R16363  -0.155   1.028   8.879 -0.6756 -0.3400  0.5304
  148SAPE  C21616364   0.062   0.985   8.851 -0.4555  0.3786 -0.1059
  148SAPE  H16R16365   0.077   0.879   8.818 -0.7433 -0.5775  2.6232
  148SAPE  H16S16366   0.149   1.018   8.912  0.0851 -0.5295 -0.3518
  148SAPE  C21716367   0.067   1.076   8.730  0.6393 -0.6004  0.4578
  148SAPE  H17R16368   0.165   1.062   8.679  0.6452  2.1726 -0.4818
  148SAPE  H17S16369   0.051   1.182   8.759  0.6835 -0.0614 -1.3687
  148SAPE  C21816370  -0.040   1.031   8.624  0.2704 -0.2010 -0.4879
  148SAPE  H18R16371  -0.134   1.080   8.656  0.3890 -0.1761 -0.1806
  148SAPE  H18S16372  -0.045   0.921   8.609 -0.0902 -0.1548 -0.7297
  148SAPE  C21916373  -0.014   1.101   8.492  0.1476  0.5872  0.0412
  148SAPE  H19R16374   0.084   1.078   8.444 -0.8189  0.8194 -2.1687
  148SAPE  H19S16375  -0.013   1.209   8.517 -0.3486  0.2660  1.5018
  148SAPE  C22016376  -0.137   1.087   8.391  0.5529 -0.1422  0.0306
  148SAPE  H20R16377  -0.097   1.132   8.297 -0.0904  1.8070  0.6231
  148SAPE  H20S16378  -0.225   1.138   8.435  0.0117 -1.1127  0.0991
  148SAPE  H20T16379  -0.165   0.981   8.376  1.6730 -0.4010 -0.2974
  148SAPE   C3316380  -0.322   1.033  10.429  0.6575  0.6292 -0.4780
  148SAPE   H3X16381  -0.379   0.964  10.363  0.0422  0.8914 -0.2256
  148SAPE   H3Y16382  -0.220   0.990  10.427  0.3368 -0.1264 -0.9584
  148SAPE   C3416383  -0.332   1.171  10.358 -0.2559  0.4550  0.6316
  148SAPE   H4X16384  -0.253   1.244  10.386  1.0430 -0.4392 -0.5501
  148SAPE   H4Y16385  -0.433   1.212  10.376  0.2289  2.3597 -0.7196
  148SAPE   C3516386  -0.329   1.148  10.200 -0.0838 -0.6986 -0.9679
  148SAPE   H5X16387  -0.271   1.055  10.182 -1.0881 -1.3341 -0.9649
  148SAPE   H5Y16388  -0.260   1.226  10.160 -0.6195  1.8665  2.5777
  148SAPE   C3616389  -0.460   1.168  10.129  0.2992 -0.7932 -0.2335
  148SAPE   H6X16390  -0.500   1.267  10.157  2.3881 -0.4667  1.8597
  148SAPE   H6Y16391  -0.532   1.091  10.163 -1.3115  0.7239 -0.0891
  148SAPE   C3716392  -0.465   1.158   9.975  0.9879  0.1639 -0.0544
  148SAPE   H7X16393  -0.390   1.232   9.939  1.8646 -0.6550  0.0499
  148SAPE   H7Y16394  -0.560   1.199   9.936  0.9251  1.2128  1.1235
  148SAPE   C3816395  -0.426   1.024   9.916 -0.0119  0.5583 -0.0926
  148SAPE   H8X16396  -0.483   0.944   9.969  2.5022 -0.3049  1.4617
  148SAPE   H8Y16397  -0.320   1.013   9.946 -0.1906  0.2080  0.4239
  148SAPE   C3916398  -0.436   1.026   9.760 -0.6160 -0.1068 -0.0049
  148SAPE   H9X16399  -0.355   0.960   9.721 -1.3911  0.5303 -2.9674
  148SAPE   H9Y16400  -0.416   1.125   9.714 -0.4153  0.7864  1.9198
  148SAPE  C31016401  -0.577   0.982   9.712 -0.3288 -0.4277  0.2958
  148SAPE  H10X16402  -0.656   1.052   9.746  1.0876  1.9953 -1.1453
  148SAPE  H10Y16403  -0.615   0.880   9.735 -3.8200  0.9323  1.2783
  148SAPE  C31116404  -0.581   0.978   9.563 -0.4219  0.4820  0.6023
  148SAPE  H11X16405  -0.663   0.922   9.514  0.8499 -1.7850  0.9325
  148SAPE  H11Y16406  -0.484   0.930   9.536 -0.8917 -0.0539 -0.1605
  148SAPE  C31216407  -0.588   1.119   9.506 -0.3438 -0.2728 -0.0314
  148SAPE  H12X16408  -0.488   1.164   9.525 -0.3188 -0.0122 -0.7511
  148SAPE  H12Y16409  -0.677   1.174   9.544 -0.6567 -0.9029  0.1574
  148SAPE  C31316410  -0.591   1.118   9.350  0.2109 -0.4120  0.2465
  148SAPE  H13X16411  -0.686   1.080   9.308  0.0987 -1.2186  1.1876
  148SAPE  H13Y16412  -0.519   1.043   9.310 -0.9335 -1.5304  0.2190
  148SAPE  C31416413  -0.579   1.262   9.300 -0.5432 -0.5146 -0.0739
  148SAPE  H14X16414  -0.474   1.296   9.310 -0.6713  0.0288 -0.5151
  148SAPE  H14Y16415  -0.639   1.328   9.366  0.1457 -1.0129  1.0764
  148SAPE  C31516416  -0.604   1.263   9.149  0.1949 -0.3625 -0.4725
  148SAPE  H15X16417  -0.657   1.358   9.124  0.1872 -0.0862  0.5730
  148SAPE  H15Y16418  -0.677   1.183   9.127  1.0925 -1.6060  0.9208
  148SAPE  C31616419  -0.474   1.236   9.064 -0.2966  0.8823  0.0340
  148SAPE  H16X16420  -0.439   1.135   9.095  0.5977  1.2757  0.3334
  148SAPE  H16Y16421  -0.400   1.318   9.072 -1.0037  1.5172  0.2118
  148SAPE  C31716422  -0.526   1.208   8.920  0.3386 -0.1537 -0.5888
  148SAPE  H17X16423  -0.558   1.310   8.888  1.4507  0.4652  0.1902
  148SAPE  H17Y16424  -0.618   1.146   8.920 -0.4419  0.8167  2.6938
  148SAPE  C31816425  -0.422   1.160   8.828  0.1703  0.7905 -0.2868
  148SAPE  H18X16426  -0.332   1.222   8.845  0.0511  0.3189  2.7119
  148SAPE  H18Y16427  -0.465   1.173   8.726  0.5618 -0.1382 -0.5782
  148SAPE  H18Z16428  -0.393   1.054   8.846 -1.6349  0.6650  2.4808
  149SAPE     N16429   0.168   1.781  11.079 -0.1050  0.0062 -0.2521
  149SAPE   HN116430   0.094   1.853  11.068  0.6353  0.7696 -0.3326
  149SAPE   HN216431   0.250   1.807  11.021  0.3643  0.8525  0.7703
  149SAPE   HN316432   0.130   1.688  11.052  1.8884 -0.6570 -0.9690
  149SAPE   C1216433   0.197   1.768  11.227 -0.0069 -0.7380  0.1641
  149SAPE  H12A16434   0.292   1.710  11.224  1.0586  0.9460 -0.5937
  149SAPE  H12B16435   0.109   1.720  11.273 -0.2604  1.2042  1.8676
  149SAPE   C1116436   0.236   1.915  11.273  0.6627 -0.7829  0.3476
  149SAPE  H11A16437   0.258   1.912  11.382  1.2867 -1.5154  0.2058
  149SAPE  H11B16438   0.148   1.981  11.253  1.5408  0.5229  0.7024
  149SAPE     P16439   0.365   2.109  11.159 -0.2160  0.3003  0.0859
  149SAPE   O1316440   0.318   2.208  11.264 -0.0591  0.8272 -0.1506
  149SAPE   O1416441   0.506   2.120  11.108 -0.0693  0.5362  0.5864
  149SAPE   O1216442   0.357   1.962  11.209 -0.0775 -0.3996  0.5996
  149SAPE   O1116443   0.276   2.106  11.034  0.0764 -0.4265  0.2361
  149SAPE    C116444   0.150   2.166  11.021 -0.6131  0.2174  0.1637
  149SAPE    HA16445   0.075   2.084  11.029 -0.0848 -0.3951 -0.9792
  149SAPE    HB16446   0.133   2.246  11.096  0.1241  0.5181  0.0133
  149SAPE    C216447   0.131   2.228  10.877 -0.1168  0.6616  0.3225
  149SAPE    HS16448   0.218   2.289  10.843  0.1657  0.2904  0.3703
  149SAPE   O2116449   0.013   2.303  10.866  0.3101  0.0778 -0.0497
  149SAPE   C2116450   0.004   2.409  10.939 -0.4578 -0.2011  0.0558
  149SAPE   O2216451   0.091   2.451  11.010 -0.4929 -0.1449  0.0589
  149SAPE   C2216452  -0.128   2.475  10.926  0.4547  0.4545 -0.0360
  149SAPE   H2R16453  -0.165   2.446  10.826  2.6727 -2.4176 -0.1661
  149SAPE   H2S16454  -0.201   2.434  11.000 -3.2878  1.4528 -2.8501
  149SAPE    C316455   0.139   2.110  10.769 -0.1800 -0.0776  0.5695
  149SAPE    HX16456   0.231   2.050  10.781  0.8261  1.1430 -0.6986
  149SAPE    HY16457   0.154   2.157  10.670  0.9943  1.0787  1.2664
  149SAPE   O3116458   0.019   2.042  10.764  0.0777  0.3309 -0.2800
  149SAPE   C3116459   0.031   1.904  10.759  0.2011 -1.0464 -0.2684
  149SAPE   O3216460   0.134   1.838  10.759  0.2299 -0.1917 -0.6297
  149SAPE   C3216461  -0.107   1.844  10.747  0.6881  0.1570  0.0051
  149SAPE   H2X16462  -0.176   1.909  10.690 -0.0019  0.3016  0.9767
  149SAPE   H2Y16463  -0.155   1.845  10.847 -1.8617  0.3843 -1.1429
  149SAPE   C2316464  -0.133   2.635  10.928 -0.3700  0.2477 -0.0870
  149SAPE   H3R16465  -0.106   2.679  11.026  3.3786 -1.2452 -0.3196
  149SAPE   H3S16466  -0.238   2.666  10.908 -0.3881 -0.3524 -0.9723
  149SAPE   C2416467  -0.068   2.704  10.803  0.6120  0.4969 -0.1190
  149SAPE   H4R16468  -0.112   2.804  10.783 -1.4269  0.0872  1.8409
  149SAPE   H4S16469  -0.091   2.630  10.724 -1.3513 -0.0929  0.9357
  149SAPE   C2516470   0.076   2.732  10.813 -1.1340  0.2338  0.4314
  149SAPE   H5R16471   0.105   2.770  10.912  2.1292 -0.9260  0.0291
  149SAPE   C2616472   0.168   2.715  10.714 -0.0315  0.2197  0.4206
  149SAPE   H6R16473   0.273   2.745  10.733  0.3255 -1.3675  1.1909
  149SAPE   C2716474   0.146   2.658  10.577 -0.7132 -0.5773  0.1925
  149SAPE   H7R16475   0.226   2.701  10.513 -1.5399  0.7163  0.0006
  149SAPE   H7S16476   0.056   2.699  10.528 -1.1659 -0.6286  0.9740
  149SAPE   C2816477   0.142   2.507  10.562 -0.2757 -0.6959 -0.9605
  149SAPE   H8R16478   0.158   2.446  10.652 -0.9577  1.0164  0.3823
  149SAPE   C2916479   0.114   2.443  10.451  0.2140 -0.1133 -0.0143
  149SAPE   H9R16480   0.094   2.336  10.465 -2.2230  0.3767  0.7459
  149SAPE  C21016481   0.077   2.513  10.321 -0.5900  0.1553  0.2356
  149SAPE  H10R16482   0.104   2.438  10.243  2.9581  1.1969  0.2541
  149SAPE  H10S16483   0.148   2.598  10.313  1.3022 -1.3399  0.2406
  149SAPE  C21116484  -0.064   2.548  10.312  0.0083  0.3503  0.6072
  149SAPE  H11R16485  -0.104   2.599  10.401 -0.6986 -0.5300  0.8099
  149SAPE  C21216486  -0.153   2.531  10.211 -0.0342 -0.5881 -0.7378
  149SAPE  H12R16487  -0.255   2.571  10.217  0.1098 -0.0711 -1.5096
  149SAPE  C21316488  -0.133   2.471  10.073 -0.5616 -0.0873  0.0670
  149SAPE  H13R16489  -0.174   2.368  10.069  2.3716 -1.3817  0.5137
  149SAPE  H13S16490  -0.026   2.463  10.042 -0.3121 -2.5706  1.2707
  149SAPE  C21416491  -0.205   2.560   9.969 -0.9697 -0.1213 -0.7324
  149SAPE  H14R16492  -0.183   2.667   9.969 -1.8939  0.0798  0.2810
  149SAPE  C21516493  -0.284   2.535   9.864  0.1534 -0.1048  1.1146
  149SAPE  H15R16494  -0.334   2.618   9.812  0.3585 -2.3060 -3.0639
  149SAPE  C21616495  -0.328   2.405   9.808  0.1969 -0.1348 -0.8162
  149SAPE  H16R16496  -0.436   2.408   9.781  0.3507  1.8125 -1.3906
  149SAPE  H16S16497  -0.316   2.332   9.891  1.4378  2.6335  1.5979
  149SAPE  C21716498  -0.238   2.358   9.693 -0.0252 -0.1761 -0.2390
  149SAPE  H17R16499  -0.287   2.258   9.682 -0.3987 -0.0395  0.1524
  149SAPE  H17S16500  -0.131   2.337   9.716 -0.7855 -1.0052  3.1285
  149SAPE  C21816501  -0.257   2.430   9.559  0.0896 -0.6112 -0.0846
  149SAPE  H18R16502  -0.203   2.527   9.561 -0.6087 -0.1446 -1.6918
  149SAPE  H18S16503  -0.363   2.459   9.544  0.2424  0.6342  1.0992
  149SAPE  C21916504  -0.218   2.337   9.432 -0.5852  0.2209  0.4258
  149SAPE  H19R16505  -0.110   2.313   9.446 -0.6300 -1.5615 -1.8181
  149SAPE  H19S16506  -0.228   2.414   9.353  1.7698  0.1303 -0.0303
  149SAPE  C22016507  -0.296   2.213   9.399 -0.1780 -0.8281 -0.4232
  149SAPE  H20R16508  -0.255   2.123   9.451  1.1417  0.7326  1.4083
  149SAPE  H20S16509  -0.299   2.207   9.288  0.4408  2.0910 -0.6748
  149SAPE  H20T16510  -0.398   2.226   9.442  0.7514  1.5598  1.3175
  149SAPE   C3316511  -0.126   1.693  10.699  0.3316  0.3436  0.2709
  149SAPE   H3X16512  -0.236   1.676  10.688  0.4508 -0.9386  0.8404
  149SAPE   H3Y16513  -0.079   1.620  10.768  0.1525  1.9643  2.2121
  149SAPE   C3416514  -0.061   1.679  10.557 -0.2112 -0.2031 -0.1933
  149SAPE   H4X16515   0.027   1.616  10.583  0.5873  1.1127  0.4068
  149SAPE   H4Y16516  -0.032   1.780  10.520  0.6865 -0.1322  0.6777
  149SAPE   C3516517  -0.159   1.630  10.454 -0.4591  0.3273 -0.4074
  149SAPE   H5X16518  -0.250   1.688  10.430  0.8177  1.4690 -2.8425
  149SAPE   H5Y16519  -0.178   1.526  10.489  0.0499  0.7428  1.2202
  149SAPE   C3616520  -0.076   1.617  10.322 -0.1059  0.1104 -0.8630
  149SAPE   H6X16521   0.016   1.557  10.338 -0.2151 -0.2764 -1.6301
  149SAPE   H6Y16522  -0.057   1.721  10.287  0.1974  0.6428  0.7958
  149SAPE   C3716523  -0.151   1.533  10.215  0.4401 -1.1671  0.5643
  149SAPE   H7X16524  -0.257   1.565  10.206  0.5289 -1.4575 -3.9737
  149SAPE   H7Y16525  -0.156   1.430  10.257 -1.2105 -0.2434  2.7949
  149SAPE   C3816526  -0.084   1.532  10.075 -0.9268 -0.0112  0.0745
  149SAPE   H8X16527   0.021   1.500  10.089 -1.5861 -1.5039  2.1518
  149SAPE   H8Y16528  -0.092   1.637  10.041  0.0755  0.6557  1.7905
  149SAPE   C3916529  -0.157   1.441   9.970  0.2502  0.2976  0.8674
  149SAPE   H9X16530  -0.263   1.473   9.982 -0.2522 -0.8945 -0.2637
  149SAPE   H9Y16531  -0.148   1.333   9.993 -0.9988  0.2087  1.0454
  149SAPE  C31016532  -0.125   1.469   9.818 -0.7352 -0.4521 -0.4223
  149SAPE  H10X16533  -0.021   1.436   9.800 -0.0888 -1.2394  3.7251
  149SAPE  H10Y16534  -0.132   1.579   9.810  1.2190 -0.2766 -0.1877
  149SAPE  C31116535  -0.221   1.387   9.734 -0.1598 -0.1793 -0.1056
  149SAPE  H11X16536  -0.328   1.391   9.764 -0.2926 -0.0011 -0.5920
  149SAPE  H11Y16537  -0.185   1.283   9.739  1.1717  0.3239  2.5619
  149SAPE  C31216538  -0.208   1.429   9.581  0.1418  0.0081  0.3290
  149SAPE  H12X16539  -0.179   1.536   9.574  2.4733 -0.3032  3.5370
  149SAPE  H12Y16540  -0.308   1.414   9.534 -0.9866 -0.2857  2.7017
  149SAPE  C31316541  -0.094   1.348   9.520 -0.9211  0.4478  0.3681
  149SAPE  H13X16542  -0.113   1.241   9.497  2.7675 -0.1483 -0.5620
  149SAPE  H13Y16543  -0.013   1.346   9.597 -0.0209  1.8415 -0.4850
  149SAPE  C31416544  -0.034   1.416   9.391  0.4393  0.7459  0.1072
  149SAPE  H14X16545   0.064   1.367   9.371 -0.8619 -2.1127  0.1952
  149SAPE  H14Y16546  -0.012   1.519   9.427  1.7230 -0.0815  1.8860
  149SAPE  C31516547  -0.128   1.419   9.264 -0.4738  0.6434  0.3962
  149SAPE  H15X16548  -0.211   1.488   9.288 -2.9753 -1.2150 -2.2688
  149SAPE  H15Y16549  -0.172   1.319   9.247 -0.7936  0.9160 -0.4160
  149SAPE  C31616550  -0.049   1.477   9.144 -0.4622 -0.1251 -0.4630
  149SAPE  H16X16551   0.019   1.397   9.106  0.4063  0.5501 -0.3556
  149SAPE  H16Y16552   0.010   1.565   9.174 -1.9115  0.8603 -0.3992
  149SAPE  C31716553  -0.142   1.518   9.027 -0.0862 -0.1459  0.1396
  149SAPE  H17X16554  -0.195   1.613   9.052 -1.4742 -0.2286 -2.1539
  149SAPE  H17Y16555  -0.216   1.439   9.000 -0.4931  0.5039 -0.7288
  149SAPE  C31816556  -0.072   1.558   8.894 -0.0220 -0.4095 -0.0445
  149SAPE  H18X16557   0.003   1.638   8.916  2.8276 -2.8414 -0.2976
  149SAPE  H18Y16558  -0.148   1.600   8.825 -1.6205  0.3882  2.0867
  149SAPE  H18Z16559  -0.007   1.480   8.848  4.7062  2.2183  1.4449
  150SAPE     N16560   4.125   0.579  10.884 -0.7037 -0.0369  0.0216
  150SAPE   HN116561   4.089   0.538  10.973  1.8140 -1.7170  0.3720
  150SAPE   HN216562   4.223   0.601  10.911 -1.2334  0.4985  1.6636
  150SAPE   HN316563   4.088   0.673  10.862 -0.4630 -0.2504 -1.3933
  150SAPE   C1216564   4.115   0.493  10.767 -0.7628 -0.1097 -0.1320
  150SAPE  H12A16565   4.161   0.393  10.781  1.1377  0.6478 -0.5916
  150SAPE  H12B16566   4.177   0.545  10.690 -0.8910  1.7721  0.9700
  150SAPE   C1116567   3.972   0.475  10.719 -0.2528  0.5610  0.1831
  150SAPE  H11A16568   3.964   0.418  10.624 -0.4771 -2.1491  1.7199
  150SAPE  H11B16569   3.932   0.579  10.713  0.2968  0.8231  0.9028
  150SAPE     P16570   3.909   0.243  10.840 -0.3780 -0.1005 -0.0471
  150SAPE   O1316571   3.993   0.232  10.960 -0.2325  0.0510  0.2483
  150SAPE   O1416572   3.783   0.171  10.830 -0.0774 -0.4375 -0.8220
  150SAPE   O1216573   3.888   0.395  10.811  0.5767 -0.0457 -0.3622
  150SAPE   O1116574   3.988   0.192  10.716 -0.5104  0.0662 -0.3852
  150SAPE    C116575   4.063   0.073  10.697 -0.1124 -0.1154  0.3060
  150SAPE    HA16576   4.150   0.074  10.765 -0.4403 -0.0478  0.7290
  150SAPE    HB16577   3.998  -0.013  10.722  2.3399 -2.5150 -1.0849
  150SAPE    C216578   4.114   0.053  10.548 -0.8107  0.1990 -0.4651
  150SAPE    HS16579   4.186   0.133  10.523 -1.2622  1.4528  1.9009
  150SAPE   O2116580   4.004   0.067  10.455  0.0643  0.2763  0.3658
  150SAPE   C2116581   3.977   0.183  10.401  0.0625  0.1488  0.6135
  150SAPE   O2216582   4.028   0.291  10.420 -0.4878  0.8640 -0.8360
  150SAPE   C2216583   3.882   0.156  10.287  0.3038  0.5359 -0.1771
  150SAPE   H2R16584   3.859   0.047  10.293  5.0374 -0.5929  1.6535
  150SAPE   H2S16585   3.791   0.218  10.306  0.9088  2.2512 -2.4514
  150SAPE    C316586   4.192  -0.082  10.543 -0.0181 -0.2765 -0.2243
  150SAPE    HX16587   4.112  -0.157  10.561 -1.1032  0.5988 -1.2199
  150SAPE    HY16588   4.259  -0.078  10.632 -1.6786 -0.5525  1.0987
  150SAPE   O3116589   4.262  -0.098  10.416  0.5636 -0.5575  0.1233
  150SAPE   C3116590   4.363  -0.179  10.424 -0.8251  0.7242 -0.2260
  150SAPE   O3216591   4.389  -0.258  10.511  0.0280  0.5763 -0.7610
  150SAPE   C3216592   4.447  -0.168  10.298 -0.3349  0.0070 -0.4118
  150SAPE   H2X16593   4.539  -0.111  10.323  0.7419 -2.5567  1.8381
  150SAPE   H2Y16594   4.388  -0.108  10.225  1.1475 -1.0509 -2.5962
  150SAPE   C2316595   3.940   0.183  10.144  0.5458  0.4158  0.0335
  150SAPE   H3R16596   3.980   0.286  10.153 -0.3494  1.0053 -1.9327
  150SAPE   H3S16597   3.843   0.193  10.089  0.7754  0.3505 -0.3889
  150SAPE   C2416598   4.038   0.071  10.097 -0.0484 -0.1354  0.3786
  150SAPE   H4R16599   4.036   0.074   9.986  0.8848  0.1390  0.3628
  150SAPE   H4S16600   3.997  -0.029  10.120  0.5811  0.1194  2.8101
  150SAPE   C2516601   4.179   0.082  10.143 -0.9805  0.1577 -0.2928
  150SAPE   H5R16602   4.207   0.032  10.236  0.9984 -0.3661 -1.1382
  150SAPE   C2616603   4.282   0.148  10.076  0.5717  0.6559 -1.0141
  150SAPE   H6R16604   4.388   0.142  10.104  0.2628  0.1847  0.1342
  150SAPE   C2716605   4.254   0.228   9.949  0.6358  1.0933 -0.5600
  150SAPE   H7R16606   4.300   0.327   9.968 -0.3693  1.2218  1.4820
  150SAPE   H7S16607   4.146   0.245   9.930  0.4583 -0.6673 -1.3700
  150SAPE   C2816608   4.326   0.161   9.831 -0.0622  0.3629 -0.0817
  150SAPE   H8R16609   4.426   0.118   9.843  0.5884  1.5498 -1.0911
  150SAPE   C2916610   4.275   0.166   9.700 -0.0748  0.1615 -0.8215
  150SAPE   H9R16611   4.335   0.106   9.631  1.0055 -1.1059  1.1004
  150SAPE  C21016612   4.141   0.222   9.668  0.6310  0.1225  0.2056
  150SAPE  H10R16613   4.134   0.332   9.670 -1.1808  0.1430 -2.6385
  150SAPE  H10S16614   4.067   0.190   9.744 -0.2289 -0.7432 -0.9659
  150SAPE  C21116615   4.099   0.172   9.533  0.3119  0.5679  0.6136
  150SAPE  H11R16616   4.004   0.118   9.537  1.2528 -1.1242  1.3016
  150SAPE  C21216617   4.160   0.168   9.417 -1.1106  0.2447  0.1534
  150SAPE  H12R16618   4.107   0.140   9.324  2.4895 -1.7108 -1.5306
  150SAPE  C21316619   4.297   0.218   9.382 -0.3851  0.7748  0.1081
  150SAPE  H13R16620   4.364   0.249   9.466  0.1688  2.4099 -0.8940
  150SAPE  H13S16621   4.301   0.316   9.329 -0.9142  0.9158  0.3236
  150SAPE  C21416622   4.370   0.108   9.304  0.1258 -0.1685  0.3002
  150SAPE  H14R16623   4.442   0.038   9.348 -0.6459 -1.8204 -0.9810
  150SAPE  C21516624   4.373   0.094   9.169 -0.1475 -0.5037  0.4230
  150SAPE  H15R16625   4.442   0.016   9.132 -1.5363 -1.3762 -0.4253
  150SAPE  C21616626   4.293   0.174   9.073 -0.3814 -0.1481  0.3324
  150SAPE  H16R16627   4.341   0.274   9.064 -2.0877  0.5706 -1.3130
  150SAPE  H16S16628   4.190   0.192   9.109 -0.5379  2.3813 -1.1588
  150SAPE  C21716629   4.286   0.125   8.925  0.1266  1.0151  0.4192
  150SAPE  H17R16630   4.205   0.049   8.922  1.8816 -0.9451 -0.7944
  150SAPE  H17S16631   4.384   0.086   8.890 -1.0476  0.3936 -2.4691
  150SAPE  C21816632   4.238   0.236   8.834  1.0456 -0.0610 -0.6485
  150SAPE  H18R16633   4.315   0.315   8.821  0.1933  0.5178 -2.5428
  150SAPE  H18S16634   4.143   0.277   8.874  0.6535  0.0356 -1.6411
  150SAPE  C21916635   4.217   0.193   8.695  0.3016 -0.4120 -0.3238
  150SAPE  H19R16636   4.133   0.121   8.691 -0.6131  0.6551 -1.3596
  150SAPE  H19S16637   4.306   0.132   8.671 -1.0584 -3.0096  0.8932
  150SAPE  C22016638   4.200   0.326   8.609 -0.3223 -0.1118  0.3512
  150SAPE  H20R16639   4.142   0.300   8.518  0.3407  0.6104 -0.2929
  150SAPE  H20S16640   4.293   0.383   8.588 -0.3957 -0.2192 -0.2900
  150SAPE  H20T16641   4.149   0.400   8.674  0.4325  0.7386 -0.0152
  150SAPE   C3316642   4.494  -0.307  10.241 -0.0609 -0.3290 -0.1578
  150SAPE   H3X16643   4.408  -0.377  10.233 -2.1842  1.6650  2.9247
  150SAPE   H3Y16644   4.566  -0.354  10.311 -1.1841 -0.4659  0.9404
  150SAPE   C3416645   4.563  -0.300  10.098 -0.4812  0.2708  0.1287
  150SAPE   H4X16646   4.599  -0.402  10.074  0.8238  0.6117  0.5897
  150SAPE   H4Y16647   4.651  -0.233  10.095 -0.4920  0.3331  0.9437
  150SAPE   C3516648   4.456  -0.260   9.994  0.3934  0.4519  0.0782
  150SAPE   H5X16649   4.411  -0.160  10.006  0.3819  0.7229 -1.9322
  150SAPE   H5Y16650   4.371  -0.332   9.997  1.0363 -0.3703 -0.7612
  150SAPE   C3616651   4.510  -0.264   9.852 -0.7573 -0.8729  0.5183
  150SAPE   H6X16652   4.542  -0.368   9.832 -2.2480 -1.0985 -0.9356
  150SAPE   H6Y16653   4.602  -0.201   9.851 -0.0327 -1.9009  0.7243
  150SAPE   C3716654   4.401  -0.223   9.749 -0.7505 -0.4782  0.6550
  150SAPE   H7X16655   4.400  -0.112   9.751  0.5509 -0.4625  1.6578
  150SAPE   H7Y16656   4.295  -0.245   9.777 -0.6714 -1.3511  0.2921
  150SAPE   C3816657   4.424  -0.271   9.600 -0.7093  0.1535 -0.3647
  150SAPE   H8X16658   4.426  -0.382   9.610 -0.0308  0.2838  1.2544
  150SAPE   H8Y16659   4.525  -0.237   9.569 -0.4610 -0.1617  0.0787
  150SAPE   C3916660   4.314  -0.221   9.511 -0.8602  0.0033  0.1392
  150SAPE   H9X16661   4.297  -0.113   9.532 -1.5718 -0.4351  2.0436
  150SAPE   H9Y16662   4.220  -0.268   9.547 -0.4930 -0.6023  0.3348
  150SAPE  C31016663   4.322  -0.256   9.365 -0.6259  0.0810 -0.5204
  150SAPE  H10X16664   4.311  -0.366   9.353 -0.3902  0.0951 -0.8932
  150SAPE  H10Y16665   4.418  -0.223   9.319 -0.8813  3.6073  1.1483
  150SAPE  C31116666   4.196  -0.210   9.288 -0.2821 -0.6388 -0.2605
  150SAPE  H11X16667   4.180  -0.100   9.297 -2.5950 -0.8164 -1.6120
  150SAPE  H11Y16668   4.104  -0.260   9.323 -1.8581 -0.1712 -3.4027
  150SAPE  C31216669   4.208  -0.231   9.139  0.8593 -0.5829  1.1664
  150SAPE  H12X16670   4.216  -0.337   9.107  1.2031 -0.5182  1.0307
  150SAPE  H12Y16671   4.306  -0.190   9.106  0.0247  0.8154  0.3219
  150SAPE  C31316672   4.074  -0.181   9.078 -0.7149 -0.0007 -0.4863
  150SAPE  H13X16673   4.068  -0.071   9.096  1.3102  0.0138  0.4115
  150SAPE  H13Y16674   3.982  -0.225   9.124  0.2622 -1.3071  0.2738
  150SAPE  C31416675   4.059  -0.212   8.935 -0.2287 -0.1279 -0.5927
  150SAPE  H14X16676   4.062  -0.322   8.916 -0.3427 -0.2801  0.2246
  150SAPE  H14Y16677   4.132  -0.161   8.868 -1.8694  0.7706 -1.7465
  150SAPE  C31516678   3.919  -0.176   8.883  0.1541  0.0893  0.1330
  150SAPE  H15X16679   3.903  -0.066   8.894  0.8750  0.1569  0.5434
  150SAPE  H15Y16680   3.836  -0.230   8.932  0.8353  1.5492  3.1006
  150SAPE  C31616681   3.901  -0.190   8.730 -0.1174 -0.1992 -0.7420
  150SAPE  H16X16682   3.910  -0.293   8.688 -1.0128  0.6174 -3.1529
  150SAPE  H16Y16683   3.982  -0.138   8.676 -1.2162  0.2477 -2.0215
  150SAPE  C31716684   3.762  -0.142   8.675  0.3841 -0.1877 -0.2819
  150SAPE  H17X16685   3.742  -0.176   8.571  1.9637 -1.4365 -0.2211
  150SAPE  H17Y16686   3.778  -0.032   8.677  0.1148 -0.1457 -0.4043
  150SAPE  C31816687   3.646  -0.191   8.761  0.1142 -0.0874  0.5088
  150SAPE  H18X16688   3.659  -0.149   8.863  2.0374 -1.9074  1.0839
  150SAPE  H18Y16689   3.655  -0.300   8.779 -2.8121 -0.2152  1.8215
  150SAPE  H18Z16690   3.546  -0.179   8.714  0.3292 -3.0098 -0.8946
  151SAPE     N16691   1.471   4.894  10.610  0.7846  0.0921  0.2143
  151SAPE   HN116692   1.461   4.798  10.571  0.0669 -0.4322  1.6086
  151SAPE   HN216693   1.394   4.898  10.681 -0.2247 -0.0599 -0.8450
  151SAPE   HN316694   1.459   4.967  10.537  0.3478 -1.4970 -1.3576
  151SAPE   C1216695   1.602   4.913  10.685 -0.0091 -1.4464  0.3107
  151SAPE  H12A16696   1.585   4.999  10.754  1.5188 -0.6406 -0.2869
  151SAPE  H12B16697   1.674   4.948  10.609 -0.5661 -1.3243 -0.1698
  151SAPE   C1116698   1.629   4.787  10.753 -0.3729  0.5869 -0.8399
  151SAPE  H11A16699   1.551   4.764  10.828 -0.3008  1.6137 -0.4338
  151SAPE  H11B16700   1.713   4.790  10.826 -3.5130  0.3515  3.1029
  151SAPE     P16701   1.785   4.656  10.589 -0.1444 -0.7031 -0.2685
  151SAPE   O1316702   1.792   4.739  10.467 -0.1449  0.6258  0.0458
  151SAPE   O1416703   1.895   4.681  10.684 -0.1437  0.0976  0.6039
  151SAPE   O1216704   1.642   4.675  10.665  0.3398 -0.4118  0.4180
  151SAPE   O1116705   1.785   4.498  10.555 -0.4390  0.1122 -0.2073
  151SAPE    C116706   1.662   4.446  10.508  0.4522  0.5279 -0.3440
  151SAPE    HA16707   1.653   4.341  10.543  0.8147 -0.2739 -2.4957
  151SAPE    HB16708   1.572   4.501  10.544  1.0293  1.1212  0.2188
  151SAPE    C216709   1.653   4.437  10.354  0.3140  0.3511  0.0954
  151SAPE    HS16710   1.561   4.380  10.331  1.6370 -1.4700 -0.9794
  151SAPE   O2116711   1.777   4.375  10.317  0.6026 -0.5983  0.1085
  151SAPE   C2116712   1.768   4.246  10.320  0.0897 -0.4293  0.0935
  151SAPE   O2216713   1.679   4.180  10.377  0.0429 -0.1001  0.0639
  151SAPE   C2216714   1.890   4.189  10.260 -0.0688  0.2402 -0.6870
  151SAPE   H2R16715   1.884   4.189  10.149 -1.6236 -3.0742 -0.7124
  151SAPE   H2S16716   1.984   4.241  10.291  0.0585  0.2523 -1.0807
  151SAPE    C316717   1.647   4.570  10.270 -0.1306 -0.6768 -0.2984
  151SAPE    HX16718   1.749   4.614  10.260 -1.9415  3.7741 -1.9462
  151SAPE    HY16719   1.589   4.650  10.321 -0.4641 -0.0831 -1.5631
  151SAPE   O3116720   1.607   4.541  10.139  0.0515 -0.0287 -0.8805
  151SAPE   C3116721   1.473   4.541  10.121 -0.6273  0.1190 -0.5766
  151SAPE   O3216722   1.396   4.552  10.214 -0.0980  0.1015  0.0292
  151SAPE   C3216723   1.435   4.513   9.971  0.9742  0.4925  0.0753
  151SAPE   H2X16724   1.396   4.409   9.966  0.2740  0.7965 -1.5393
  151SAPE   H2Y16725   1.525   4.524   9.907 -0.0117 -0.3259 -1.5286
  151SAPE   C2316726   1.918   4.044  10.309 -0.2388  0.4432 -0.1832
  151SAPE   H3R16727   1.827   3.983  10.327 -0.8482  1.2476 -0.5162
  151SAPE   H3S16728   1.975   4.044  10.404 -0.2136 -0.6822 -0.1801
  151SAPE   C2416729   2.007   3.960  10.204 -0.4408 -0.0610 -0.1738
  151SAPE   H4R16730   1.955   3.952  10.106  0.1079 -1.7590 -0.3482
  151SAPE   H4S16731   2.017   3.858  10.246  1.0607  0.5222  0.9764
  151SAPE   C2516732   2.138   4.036  10.198 -0.4934  0.1679  0.5202
  151SAPE   H5R16733   2.185   4.044  10.297  0.3064 -0.4388  0.1991
  151SAPE   C2616734   2.192   4.102  10.094 -0.0152  0.4178  0.7533
  151SAPE   H6R16735   2.280   4.165  10.110  0.4377 -0.2481  0.9098
  151SAPE   C2716736   2.136   4.104   9.951  0.5432 -1.0542 -0.5230
  151SAPE   H7R16737   2.119   4.201   9.899  2.5263 -1.5310 -2.1563
  151SAPE   H7S16738   2.033   4.061   9.941 -0.5558  1.6557 -1.9756
  151SAPE   C2816739   2.218   4.017   9.863  0.2860  0.0383  0.4569
  151SAPE   H8R16740   2.310   3.973   9.903  1.1754 -0.4000 -1.8762
  151SAPE   C2916741   2.206   3.998   9.732  0.5510 -0.3797  0.3243
  151SAPE   H9R16742   2.282   3.939   9.679  0.4827 -0.4623  0.3187
  151SAPE  C21016743   2.098   4.055   9.643  0.4856 -0.3740 -0.2238
  151SAPE  H10R16744   2.021   4.119   9.691  1.1128  0.1380  0.1187
  151SAPE  H10S16745   2.040   3.967   9.609  0.3359 -0.6002  0.5931
  151SAPE  C21116746   2.155   4.144   9.537 -0.1681  0.0059  0.4042
  151SAPE  H11R16747   2.242   4.202   9.570 -0.1503 -0.3616  1.0320
  151SAPE  C21216748   2.114   4.148   9.406  0.3710  0.1825  0.3426
  151SAPE  H12R16749   2.179   4.208   9.340  1.5340 -1.2949  0.0736
  151SAPE  C21316750   2.006   4.074   9.336 -0.3542  0.2952 -0.1967
  151SAPE  H13R16751   1.948   4.010   9.406 -0.1654  0.3216 -0.0154
  151SAPE  H13S16752   2.062   4.000   9.275 -3.1404 -0.9772 -1.3952
  151SAPE  C21416753   1.913   4.154   9.244  0.6892 -0.2377 -0.0977
  151SAPE  H14R16754   1.826   4.191   9.300  2.4085 -0.1657  2.7193
  151SAPE  C21516755   1.920   4.157   9.109  0.0824  0.3671 -0.1744
  151SAPE  H15R16756   1.862   4.227   9.048 -0.0361 -0.0253 -0.5140
  151SAPE  C21616757   2.016   4.085   9.020 -0.2705 -0.3881  0.1003
  151SAPE  H16R16758   2.115   4.073   9.068  1.4455 -0.4992 -3.2284
  151SAPE  H16S16759   2.037   4.148   8.931  0.4487 -1.5796 -0.5937
  151SAPE  C21716760   1.975   3.944   8.970  0.3467  1.1695 -0.6254
  151SAPE  H17R16761   1.882   3.948   8.910 -0.7781 -0.0725  0.9359
  151SAPE  H17S16762   1.956   3.880   9.059  1.6380  1.7267  0.0776
  151SAPE  C21816763   2.070   3.880   8.875 -0.4690  0.2245  0.0104
  151SAPE  H18R16764   2.165   3.871   8.932 -0.6413 -1.2979  0.0811
  151SAPE  H18S16765   2.085   3.944   8.786 -0.0539  2.7918  1.8080
  151SAPE  C21916766   2.027   3.739   8.832 -0.4343  1.3326  0.1570
  151SAPE  H19R16767   2.105   3.700   8.764 -0.5785 -2.4836  1.9605
  151SAPE  H19S16768   1.935   3.752   8.771  0.1265  2.6852 -0.4612
  151SAPE  C22016769   2.012   3.633   8.941 -0.7572  0.0754  0.1453
  151SAPE  H20R16770   1.942   3.650   9.025 -0.3676 -1.1682  0.7547
  151SAPE  H20S16771   2.105   3.611   8.997 -0.6309  1.4950  0.5202
  151SAPE  H20T16772   1.973   3.541   8.892  0.6280  0.0712 -1.0277
  151SAPE   C3316773   1.330   4.605   9.914  0.2130 -0.0891  0.0295
  151SAPE   H3X16774   1.345   4.699   9.972  2.9985 -0.5776  0.2657
  151SAPE   H3Y16775   1.229   4.570   9.943  0.6041 -0.5140  0.9214
  151SAPE   C3416776   1.347   4.640   9.759 -0.2296  0.0900  0.0852
  151SAPE   H4X16777   1.452   4.661   9.731 -0.0274  0.8021  1.3157
  151SAPE   H4Y16778   1.293   4.732   9.730  0.4164 -0.2397 -2.3306
  151SAPE   C3516779   1.293   4.533   9.661  0.2757 -0.1799 -0.1855
  151SAPE   H5X16780   1.183   4.531   9.672  0.3057 -2.1405  0.1771
  151SAPE   H5Y16781   1.339   4.437   9.694  0.0231 -0.1687  0.2047
  151SAPE   C3616782   1.324   4.558   9.511 -0.4336 -0.0405 -0.3379
  151SAPE   H6X16783   1.319   4.458   9.464 -1.3313  0.4177 -1.2396
  151SAPE   H6Y16784   1.430   4.594   9.509 -0.2713 -0.4565  0.4016
  151SAPE   C3716785   1.233   4.655   9.441 -0.6181 -0.2955 -0.2126
  151SAPE   H7X16786   1.260   4.753   9.485  1.9108 -0.5274 -1.1029
  151SAPE   H7Y16787   1.128   4.630   9.467 -0.8181  0.0114 -0.6942
  151SAPE   C3816788   1.260   4.660   9.291  0.3393 -0.5107 -0.5292
  151SAPE   H8X16789   1.238   4.559   9.251 -0.9018 -0.0181 -1.1306
  151SAPE   H8Y16790   1.361   4.691   9.255 -0.3962  2.4965 -0.2798
  151SAPE   C3916791   1.163   4.749   9.205  0.1166 -1.2243  0.1474
  151SAPE   H9X16792   1.162   4.853   9.244 -2.6361  0.1905 -3.1885
  151SAPE   H9Y16793   1.055   4.723   9.213  0.3213 -2.2068 -0.1205
  151SAPE  C31016794   1.191   4.768   9.054  0.2006 -0.0965  1.0335
  151SAPE  H10X16795   1.286   4.821   9.034  0.2539 -1.2478 -2.5111
  151SAPE  H10Y16796   1.114   4.820   8.993  1.9300  0.3318 -0.8875
  151SAPE  C31116797   1.196   4.630   8.981  0.0680  0.7454  0.5139
  151SAPE  H11X16798   1.280   4.565   9.016 -0.9429 -0.5011  0.6921
  151SAPE  H11Y16799   1.215   4.650   8.873  0.1940 -0.7554  0.2400
  151SAPE  C31216800   1.067   4.543   9.004  0.0824 -0.7262  0.5254
  151SAPE  H12X16801   1.059   4.516   9.112  0.3252  0.3490  0.8299
  151SAPE  H12Y16802   1.091   4.454   8.942  1.0371  0.2070 -0.4917
  151SAPE  C31316803   0.930   4.604   8.952 -0.4397 -0.0574 -0.0221
  151SAPE  H13X16804   0.932   4.624   8.842 -1.5518 -0.1992 -0.0824
  151SAPE  H13Y16805   0.907   4.698   9.007  0.8200 -0.0555  0.5387
  151SAPE  C31416806   0.829   4.490   8.976  1.0378  0.0636 -0.1878
  151SAPE  H14X16807   0.842   4.458   9.081  2.7780  1.6128  0.1231
  151SAPE  H14Y16808   0.872   4.407   8.915  1.7543 -0.1752  0.6267
  151SAPE  C31516809   0.681   4.519   8.938  0.2601 -1.1160  0.1686
  151SAPE  H15X16810   0.679   4.575   8.843 -1.2318  2.9221  2.3324
  151SAPE  H15Y16811   0.644   4.602   9.002 -1.0332  1.3754 -3.5040
  151SAPE  C31616812   0.588   4.405   8.940 -0.0117 -0.0009  0.6485
  151SAPE  H16X16813   0.560   4.375   9.044  2.9502  0.1090  1.5637
  151SAPE  H16Y16814   0.628   4.307   8.907  0.6465  0.1726  0.9169
  151SAPE  C31716815   0.459   4.422   8.849 -0.0818 -0.5770  1.0081
  151SAPE  H17X16816   0.412   4.521   8.867  0.3305 -0.0353 -0.7215
  151SAPE  H17Y16817   0.383   4.343   8.871  0.1825 -1.0927  0.1350
  151SAPE  C31816818   0.505   4.414   8.700 -0.4653 -0.2860  0.5383
  151SAPE  H18X16819   0.590   4.343   8.687  0.7833  1.1646  0.5115
  151SAPE  H18Y16820   0.553   4.509   8.669 -1.4035  0.1868  0.5091
  151SAPE  H18Z16821   0.426   4.386   8.627  1.4041 -1.0624 -1.3020
  152SAPE     N16822   2.891   2.744  10.826 -0.7691  0.7212 -0.1931
  152SAPE   HN116823   2.847   2.745  10.732 -1.2741 -0.2674  0.0216
  152SAPE   HN216824   2.924   2.648  10.847  2.0573  2.1396  2.6385
  152SAPE   HN316825   2.819   2.767  10.897  0.1327  0.4228  0.8360
  152SAPE   C1216826   3.019   2.821  10.847  0.5571  0.4439  1.0731
  152SAPE  H12A16827   3.062   2.782  10.942  2.8861  0.6291  0.1688
  152SAPE  H12B16828   2.989   2.927  10.861  1.7536  1.1829 -1.4018
  152SAPE   C1116829   3.119   2.803  10.726 -0.6911 -0.6115 -0.4041
  152SAPE  H11A16830   3.212   2.851  10.762 -2.1707  1.3792  1.0738
  152SAPE  H11B16831   3.082   2.873  10.647 -0.2396  0.7137  0.5294
  152SAPE     P16832   3.244   2.569  10.722  0.4077 -0.1179 -0.1288
  152SAPE   O1316833   3.252   2.569  10.870 -0.0555  0.1890  0.1172
  152SAPE   O1416834   3.218   2.437  10.661 -0.1765 -0.1245  0.4413
  152SAPE   O1216835   3.128   2.669  10.680  0.3929  0.0873 -0.0390
  152SAPE   O1116836   3.366   2.640  10.654  0.1390 -0.2701 -0.6080
  152SAPE    C116837   3.363   2.646  10.510  0.0114  0.9398 -0.3994
  152SAPE    HA16838   3.465   2.621  10.472  0.0000  0.3044 -0.0345
  152SAPE    HB16839   3.284   2.581  10.468 -0.0145 -1.3464  2.8213
  152SAPE    C216840   3.341   2.793  10.467 -0.1744  0.1149 -0.4454
  152SAPE    HS16841   3.239   2.823  10.500  0.2030  0.8056  0.1137
  152SAPE   O2116842   3.343   2.803  10.325 -0.3883  0.5011 -0.5079
  152SAPE   C2116843   3.298   2.910  10.274  0.1437 -0.1623 -0.3497
  152SAPE   O2216844   3.239   2.999  10.333 -0.2954  0.3912  0.3447
  152SAPE   C2216845   3.325   2.909  10.122  0.2959  0.1166  0.4230
  152SAPE   H2R16846   3.240   2.848  10.085 -0.4503  1.4931 -0.2062
  152SAPE   H2S16847   3.293   3.004  10.074  0.4321 -0.2877 -0.4738
  152SAPE    C316848   3.442   2.889  10.534 -0.1225  0.4796  0.1938
  152SAPE    HX16849   3.411   2.897  10.641  0.7595  0.5219  0.4616
  152SAPE    HY16850   3.438   2.993  10.494 -3.2419 -0.0069 -1.0532
  152SAPE   O3116851   3.570   2.832  10.531 -0.3219  0.3904 -0.6813
  152SAPE   C3116852   3.639   2.849  10.427 -0.9136 -0.2038 -0.2111
  152SAPE   O3216853   3.629   2.942  10.349 -0.0114 -0.1665  0.3985
  152SAPE   C3216854   3.766   2.754  10.435  0.1341 -0.7181 -0.1990
  152SAPE   H2X16855   3.739   2.675  10.508 -1.8316  1.5111  1.6350
  152SAPE   H2Y16856   3.847   2.821  10.470 -1.3894  1.9796 -1.4307
  152SAPE   C2316857   3.466   2.869  10.071 -0.6306 -0.3543 -0.1776
  152SAPE   H3R16858   3.473   2.761  10.096 -1.4180 -0.5276 -0.6760
  152SAPE   H3S16859   3.544   2.926  10.127 -0.0157  0.8338 -2.1415
  152SAPE   C2416860   3.482   2.888   9.921  0.2838 -0.5068  0.1952
  152SAPE   H4R16861   3.403   2.845   9.855 -1.0522  1.2281  0.5814
  152SAPE   H4S16862   3.579   2.841   9.896 -0.9589 -2.7498 -0.7508
  152SAPE   C2516863   3.484   3.039   9.895 -0.9315 -0.6330 -0.3126
  152SAPE   H5R16864   3.550   3.094   9.964  0.5723 -0.8798 -1.4990
  152SAPE   C2616865   3.435   3.106   9.789 -0.1728 -0.5102 -0.0955
  152SAPE   H6R16866   3.430   3.215   9.787  0.9454 -0.4514 -2.1521
  152SAPE   C2716867   3.357   3.057   9.673 -0.2359  0.3676  0.1336
  152SAPE   H7R16868   3.336   3.144   9.607 -0.4351  0.3656  0.1928
  152SAPE   H7S16869   3.260   3.014   9.706  0.7554 -1.3906  0.8995
  152SAPE   C2816870   3.418   2.946   9.587  0.2936  0.0881  0.2193
  152SAPE   H8R16871   3.481   2.872   9.638  0.4267 -1.1971 -1.7195
  152SAPE   C2916872   3.408   2.931   9.449 -0.7837 -1.1862 -0.3923
  152SAPE   H9R16873   3.466   2.851   9.399  1.2301  0.4050 -0.7410
  152SAPE  C21016874   3.332   3.030   9.359 -0.2883  0.3001 -0.4687
  152SAPE  H10R16875   3.247   3.074   9.416 -0.4085  0.6280 -0.8963
  152SAPE  H10S16876   3.277   2.981   9.276  0.6630 -0.8141 -0.4603
  152SAPE  C21116877   3.430   3.134   9.311  0.3231  0.3537  0.2061
  152SAPE  H11R16878   3.491   3.186   9.386  0.0865  1.3938 -0.2936
  152SAPE  C21216879   3.439   3.181   9.194  0.6678  0.2243  0.0453
  152SAPE  H12R16880   3.524   3.246   9.171  0.6161 -0.2590 -1.6325
  152SAPE  C21316881   3.353   3.147   9.081  0.0787 -0.5335 -0.3761
  152SAPE  H13R16882   3.366   3.039   9.060  1.2489  0.0071 -2.7381
  152SAPE  H13S16883   3.395   3.192   8.989  2.0390 -1.1127  0.1810
  152SAPE  C21416884   3.209   3.194   9.089 -0.1066  1.0127  0.4811
  152SAPE  H14R16885   3.164   3.202   9.189  0.4413  3.3139  0.5926
  152SAPE  C21516886   3.126   3.219   8.988  0.9411 -0.5714  0.5624
  152SAPE  H15R16887   3.024   3.258   9.005  1.4179  0.0592  2.1983
  152SAPE  C21616888   3.144   3.195   8.839  0.3440  0.3633 -0.8202
  152SAPE  H16R16889   3.233   3.129   8.833 -0.2581 -0.9855  2.9070
  152SAPE  H16S16890   3.158   3.293   8.787 -0.3578  1.2682  0.6377
  152SAPE  C21716891   3.013   3.117   8.789  0.1658 -0.6850 -0.8297
  152SAPE  H17R16892   2.997   3.033   8.860 -1.6908  1.2227  1.2037
  152SAPE  H17S16893   3.045   3.068   8.695  0.6541 -1.2537 -0.3742
  152SAPE  C21816894   2.879   3.190   8.784  0.5584 -0.0445  0.7713
  152SAPE  H18R16895   2.863   3.253   8.875 -0.4580 -0.7905  1.1207
  152SAPE  H18S16896   2.801   3.111   8.784 -2.3797  2.5836 -1.3521
  152SAPE  C21916897   2.858   3.276   8.656 -0.2200 -1.1459 -0.3543
  152SAPE  H19R16898   2.880   3.207   8.572  0.5344 -0.0795 -1.0669
  152SAPE  H19S16899   2.923   3.367   8.659  0.0909 -1.3557 -0.6850
  152SAPE  C22016900   2.711   3.327   8.636  0.0126  0.5110 -0.4188
  152SAPE  H20R16901   2.708   3.391   8.546  2.1219  0.1613 -0.8042
  152SAPE  H20S16902   2.684   3.378   8.731 -0.8057 -1.5995  0.5430
  152SAPE  H20T16903   2.641   3.241   8.622  1.0426 -0.6031  0.9128
  152SAPE   C3316904   3.785   2.672  10.305  0.5471  0.3205  0.3869
  152SAPE   H3X16905   3.875   2.607  10.312  0.5294 -0.0145 -1.7625
  152SAPE   H3Y16906   3.802   2.752  10.229  0.9808  0.0709  0.2177
  152SAPE   C3416907   3.674   2.589  10.250  0.2664 -0.0923  0.3171
  152SAPE   H4X16908   3.586   2.656  10.239  0.9939  0.8098 -0.1602
  152SAPE   H4Y16909   3.635   2.522  10.330  0.5871  0.0880  0.6297
  152SAPE   C3516910   3.700   2.509  10.115  0.0702 -0.6484 -0.9342
  152SAPE   H5X16911   3.760   2.571  10.045  1.7678 -1.4512 -0.2509
  152SAPE   H5Y16912   3.601   2.492  10.069 -0.8719 -0.7919  1.0637
  152SAPE   C3616913   3.771   2.383  10.144  0.2111 -0.3636 -0.0864
  152SAPE   H6X16914   3.714   2.323  10.219  0.1298  0.5892  0.6337
  152SAPE   H6Y16915   3.871   2.398  10.189  0.3180  2.3224 -1.0395
  152SAPE   C3716916   3.779   2.300  10.016 -0.2170  0.1273  0.2225
  152SAPE   H7X16917   3.679   2.280   9.972 -1.0223 -3.5522  3.2208
  152SAPE   H7Y16918   3.817   2.200  10.043 -0.2635  0.1652  0.4292
  152SAPE   C3816919   3.863   2.359   9.904  0.6005 -0.1867  0.0931
  152SAPE   H8X16920   3.959   2.362   9.960  1.2142 -0.7141 -0.8924
  152SAPE   H8Y16921   3.820   2.458   9.879 -0.6085 -1.2282 -2.3182
  152SAPE   C3916922   3.880   2.274   9.777 -0.1625  0.3608  0.6940
  152SAPE   H9X16923   3.779   2.250   9.739 -0.3408 -1.8866  2.3267
  152SAPE   H9Y16924   3.922   2.173   9.798 -0.6474 -0.3594 -1.5321
  152SAPE  C31016925   3.973   2.346   9.673  0.0030 -0.5701 -0.1086
  152SAPE  H10X16926   4.060   2.386   9.729 -0.6403 -1.1487  1.3556
  152SAPE  H10Y16927   3.916   2.433   9.633 -0.7386 -1.1238 -0.2747
  152SAPE  C31116928   4.030   2.253   9.566 -0.0974  0.1829 -0.5570
  152SAPE  H11X16929   3.957   2.169   9.560  0.5066 -0.5218  1.2791
  152SAPE  H11Y16930   4.122   2.197   9.593  0.1826 -0.0529 -1.8948
  152SAPE  C31216931   4.025   2.323   9.431  0.2286 -0.0597 -0.4841
  152SAPE  H12X16932   4.090   2.412   9.419 -1.6375  1.1307 -2.4735
  152SAPE  H12Y16933   3.920   2.356   9.420 -0.3912 -1.3751  0.9626
  152SAPE  C31316934   4.068   2.230   9.317  0.1445  0.6860 -0.1054
  152SAPE  H13X16935   3.987   2.155   9.308  0.7091 -0.1842  1.5996
  152SAPE  H13Y16936   4.157   2.177   9.357  0.4661  1.2088 -0.1274
  152SAPE  C31416937   4.097   2.312   9.191 -0.2575 -0.2419  0.2899
  152SAPE  H14X16938   4.187   2.374   9.212  0.5538 -0.8533 -1.2971
  152SAPE  H14Y16939   4.003   2.371   9.184 -0.3141 -0.2965  0.5886
  152SAPE  C31516940   4.132   2.244   9.063 -0.0640  0.8703  0.5394
  152SAPE  H15X16941   4.115   2.317   8.982  0.5252  0.9146  0.4509
  152SAPE  H15Y16942   4.067   2.156   9.044 -0.9020  1.0771  2.2448
  152SAPE  C31616943   4.275   2.204   9.054  0.3105 -0.0220 -0.9049
  152SAPE  H16X16944   4.275   2.111   9.114 -1.9710  0.4467 -0.0538
  152SAPE  H16Y16945   4.349   2.267   9.108 -0.4145 -1.9787  2.7486
  152SAPE  C31716946   4.321   2.191   8.910 -0.0713  0.5976 -0.1961
  152SAPE  H17X16947   4.429   2.168   8.905 -0.7890 -3.6830 -0.2320
  152SAPE  H17Y16948   4.311   2.287   8.855  0.9953  0.0990 -1.3184
  152SAPE  C31816949   4.243   2.081   8.837  0.2531 -0.3235  0.6897
  152SAPE  H18X16950   4.278   1.980   8.866  0.5102  0.0691  1.7952
  152SAPE  H18Y16951   4.252   2.091   8.726 -0.6815 -0.5660  0.5786
  152SAPE  H18Z16952   4.133   2.079   8.856  0.3639 -0.5646  1.3012
  153SAPE     N16953   1.526   1.821  10.771 -0.0477  0.0531  0.2089
  153SAPE   HN116954   1.462   1.774  10.839 -0.3596 -0.9199 -0.7271
  153SAPE   HN216955   1.605   1.864  10.823  1.0810 -2.6213  0.9024
  153SAPE   HN316956   1.477   1.905  10.734  1.3582  1.5002  1.4774
  153SAPE   C1216957   1.589   1.727  10.669  0.4768 -0.4619 -0.4551
  153SAPE  H12A16958   1.672   1.781  10.619  1.9630 -0.9751  1.3694
  153SAPE  H12B16959   1.521   1.714  10.582 -0.3534 -3.5649  0.5275
  153SAPE   C1116960   1.619   1.592  10.732  0.6545 -0.1963 -0.1899
  153SAPE  H11A16961   1.653   1.528  10.648  0.5398 -1.8493  0.9860
  153SAPE  H11B16962   1.521   1.550  10.762 -0.5261  2.6727  0.2804
  153SAPE     P16963   1.876   1.567  10.807 -0.2588 -0.2592 -0.1357
  153SAPE   O1316964   1.965   1.679  10.854  0.8963  0.0431 -0.0474
  153SAPE   O1416965   1.893   1.437  10.871 -0.5563 -0.4056 -0.1016
  153SAPE   O1216966   1.717   1.600  10.832  0.8012  0.3243  0.9601
  153SAPE   O1116967   1.894   1.539  10.653 -0.0241 -0.2587 -0.0891
  153SAPE    C116968   1.979   1.433  10.606  0.8969 -0.4944 -0.4270
  153SAPE    HA16969   2.086   1.435  10.636  0.4556 -1.9952  1.4658
  153SAPE    HB16970   1.941   1.333  10.636  1.4405 -0.6332 -0.1694
  153SAPE    C216971   1.989   1.434  10.448  0.5690  0.1561  0.5962
  153SAPE    HS16972   2.047   1.345  10.416 -0.3626 -0.2830  0.0851
  153SAPE   O2116973   2.047   1.554  10.404  0.4888  0.4443 -0.0027
  153SAPE   C2116974   2.180   1.547  10.385  0.1643  0.2529 -0.3762
  153SAPE   O2216975   2.259   1.455  10.414 -0.1263 -0.3599  0.3791
  153SAPE   C2216976   2.221   1.682  10.318 -1.2382  0.1980 -0.8290
  153SAPE   H2R16977   2.143   1.757  10.344 -1.8568 -1.1717  1.6519
  153SAPE   H2S16978   2.314   1.718  10.367 -1.0525 -0.9524 -0.3101
  153SAPE    C316979   1.844   1.422  10.384 -1.0518 -0.6552 -0.2803
  153SAPE    HX16980   1.783   1.515  10.392 -3.9969 -2.4744 -0.2883
  153SAPE    HY16981   1.785   1.356  10.451 -1.1946  0.0247  0.2841
  153SAPE   O3116982   1.830   1.386  10.244  0.6829  0.2673 -0.5443
  153SAPE   C3116983   1.875   1.255  10.221  1.0015 -0.8824  0.3791
  153SAPE   O3216984   1.912   1.179  10.302  0.2592 -0.1508 -0.5880
  153SAPE   C3216985   1.868   1.227  10.071 -0.9868  0.1133  0.2535
  153SAPE   H2X16986   1.769   1.181  10.049 -1.8855 -0.0022  3.9781
  153SAPE   H2Y16987   1.959   1.165  10.056 -2.4822 -2.1328  0.0334
  153SAPE   C2316988   2.234   1.679  10.163 -0.3200  0.6757 -0.1897
  153SAPE   H3R16989   2.310   1.605  10.132  0.9888  1.7289  0.3880
  153SAPE   H3S16990   2.266   1.784  10.145  3.1752 -0.4753 -1.4270
  153SAPE   C2416991   2.098   1.659  10.092  0.1677 -0.3440  0.6029
  153SAPE   H4R16992   2.050   1.571  10.140  0.5326  1.0494  3.7839
  153SAPE   H4S16993   2.134   1.634   9.989 -0.7600 -3.0349  0.8439
  153SAPE   C2516994   2.005   1.784  10.071 -0.2075  0.6700 -0.3453
  153SAPE   H5R16995   2.002   1.857  10.153 -1.3936  2.0834 -1.5878
  153SAPE   C2616996   1.928   1.808   9.961 -0.3129  0.8534  0.4218
  153SAPE   H6R16997   1.869   1.900   9.950 -1.9557 -0.0700  1.0873
  153SAPE   C2716998   1.913   1.720   9.840 -0.2379  0.0022  0.3544
  153SAPE   H7R16999   1.805   1.701   9.817 -0.0355  0.4045 -1.0336
  153SAPE   H7S17000   1.962   1.627   9.876  1.1460  0.3488 -0.5777
  153SAPE   C2817001   1.981   1.781   9.723 -1.0467  0.4362  0.8592
  153SAPE   H8R17002   2.073   1.834   9.754 -0.1721  0.6733 -1.9066
  153SAPE   C2917003   1.947   1.787   9.591 -0.5727  0.7010 -0.3749
  153SAPE   H9R17004   2.014   1.847   9.527  1.2351 -2.1584 -1.3498
  153SAPE  C21017005   1.815   1.718   9.539  0.7326 -0.0548  0.4249
  153SAPE  H10R17006   1.761   1.780   9.464 -2.4512  0.2720  2.7509
  153SAPE  H10S17007   1.737   1.727   9.618  1.0568  1.5769  0.5946
  153SAPE  C21117008   1.832   1.578   9.490 -0.2988 -0.2678  0.4153
  153SAPE  H11R17009   1.871   1.508   9.566 -0.3583 -1.0579 -0.2769
  153SAPE  C21217010   1.813   1.529   9.364  0.7323 -0.7495 -0.1279
  153SAPE  H12R17011   1.834   1.424   9.339 -1.4154 -0.8820 -1.6648
  153SAPE  C21317012   1.750   1.611   9.254 -0.1546  0.4825  0.4849
  153SAPE  H13R17013   1.786   1.716   9.246  0.8541 -0.0087 -2.9530
  153SAPE  H13S17014   1.642   1.618   9.279 -0.4634  0.9678 -0.8759
  153SAPE  C21417015   1.770   1.549   9.113  0.1582 -0.1148 -0.4544
  153SAPE  H14R17016   1.855   1.593   9.059 -0.8684 -1.2240 -3.1474
  153SAPE  C21517017   1.689   1.464   9.048  0.2820 -0.1783 -0.5713
  153SAPE  H15R17018   1.712   1.447   8.942 -1.2466 -1.1141 -0.7925
  153SAPE  C21617019   1.560   1.404   9.089 -0.5844 -0.5408  0.3652
  153SAPE  H16R17020   1.534   1.453   9.186  3.0729  1.8531  0.3378
  153SAPE  H16S17021   1.584   1.297   9.105  1.2904 -0.4152 -1.2959
  153SAPE  C21717022   1.454   1.412   8.985 -0.7525 -0.8439 -0.5185
  153SAPE  H17R17023   1.478   1.376   8.883  0.2951  1.8845 -1.3231
  153SAPE  H17S17024   1.438   1.521   8.972  0.7688 -0.7983 -2.3374
  153SAPE  C21817025   1.313   1.356   9.029  0.7114  0.4956 -0.2970
  153SAPE  H18R17026   1.297   1.393   9.133  2.6484 -0.3312  0.3438
  153SAPE  H18S17027   1.326   1.247   9.043  1.1153  0.4773 -0.7786
  153SAPE  C21917028   1.202   1.391   8.930 -0.1896 -0.3196 -0.5323
  153SAPE  H19R17029   1.222   1.495   8.896 -1.6073 -0.0676 -0.6464
  153SAPE  H19S17030   1.107   1.393   8.987 -0.7636  0.4940 -1.4962
  153SAPE  C22017031   1.207   1.296   8.814  1.1724  0.2307  0.4258
  153SAPE  H20R17032   1.289   1.330   8.747  0.2620  0.0246 -0.8258
  153SAPE  H20S17033   1.112   1.321   8.762 -0.2911  1.7153  3.5395
  153SAPE  H20T17034   1.200   1.187   8.835 -2.4075  0.5865  1.6502
  153SAPE   C3317035   1.872   1.360   9.982 -0.0742  0.6116  0.0480
  153SAPE   H3X17036   1.964   1.412  10.015 -1.9245  2.0610  3.3865
  153SAPE   H3Y17037   1.792   1.433  10.009 -0.3437 -0.1215  1.2897
  153SAPE   C3417038   1.863   1.318   9.832  0.3862 -0.4945 -0.4336
  153SAPE   H4X17039   1.943   1.246   9.805 -1.0664 -2.0524 -0.7066
  153SAPE   H4Y17040   1.867   1.408   9.767 -1.1055 -0.2532 -0.2224
  153SAPE   C3517041   1.729   1.245   9.794 -0.0943 -0.6112 -0.1787
  153SAPE   H5X17042   1.637   1.283   9.843  2.0596  0.9777  2.9422
  153SAPE   H5Y17043   1.727   1.135   9.813 -0.6815 -0.2885  1.8535
  153SAPE   C3617044   1.705   1.253   9.645 -0.4946  0.2014  0.5547
  153SAPE   H6X17045   1.673   1.354   9.613 -0.8637  0.1687  0.8139
  153SAPE   H6Y17046   1.621   1.187   9.616 -0.0444  0.2497 -0.9084
  153SAPE   C3717047   1.825   1.212   9.549 -0.3439 -0.4937  0.3875
  153SAPE   H7X17048   1.883   1.143   9.614  1.2602  0.4784  0.0386
  153SAPE   H7Y17049   1.893   1.300   9.540 -1.9573  0.7746  0.0553
  153SAPE   C3817050   1.765   1.164   9.422 -0.0901 -0.3534 -0.0171
  153SAPE   H8X17051   1.692   1.231   9.373  0.3198 -0.4188 -0.7378
  153SAPE   H8Y17052   1.708   1.070   9.436 -0.2457 -0.4801 -1.4338
  153SAPE   C3917053   1.868   1.121   9.312 -0.6617 -0.0807 -0.7797
  153SAPE   H9X17054   1.906   1.019   9.334  0.9790  0.7337  0.3135
  153SAPE   H9Y17055   1.956   1.188   9.318 -0.5224 -0.2907 -0.4602
  153SAPE  C31017056   1.802   1.113   9.177 -0.3354  1.0369  0.7476
  153SAPE  H10X17057   1.766   1.211   9.141 -0.8028  0.0846 -1.6066
  153SAPE  H10Y17058   1.711   1.049   9.185  0.0080  0.4958  0.4465
  153SAPE  C31117059   1.902   1.064   9.058  0.2984  0.2205 -1.0098
  153SAPE  H11X17060   1.850   1.065   8.960  0.3811 -0.1308 -1.0598
  153SAPE  H11Y17061   1.943   0.966   9.091  3.6493  2.3761  2.0193
  153SAPE  C31217062   2.031   1.159   9.049  1.1172 -0.0393  0.2379
  153SAPE  H12X17063   2.077   1.164   9.150 -0.6716 -1.6787  1.2160
  153SAPE  H12Y17064   2.001   1.265   9.035 -1.8807 -0.8062  0.2185
  153SAPE  C31317065   2.133   1.100   8.945  0.8799 -0.1453 -0.2021
  153SAPE  H13X17066   2.107   1.154   8.852 -0.9495  0.3506  0.5522
  153SAPE  H13Y17067   2.105   0.994   8.930  0.0903  0.2979 -2.1502
  153SAPE  C31417068   2.283   1.117   8.988  0.5581  0.0315  0.5031
  153SAPE  H14X17069   2.345   1.046   8.930  0.0310 -0.7901  0.9103
  153SAPE  H14Y17070   2.283   1.092   9.097 -2.4904 -3.4127 -0.0900
  153SAPE  C31517071   2.327   1.265   8.973 -0.2529  0.0546  0.2904
  153SAPE  H15X17072   2.285   1.331   9.051  0.1878  0.9472 -0.2065
  153SAPE  H15Y17073   2.281   1.305   8.880 -0.9233  1.3871  1.1705
  153SAPE  C31617074   2.482   1.283   8.971 -0.2147  0.1410  0.5480
  153SAPE  H16X17075   2.495   1.389   8.942  0.5228 -0.7799 -2.9036
  153SAPE  H16Y17076   2.513   1.225   8.882  1.1327 -1.1758  1.8286
  153SAPE  C31717077   2.565   1.240   9.089  0.4646 -0.7960  0.3095
  153SAPE  H17X17078   2.535   1.139   9.123 -0.9162 -0.1466  1.0954
  153SAPE  H17Y17079   2.532   1.312   9.167 -1.1046  0.4109 -1.3983
  153SAPE  C31817080   2.712   1.254   9.051  0.0590 -0.0173  0.3964
  153SAPE  H18X17081   2.770   1.241   9.145 -0.7231 -0.3798  0.8346
  153SAPE  H18Y17082   2.726   1.353   9.003 -0.9892 -0.5213 -1.0042
  153SAPE  H18Z17083   2.742   1.172   8.982  0.1891  0.9302 -0.7000
  154SAPE     N17084   2.959   5.663  10.922 -0.0004  0.0629 -0.1311
  154SAPE   HN117085   2.902   5.750  10.925  0.2353  0.2035  0.3401
  154SAPE   HN217086   2.928   5.588  10.987  1.0438  0.8172  1.3075
  154SAPE   HN317087   3.060   5.678  10.942 -0.1301  0.2345  0.4319
  154SAPE   C1217088   2.962   5.602  10.778 -0.6576 -0.1442 -0.2171
  154SAPE  H12A17089   3.046   5.533  10.754 -0.8322 -0.1113 -0.9551
  154SAPE  H12B17090   2.988   5.692  10.718  1.4986 -0.2932  0.4149
  154SAPE   C1117091   2.834   5.530  10.748  0.0983  0.5121 -0.3555
  154SAPE  H11A17092   2.824   5.502  10.641 -2.6848  1.2898 -0.3634
  154SAPE  H11B17093   2.738   5.578  10.775 -1.3807 -1.5305 -1.6142
  154SAPE     P17094   2.781   5.370  10.952 -0.1394  0.5538 -0.3059
  154SAPE   O1317095   2.822   5.231  10.992 -0.4318 -0.2094 -0.7794
  154SAPE   O1417096   2.817   5.478  11.044 -0.2194 -0.1900 -0.8026
  154SAPE   O1217097   2.845   5.398  10.812  0.0474 -1.1865 -0.5863
  154SAPE   O1117098   2.626   5.384  10.933 -0.1008 -0.2212  0.3532
  154SAPE    C117099   2.536   5.278  10.916 -0.3115  0.1741  0.2026
  154SAPE    HA17100   2.584   5.189  10.962  1.4591  0.0306 -1.8096
  154SAPE    HB17101   2.451   5.303  10.984 -1.1821 -0.4830 -0.6275
  154SAPE    C217102   2.490   5.243  10.762 -0.3232  0.4981  0.1410
  154SAPE    HS17103   2.431   5.149  10.760  2.3759 -1.3963  1.9050
  154SAPE   O2117104   2.604   5.233  10.667  0.1544  0.4865 -0.6454
  154SAPE   C2117105   2.672   5.122  10.693  0.3921  0.2422  0.5836
  154SAPE   O2217106   2.641   5.031  10.766 -0.1302 -0.0805  0.2797
  154SAPE   C2217107   2.805   5.134  10.615  0.1192  0.3710  0.1864
  154SAPE   H2R17108   2.768   5.197  10.531 -0.4929  0.9964  0.9111
  154SAPE   H2S17109   2.884   5.197  10.660 -1.3996  1.2500  1.7018
  154SAPE    C317110   2.401   5.352  10.710  0.3116 -0.1064  0.1433
  154SAPE    HX17111   2.453   5.448  10.732 -0.6836  0.9540 -1.8487
  154SAPE    HY17112   2.315   5.353  10.780  0.1557  2.1402 -0.0169
  154SAPE   O3117113   2.383   5.329  10.568  0.2102  0.3403  0.0980
  154SAPE   C3117114   2.257   5.293  10.520  0.0955  0.1246  0.2773
  154SAPE   O3217115   2.158   5.293  10.590 -0.4262 -0.5755  0.4061
  154SAPE   C3217116   2.276   5.250  10.370  0.2909  0.6467 -0.2347
  154SAPE   H2X17117   2.227   5.150  10.375 -0.1533  0.8004 -1.2595
  154SAPE   H2Y17118   2.382   5.251  10.339  0.7396 -0.7627  1.1260
  154SAPE   C2317119   2.846   4.994  10.565  0.1697  0.7512 -0.4227
  154SAPE   H3R17120   2.764   4.932  10.522  1.6892 -0.3485 -1.8593
  154SAPE   H3S17121   2.901   4.932  10.639  1.8827 -1.3248 -3.2403
  154SAPE   C2417122   2.955   5.008  10.446  0.8737 -0.3343 -0.9625
  154SAPE   H4R17123   2.890   5.061  10.373  1.7223 -0.7157 -2.0170
  154SAPE   H4S17124   2.968   4.901  10.421  1.0850 -0.5002 -0.1814
  154SAPE   C2517125   3.074   5.085  10.476 -1.3067  0.3252 -0.1205
  154SAPE   H5R17126   3.056   5.190  10.504  0.9056  0.4986  0.8704
  154SAPE   C2617127   3.202   5.040  10.474 -0.1399 -0.4330  0.3654
  154SAPE   H6R17128   3.274   5.120  10.496  0.1792 -0.7692  0.5520
  154SAPE   C2717129   3.250   4.904  10.444 -0.6750 -0.1650  0.4162
  154SAPE   H7R17130   3.253   4.885  10.334  1.0213 -2.5613  0.7779
  154SAPE   H7S17131   3.186   4.824  10.487  1.7434 -1.0187  2.6980
  154SAPE   C2817132   3.385   4.867  10.498 -0.3163  0.0286 -0.2972
  154SAPE   H8R17133   3.403   4.907  10.599 -1.2946 -2.1175  0.7955
  154SAPE   C2917134   3.484   4.788  10.445  0.4742  0.2234 -0.5623
  154SAPE   H9R17135   3.570   4.771  10.511 -0.3385 -1.9267  0.0383
  154SAPE  C21017136   3.495   4.713  10.312 -0.3209  0.6569 -0.8421
  154SAPE  H10R17137   3.403   4.739  10.256  0.1408  1.5190 -1.2146
  154SAPE  H10S17138   3.506   4.610  10.351  0.9948  0.7225 -0.9927
  154SAPE  C21117139   3.624   4.751  10.242 -0.4181  0.3765 -0.2919
  154SAPE  H11R17140   3.715   4.750  10.305 -0.5770  1.1848 -0.0384
  154SAPE  C21217141   3.636   4.789  10.113 -0.4876  0.4940  0.3683
  154SAPE  H12R17142   3.735   4.817  10.072 -1.5266 -0.2785 -3.0582
  154SAPE  C21317143   3.522   4.776  10.015  0.9056  0.4406 -0.3077
  154SAPE  H13R17144   3.469   4.682  10.043  1.1230  0.3746 -0.1128
  154SAPE  H13S17145   3.571   4.759   9.917  3.1643  0.5034  0.7242
  154SAPE  C21417146   3.433   4.898  10.019  0.1062 -0.3134  0.4177
  154SAPE  H14R17147   3.345   4.900  10.085  1.8798  0.9405  2.9496
  154SAPE  C21517148   3.440   5.009   9.937  0.0475 -0.1141 -0.2062
  154SAPE  H15R17149   3.393   5.105   9.962 -1.6736 -0.6512 -1.2352
  154SAPE  C21617150   3.534   5.031   9.822 -0.3585  0.4951  0.1507
  154SAPE  H16R17151   3.624   4.967   9.835 -0.5489 -0.5884 -3.0286
  154SAPE  H16S17152   3.583   5.131   9.826  1.5586 -0.4290  2.1559
  154SAPE  C21717153   3.484   5.013   9.676 -0.1650  0.1798  0.3317
  154SAPE  H17R17154   3.402   5.086   9.664 -1.5087 -1.1683  0.9580
  154SAPE  H17S17155   3.443   4.910   9.669  1.8764 -0.6959  0.6345
  154SAPE  C21817156   3.602   5.022   9.576 -0.3617  0.0166 -1.1791
  154SAPE  H18R17157   3.680   4.952   9.611  0.3459  1.1672 -0.3599
  154SAPE  H18S17158   3.641   5.122   9.604  0.0258 -0.3823 -0.2556
  154SAPE  C21917159   3.558   5.014   9.430 -0.3732 -0.6767  0.6406
  154SAPE  H19R17160   3.488   4.927   9.428 -0.8547 -0.3334 -2.4363
  154SAPE  H19S17161   3.646   4.982   9.369 -0.5198  0.3164 -0.1051
  154SAPE  C22017162   3.485   5.139   9.364  0.2669  0.2556 -0.5441
  154SAPE  H20R17163   3.555   5.223   9.379 -1.0196  1.2161  0.2142
  154SAPE  H20S17164   3.396   5.172   9.422  0.6270 -0.2641  0.3231
  154SAPE  H20T17165   3.464   5.141   9.255 -1.0587 -0.0212 -0.3202
  154SAPE   C3317166   2.202   5.340  10.275 -0.9354 -0.3101 -0.2228
  154SAPE   H3X17167   2.264   5.431  10.261 -0.8938 -0.5208 -1.5152
  154SAPE   H3Y17168   2.105   5.376  10.317 -0.0507 -0.7881  2.3956
  154SAPE   C3417169   2.174   5.288  10.132  0.3213  0.4580  0.3719
  154SAPE   H4X17170   2.083   5.224  10.131  1.3555 -1.0776 -0.3276
  154SAPE   H4Y17171   2.252   5.211  10.112 -1.3360 -1.4532  0.8725
  154SAPE   C3517172   2.168   5.384  10.011  0.0489  0.5677  0.1175
  154SAPE   H5X17173   2.259   5.445  10.031 -0.1763  0.6048  1.0837
  154SAPE   H5Y17174   2.082   5.454  10.015  1.8814  2.9407  0.3256
  154SAPE   C3617175   2.173   5.310   9.873 -0.3871  0.0085 -0.2612
  154SAPE   H6X17176   2.072   5.268   9.854  0.5163 -2.5752  0.2099
  154SAPE   H6Y17177   2.261   5.243   9.884  2.2798  3.1890 -0.7077
  154SAPE   C3717178   2.201   5.415   9.757 -0.0069  0.0670 -0.5230
  154SAPE   H7X17179   2.303   5.458   9.769  0.2684 -0.8513  0.7126
  154SAPE   H7Y17180   2.120   5.490   9.771 -1.4625 -1.3342 -1.1175
  154SAPE   C3817181   2.182   5.354   9.623 -0.1674 -0.4617  0.3720
  154SAPE   H8X17182   2.101   5.278   9.615 -1.5795  1.1738 -3.2314
  154SAPE   H8Y17183   2.277   5.308   9.589  0.3549 -0.5779  1.9099
  154SAPE   C3917184   2.152   5.460   9.513 -0.8002 -0.1434 -0.2237
  154SAPE   H9X17185   2.226   5.540   9.537 -1.6206 -0.2418  3.2295
  154SAPE   H9Y17186   2.049   5.498   9.532 -2.2591 -4.0357  0.7226
  154SAPE  C31017187   2.159   5.404   9.373 -0.4059 -0.0882  0.2877
  154SAPE  H10X17188   2.105   5.307   9.363 -0.1347 -0.0621 -1.7869
  154SAPE  H10Y17189   2.261   5.369   9.346  0.0590  1.2208  0.2777
  154SAPE  C31117190   2.108   5.489   9.261  0.3887 -0.2430 -0.4120
  154SAPE  H11X17191   2.005   5.519   9.290 -0.5563 -0.2728 -3.3868
  154SAPE  H11Y17192   2.105   5.438   9.162  0.1955 -1.4014  0.1677
  154SAPE  C31217193   2.174   5.631   9.254  0.3721  0.6915 -0.8298
  154SAPE  H12X17194   2.282   5.608   9.242  0.1707 -2.0130  1.4393
  154SAPE  H12Y17195   2.161   5.687   9.349 -0.8828 -1.5666  0.4029
  154SAPE  C31317196   2.125   5.712   9.133 -0.0815  0.0001  0.0739
  154SAPE  H13X17197   2.201   5.792   9.121  0.6007 -0.6073  0.2490
  154SAPE  H13Y17198   2.026   5.755   9.156 -1.0089 -1.8618 -0.1733
  154SAPE  C31417199   2.112   5.635   8.996 -0.1380 -0.4703 -0.4177
  154SAPE  H14X17200   2.019   5.575   8.994 -0.3864 -0.0637 -2.2104
  154SAPE  H14Y17201   2.199   5.567   8.986 -0.5449 -1.0977  0.1886
  154SAPE  C31517202   2.103   5.720   8.871 -0.0564 -0.4428 -0.0281
  154SAPE  H15X17203   2.089   5.644   8.791 -2.7038 -1.1112  0.9577
  154SAPE  H15Y17204   2.187   5.788   8.849 -2.8122  3.2133 -0.2167
  154SAPE  C31617205   1.997   5.836   8.859  0.8344  0.7438  0.2827
  154SAPE  H16X17206   2.039   5.917   8.923 -1.9298  1.3987  1.4201
  154SAPE  H16Y17207   1.906   5.805   8.913  2.4307 -0.4228  2.4842
  154SAPE  C31717208   1.981   5.880   8.712  0.1977  0.1428  0.5073
  154SAPE  H17X17209   1.902   5.818   8.666 -0.6332  1.9696 -0.6472
  154SAPE  H17Y17210   2.075   5.879   8.653 -0.3200  0.8122 -0.3508
  154SAPE  C31817211   1.914   6.019   8.694  0.0076  0.2863 -0.3907
  154SAPE  H18X17212   1.888   6.041   8.589  0.2962 -1.8207 -0.9487
  154SAPE  H18Y17213   1.989   6.085   8.743  1.1370 -2.6990  2.2792
  154SAPE  H18Z17214   1.820   6.022   8.753  0.7076 -1.2492  0.8869
  155SAPE     N17215   4.126   5.375  11.100 -0.1776 -0.0097 -0.2999
  155SAPE   HN117216   4.038   5.329  11.070 -0.9498 -0.9269  2.9345
  155SAPE   HN217217   4.134   5.357  11.202  1.2229  1.6844 -0.0615
  155SAPE   HN317218   4.129   5.478  11.085  1.4766 -0.2214 -1.7215
  155SAPE   C1217219   4.245   5.313  11.043 -0.5157 -0.1369  0.5724
  155SAPE  H12A17220   4.227   5.323  10.934 -1.5096  1.3414  0.8475
  155SAPE  H12B17221   4.256   5.206  11.071 -2.0947 -0.7073 -0.8743
  155SAPE   C1117222   4.371   5.393  11.081  0.0532  0.2899  0.0411
  155SAPE  H11A17223   4.453   5.379  11.008  0.3079  1.7325  0.0292
  155SAPE  H11B17224   4.389   5.351  11.182 -1.8221 -0.3207  0.1663
  155SAPE     P17225   4.424   5.650  11.052 -0.1285  0.0659 -0.0435
  155SAPE   O1317226   4.335   5.766  11.052 -0.5011 -0.0874  0.5171
  155SAPE   O1417227   4.548   5.659  11.124  0.1367 -0.1586 -0.1479
  155SAPE   O1217228   4.336   5.526  11.101 -0.3470  0.1684  0.0726
  155SAPE   O1117229   4.440   5.605  10.898 -0.5152 -0.4837  0.4007
  155SAPE    C117230   4.331   5.560  10.810  0.2286 -0.1600 -0.5451
  155SAPE    HA17231   4.349   5.454  10.782  2.1638  0.5106 -2.0223
  155SAPE    HB17232   4.234   5.570  10.864  1.7118  0.5083  2.2004
  155SAPE    C217233   4.325   5.651  10.685  0.0902 -0.5522  0.2421
  155SAPE    HS17234   4.224   5.642  10.640  0.1070 -1.7860  0.4234
  155SAPE   O2117235   4.418   5.610  10.587  0.1729 -0.0205 -0.1316
  155SAPE   C2117236   4.385   5.504  10.513  0.5570 -0.0379  0.2678
  155SAPE   O2217237   4.290   5.429  10.532  0.1704 -0.1846  0.6164
  155SAPE   C2217238   4.481   5.483  10.399 -0.5873 -0.1860  0.4398
  155SAPE   H2R17239   4.475   5.562  10.321 -0.3332 -1.9637 -1.4687
  155SAPE   H2S17240   4.582   5.479  10.446  0.4270 -0.6799 -1.6397
  155SAPE    C317241   4.340   5.806  10.717  0.6080 -0.4555  0.4716
  155SAPE    HX17242   4.433   5.828  10.772  0.5338  3.0352 -0.5675
  155SAPE    HY17243   4.255   5.838  10.781 -0.7106 -0.0207 -1.3869
  155SAPE   O3117244   4.322   5.892  10.607  0.2383 -0.0833 -0.4089
  155SAPE   C3117245   4.423   5.915  10.528  0.2841  0.4943  0.4225
  155SAPE   O3217246   4.536   5.867  10.536  0.6497  0.3175  0.0052
  155SAPE   C3217247   4.372   6.004  10.411  0.4762 -0.1115  0.2505
  155SAPE   H2X17248   4.384   6.111  10.437  0.0474 -0.2140  0.8940
  155SAPE   H2Y17249   4.266   5.986  10.383  0.5419  1.8427 -1.4127
  155SAPE   C2317250   4.479   5.343  10.325  0.2659  0.0534 -0.1259
  155SAPE   H3R17251   4.444   5.262  10.392 -1.3856  0.1620 -0.8078
  155SAPE   H3S17252   4.584   5.331  10.291  0.3410  1.7558 -0.6145
  155SAPE   C2417253   4.386   5.343  10.203  0.4687 -0.3269  0.2346
  155SAPE   H4R17254   4.436   5.408  10.128  0.9909 -0.1059  0.7685
  155SAPE   H4S17255   4.288   5.393  10.216  0.1834 -0.4597 -1.2254
  155SAPE   C2517256   4.360   5.203  10.146  0.4067  1.1140 -0.0955
  155SAPE   H5R17257   4.289   5.141  10.202  0.7850  0.3328 -0.4544
  155SAPE   C2617258   4.444   5.152  10.051  0.0967 -0.4694 -0.2866
  155SAPE   H6R17259   4.427   5.049  10.016 -0.3889 -0.4325 -0.1728
  155SAPE   C2717260   4.550   5.232   9.991  0.1564 -0.2232 -0.2137
  155SAPE   H7R17261   4.621   5.267  10.069  0.1199 -0.2330 -0.1765
  155SAPE   H7S17262   4.511   5.318   9.932 -1.0558 -1.7673 -1.7683
  155SAPE   C2817263   4.639   5.144   9.908 -0.3526 -0.4167  0.6656
  155SAPE   H8R17264   4.680   5.055   9.958  0.6381  0.8941  2.2960
  155SAPE   C2917265   4.681   5.178   9.784 -0.4689  0.2162  0.4838
  155SAPE   H9R17266   4.738   5.102   9.729 -0.0067 -1.9945  3.7134
  155SAPE  C21017267   4.648   5.302   9.705 -0.8244 -0.3283 -0.1461
  155SAPE  H10R17268   4.682   5.386   9.770 -0.7132 -0.1840 -0.3870
  155SAPE  H10S17269   4.538   5.317   9.700 -0.8060  0.2687  0.9604
  155SAPE  C21117270   4.719   5.316   9.569 -0.3126  0.4431  0.6000
  155SAPE  H11R17271   4.829   5.318   9.576 -0.0667 -1.4631 -1.6182
  155SAPE  C21217272   4.662   5.329   9.446  0.4443 -0.6213  0.1557
  155SAPE  H12R17273   4.727   5.325   9.358  1.3621 -4.0321  0.8309
  155SAPE  C21317274   4.518   5.342   9.415  0.4176 -0.1499 -0.0035
  155SAPE  H13R17275   4.497   5.416   9.335 -2.5342 -2.6069 -1.7431
  155SAPE  H13S17276   4.460   5.371   9.505  2.0056  0.1326  0.9664
  155SAPE  C21417277   4.457   5.204   9.387 -0.6102 -0.3958 -0.4120
  155SAPE  H14R17278   4.446   5.143   9.478  0.3579 -0.4123 -0.2924
  155SAPE  C21517279   4.407   5.167   9.269 -0.6993  0.2569  1.1591
  155SAPE  H15R17280   4.373   5.063   9.255  0.5375 -0.0244  0.0315
  155SAPE  C21617281   4.416   5.252   9.145 -0.0930 -0.0046  0.2801
  155SAPE  H16R17282   4.480   5.341   9.167  0.0218  0.6913 -2.4488
  155SAPE  H16S17283   4.315   5.289   9.115  0.9188  2.4270 -0.4539
  155SAPE  C21717284   4.481   5.181   9.022  0.0047  0.4942 -0.0800
  155SAPE  H17R17285   4.446   5.075   9.014 -0.8250  0.8296 -1.2009
  155SAPE  H17S17286   4.588   5.160   9.046 -0.2105  1.1662  1.5911
  155SAPE  C21817287   4.462   5.256   8.897 -0.4757  0.8016  0.0720
  155SAPE  H18R17288   4.527   5.210   8.820  0.1300  1.4904  0.1615
  155SAPE  H18S17289   4.485   5.364   8.903 -0.6695  0.7959  1.2569
  155SAPE  C21917290   4.318   5.237   8.842  0.4156  0.8391  0.0618
  155SAPE  H19R17291   4.238   5.273   8.911 -1.0917  2.7131 -2.4557
  155SAPE  H19S17292   4.298   5.128   8.843 -0.6593  0.9889 -1.5379
  155SAPE  C22017293   4.296   5.299   8.706  0.0831 -0.4016 -0.0177
  155SAPE  H20R17294   4.367   5.384   8.699  0.1858 -0.1766  2.5064
  155SAPE  H20S17295   4.189   5.327   8.691 -0.0105  0.4730  1.8991
  155SAPE  H20T17296   4.328   5.224   8.632 -3.0815 -1.0838 -0.8380
  155SAPE   C3317297   4.452   5.963  10.284 -0.5579 -0.2273  0.7643
  155SAPE   H3X17298   4.441   5.860  10.243  2.6939 -0.3654 -0.0660
  155SAPE   H3Y17299   4.562   5.966  10.299 -0.4325 -0.6985  0.0118
  155SAPE   C3417300   4.436   6.064  10.157 -0.0839  0.3539 -1.1387
  155SAPE   H4X17301   4.479   6.166  10.161  0.6611  0.0386 -0.8557
  155SAPE   H4Y17302   4.326   6.077  10.162 -0.0282  0.4750  1.4967
  155SAPE   C3517303   4.473   5.999  10.019  0.6958 -0.0648  0.6086
  155SAPE   H5X17304   4.432   5.896  10.009 -0.0711  0.3345 -0.5679
  155SAPE   H5Y17305   4.583   5.993  10.009  0.9652  1.0190  2.4863
  155SAPE   C3617306   4.403   6.088   9.911 -0.3842  0.4487  0.3518
  155SAPE   H6X17307   4.441   6.192   9.903  0.1134  0.3186  0.9400
  155SAPE   H6Y17308   4.297   6.101   9.944 -1.3290 -0.7966 -1.9834
  155SAPE   C3717309   4.401   6.017   9.775  0.4859 -0.5221 -0.9413
  155SAPE   H7X17310   4.342   5.922   9.775  0.9064 -0.8074  0.7893
  155SAPE   H7Y17311   4.501   5.974   9.753  0.9645 -0.8133  1.5912
  155SAPE   C3817312   4.337   6.098   9.664 -0.2159 -0.1103  0.4637
  155SAPE   H8X17313   4.409   6.175   9.629  0.9039 -0.0952  2.6214
  155SAPE   H8Y17314   4.247   6.152   9.702 -0.0095 -0.0281  0.8478
  155SAPE   C3917315   4.297   6.011   9.546 -0.2873 -0.3903  0.6233
  155SAPE   H9X17316   4.258   5.916   9.587  2.8652 -1.4943  1.2881
  155SAPE   H9Y17317   4.381   5.982   9.480 -0.7603  0.2883 -0.2969
  155SAPE  C31017318   4.191   6.078   9.464  0.2725 -0.6829 -0.2539
  155SAPE  H10X17319   4.222   6.183   9.445 -1.3506 -0.1853 -0.3485
  155SAPE  H10Y17320   4.098   6.092   9.524  0.6900 -1.9925  0.7537
  155SAPE  C31117321   4.175   6.005   9.338  0.3071 -0.6431  0.1583
  155SAPE  H11X17322   4.155   5.897   9.354 -0.4363 -0.5845 -0.3302
  155SAPE  H11Y17323   4.280   5.997   9.301  0.2965 -1.1161  0.2308
  155SAPE  C31217324   4.090   6.080   9.241 -0.6099 -0.3157  0.5239
  155SAPE  H12X17325   4.094   6.045   9.136  2.1938  0.2731  0.3678
  155SAPE  H12Y17326   4.149   6.173   9.230  1.4341 -1.8536 -3.5567
  155SAPE  C31317327   3.946   6.105   9.280  0.1564  0.5382  0.6560
  155SAPE  H13X17328   3.953   6.138   9.385 -3.3366  1.1335  0.8261
  155SAPE  H13Y17329   3.878   6.018   9.277  1.0203 -0.1587 -2.4011
  155SAPE  C31417330   3.882   6.222   9.209  0.2379  0.0524 -0.6646
  155SAPE  H14X17331   3.924   6.219   9.106 -0.0871  0.8924 -0.8278
  155SAPE  H14Y17332   3.911   6.318   9.256 -0.7625 -0.8621  2.0132
  155SAPE  C31517333   3.730   6.217   9.217 -0.2930  0.3188  0.0247
  155SAPE  H15X17334   3.699   6.323   9.232  0.7682  0.3592  2.3300
  155SAPE  H15Y17335   3.708   6.155   9.306 -0.0716  1.3815  0.8458
  155SAPE  C31617336   3.669   6.144   9.102 -0.1259 -0.2403  0.4892
  155SAPE  H16X17337   3.571   6.106   9.139 -0.3339  1.3700  1.6776
  155SAPE  H16Y17338   3.730   6.054   9.079  0.0674  0.2885 -1.2132
  155SAPE  C31717339   3.660   6.228   8.966  0.1369  0.1789 -0.3837
  155SAPE  H17X17340   3.767   6.241   8.940 -0.0118 -0.3093 -1.2688
  155SAPE  H17Y17341   3.604   6.323   8.980 -3.7365 -1.6406 -2.0443
  155SAPE  C31817342   3.583   6.132   8.876 -0.2794  0.0516 -0.0362
  155SAPE  H18X17343   3.584   6.161   8.769 -0.7269 -2.9619 -0.9563
  155SAPE  H18Y17344   3.476   6.129   8.906  0.5906 -0.4157  3.4397
  155SAPE  H18Z17345   3.622   6.028   8.882 -1.3092 -0.4513 -1.5988
  156SAPE     N17346   2.094   2.277  10.858  0.2424 -0.2949  0.8706
  156SAPE   HN117347   2.173   2.286  10.925  0.4225  0.0790  0.6065
  156SAPE   HN217348   2.055   2.373  10.851  1.2357 -0.0055 -2.7631
  156SAPE   HN317349   2.022   2.208  10.889 -0.1913 -0.6091 -0.7663
  156SAPE   C1217350   2.146   2.252  10.715  0.1280 -0.1493  0.2660
  156SAPE  H12A17351   2.075   2.181  10.668 -0.6760 -0.5427  1.9705
  156SAPE  H12B17352   2.251   2.214  10.720  1.4599  2.8455 -2.1347
  156SAPE   C1117353   2.156   2.389  10.635 -0.0826 -0.0871 -0.7254
  156SAPE  H11A17354   2.052   2.414  10.606 -0.4120 -0.9732 -0.3610
  156SAPE  H11B17355   2.210   2.375  10.539 -1.5637 -0.6293 -1.5244
  156SAPE     P17356   2.136   2.623  10.762 -0.1458 -0.2243 -0.0984
  156SAPE   O1317357   2.028   2.581  10.857  0.0750 -0.4650  0.0997
  156SAPE   O1417358   2.238   2.723  10.806  0.4428  0.6773 -0.2592
  156SAPE   O1217359   2.210   2.490  10.708 -0.6169  0.4585  0.2982
  156SAPE   O1117360   2.068   2.678  10.625  0.1066  0.3088  0.2960
  156SAPE    C117361   2.153   2.725  10.522 -0.2536  0.0027  0.0155
  156SAPE    HA17362   2.223   2.807  10.549  1.8790 -0.9863 -2.1699
  156SAPE    HB17363   2.213   2.643  10.476  1.0274  1.3690 -0.8221
  156SAPE    C217364   2.078   2.780  10.395  0.4493  0.0902 -0.2449
  156SAPE    HS17365   2.146   2.839  10.331  0.6435 -2.0597 -2.1397
  156SAPE   O2117366   1.954   2.847  10.424 -0.4346  0.5239 -0.4240
  156SAPE   C2117367   1.974   2.965  10.489 -0.4518  0.0164 -0.2072
  156SAPE   O2217368   2.080   3.007  10.532  0.6441  0.7817  0.0840
  156SAPE   C2217369   1.847   3.052  10.492 -0.0974 -0.4523  0.0231
  156SAPE   H2R17370   1.774   3.012  10.419 -0.9105 -1.8005  1.5165
  156SAPE   H2S17371   1.803   3.034  10.592 -1.9890 -0.9074 -0.8453
  156SAPE    C317372   2.042   2.660  10.290 -0.0725  0.1738  0.5751
  156SAPE    HX17373   1.956   2.602  10.328  0.5625 -0.8701  0.4632
  156SAPE    HY17374   2.132   2.595  10.292  0.6749  0.9764 -2.1519
  156SAPE   O3117375   2.022   2.711  10.160  0.3167  0.1605  0.6769
  156SAPE   C3117376   2.032   2.609  10.063 -0.1399 -0.2241 -0.4493
  156SAPE   O3217377   2.031   2.493  10.095  0.0667  0.3365  0.3721
  156SAPE   C3217378   2.050   2.670   9.928  0.4124  0.7775 -0.1256
  156SAPE   H2X17379   2.143   2.729   9.916  0.3448  1.4933  2.2828
  156SAPE   H2Y17380   1.973   2.750   9.926 -0.2523  0.1678  0.3533
  156SAPE   C2317381   1.872   3.203  10.464  0.3446 -0.0209  0.2171
  156SAPE   H3R17382   1.951   3.243  10.532 -0.9091  3.1582 -0.0355
  156SAPE   H3S17383   1.783   3.256  10.503 -0.3605 -1.6437  0.9017
  156SAPE   C2417384   1.922   3.241  10.323 -0.1834  0.8140 -0.0378
  156SAPE   H4R17385   2.018   3.184  10.320  0.1590  1.4116 -1.5821
  156SAPE   H4S17386   1.938   3.351  10.319  0.6733  0.7486  1.0183
  156SAPE   C2517387   1.835   3.183  10.219 -0.4331 -0.1605  0.0776
  156SAPE   H5R17388   1.738   3.153  10.261  0.5343 -1.8126  1.2297
  156SAPE   C2617389   1.861   3.160  10.089 -0.2723  1.1206 -0.4764
  156SAPE   H6R17390   1.792   3.099  10.028  2.4241 -1.8603 -0.8154
  156SAPE   C2717391   1.989   3.176  10.014 -0.7366 -0.3207  0.8158
  156SAPE   H7R17392   2.065   3.230  10.075 -1.0614  0.2011  0.7675
  156SAPE   H7S17393   1.982   3.240   9.923 -1.7113 -2.2110 -0.4969
  156SAPE   C2817394   2.064   3.049   9.992  0.3169 -0.3577  0.8876
  156SAPE   H8R17395   2.100   3.000  10.083  0.5530  1.0961  1.6025
  156SAPE   C2917396   2.106   3.009   9.869 -0.1970 -0.8577 -0.2617
  156SAPE   H9R17397   2.175   2.923   9.867 -1.1440 -1.8835  3.1210
  156SAPE  C21017398   2.083   3.072   9.735 -0.3855  0.0515 -0.4035
  156SAPE  H10R17399   2.183   3.063   9.688  0.7257  0.6778  1.7254
  156SAPE  H10S17400   2.051   3.177   9.748  2.3054  0.8818  0.2163
  156SAPE  C21117401   1.967   3.002   9.674 -0.1099  0.4347  0.7436
  156SAPE  H11R17402   1.894   2.961   9.745  0.2619  1.6841  1.8859
  156SAPE  C21217403   1.946   2.971   9.545 -0.6995  0.6473 -0.2221
  156SAPE  H12R17404   1.864   2.907   9.509 -0.6069  1.6982 -2.4462
  156SAPE  C21317405   2.029   2.997   9.419 -0.0827 -0.4602 -0.3009
  156SAPE  H13R17406   2.056   2.902   9.368 -1.9814 -2.0063  1.3933
  156SAPE  H13S17407   2.124   3.046   9.450  0.6234 -2.0203  0.0835
  156SAPE  C21417408   1.966   3.102   9.325  0.0096  0.0533  0.1186
  156SAPE  H14R17409   1.927   3.192   9.375  0.1820 -0.6354  1.5385
  156SAPE  C21517410   1.939   3.088   9.193  0.1272  0.4572 -0.8898
  156SAPE  H15R17411   1.898   3.175   9.141 -0.1732  1.4847  0.9691
  156SAPE  C21617412   1.971   2.977   9.100  0.2795  0.2260 -0.1468
  156SAPE  H16R17413   1.889   2.971   9.025 -0.2894 -0.2622  0.4945
  156SAPE  H16S17414   1.974   2.873   9.140 -1.0466  0.6089  1.0445
  156SAPE  C21717415   2.101   2.997   9.016 -0.0099  0.0235  1.1703
  156SAPE  H17R17416   2.116   2.913   8.946 -1.2177  0.8009 -0.0846
  156SAPE  H17S17417   2.185   2.985   9.087 -0.3074  1.3820  1.7852
  156SAPE  C21817418   2.108   3.126   8.944 -0.0774  0.1198  0.1243
  156SAPE  H18R17419   2.206   3.130   8.893 -0.6779  0.4394 -1.0593
  156SAPE  H18S17420   2.088   3.214   9.009 -2.8441 -0.2124 -0.1402
  156SAPE  C21917421   2.002   3.139   8.831 -0.5792  0.3395  0.3437
  156SAPE  H19R17422   1.899   3.137   8.873 -1.8824  1.4493 -2.5636
  156SAPE  H19S17423   2.025   3.057   8.760  0.0866 -0.6996  1.6994
  156SAPE  C22017424   2.021   3.258   8.741  0.1491 -0.5098 -0.0278
  156SAPE  H20R17425   2.024   3.348   8.806  0.0114 -1.6032  1.5738
  156SAPE  H20S17426   1.938   3.266   8.669 -1.0792  0.0191  1.3972
  156SAPE  H20T17427   2.121   3.266   8.693  0.0932  0.0375 -0.0490
  156SAPE   C3317428   2.039   2.565   9.815 -0.8030  0.1225  1.0184
  156SAPE   H3X17429   1.951   2.499   9.828  1.0026 -2.1652  2.2874
  156SAPE   H3Y17430   2.128   2.500   9.828 -0.9307 -0.3352 -0.2380
  156SAPE   C3417431   2.041   2.628   9.675  0.0884 -0.0339  0.3218
  156SAPE   H4X17432   2.126   2.698   9.663 -0.9372  1.1488 -0.2563
  156SAPE   H4Y17433   1.951   2.691   9.657 -1.2555 -1.1239  2.7420
  156SAPE   C3517434   2.050   2.520   9.564 -0.0572  1.4044 -0.4326
  156SAPE   H5X17435   1.966   2.450   9.586  0.2146  1.3577  0.5204
  156SAPE   H5Y17436   2.145   2.466   9.587 -0.1583  0.8118 -1.3524
  156SAPE   C3617437   2.041   2.576   9.419 -0.7294 -0.0914 -0.1876
  156SAPE   H6X17438   2.139   2.619   9.387 -0.3679  0.5527  1.7020
  156SAPE   H6Y17439   1.973   2.663   9.416  0.0906  0.5539 -0.6193
  156SAPE   C3717440   1.999   2.462   9.322  0.2767  0.0553 -0.3079
  156SAPE   H7X17441   1.906   2.407   9.347  0.4420 -0.4840 -0.8542
  156SAPE   H7Y17442   2.083   2.390   9.314  0.4168  0.3572 -1.9966
  156SAPE   C3817443   1.986   2.518   9.181 -0.4817 -0.5101  0.1524
  156SAPE   H8X17444   2.091   2.539   9.152 -0.5813  0.3011  0.3393
  156SAPE   H8Y17445   1.920   2.608   9.178  1.0873  0.6564 -0.7677
  156SAPE   C3917446   1.933   2.423   9.075  0.4096 -0.7595 -0.8637
  156SAPE   H9X17447   1.829   2.402   9.108 -0.0977  1.3972 -0.9347
  156SAPE   H9Y17448   2.004   2.339   9.082  0.1960 -0.8565  0.4449
  156SAPE  C31017449   1.923   2.484   8.933 -0.2149 -0.2681 -0.2057
  156SAPE  H10X17450   2.028   2.469   8.900 -0.3748 -0.8944 -0.4475
  156SAPE  H10Y17451   1.894   2.591   8.938 -0.9062 -0.5039  1.3863
  156SAPE  C31117452   1.832   2.400   8.848  0.7988 -0.0802 -0.4014
  156SAPE  H11X17453   1.726   2.403   8.881  0.4301 -1.4285 -1.3878
  156SAPE  H11Y17454   1.863   2.293   8.849  0.1115 -0.3191 -1.5631
  156SAPE  C31217455   1.832   2.467   8.707  0.2434  0.3168 -0.3447
  156SAPE  H12X17456   1.922   2.433   8.652  0.6801  1.3235 -0.2801
  156SAPE  H12Y17457   1.833   2.577   8.723  0.5131  0.4275 -1.0865
  156SAPE  C31317458   1.702   2.429   8.634 -0.4861  0.2733  0.3814
  156SAPE  H13X17459   1.612   2.443   8.697 -0.1262 -3.9683  2.1641
  156SAPE  H13Y17460   1.692   2.319   8.623 -0.3554  0.2606  0.3890
  156SAPE  C31417461   1.697   2.503   8.497 -0.2962  0.6987  0.5669
  156SAPE  H14X17462   1.712   2.609   8.526  2.2532  0.3606  0.7052
  156SAPE  H14Y17463   1.598   2.485   8.449  0.6966 -1.0927 -0.9188
  156SAPE  C31517464   1.807   2.479   8.387  0.4683  0.6372 -0.2229
  156SAPE  H15X17465   1.902   2.532   8.408  1.1057 -0.3716 -0.5208
  156SAPE  H15Y17466   1.776   2.514   8.286 -1.4278 -1.0399 -0.2842
  156SAPE  C31617467   1.832   2.326   8.372  0.7711 -0.1087  0.5317
  156SAPE  H16X17468   1.859   2.287   8.473  1.3889  2.9858  1.7034
  156SAPE  H16Y17469   1.915   2.301   8.302  0.7311 -0.1512  0.4996
  156SAPE  C31717470   1.708   2.254   8.309  0.1983 -0.0784 -0.0312
  156SAPE  H17X17471   1.657   2.314   8.230 -1.1084 -2.7499 -1.3521
  156SAPE  H17Y17472   1.638   2.237   8.393  0.9463  0.3968  0.7010
  156SAPE  C31817473   1.739   2.117   8.227  0.2826  0.1121  0.3581
  156SAPE  H18X17474   1.746   2.034   8.301 -1.2248 -0.8284 -0.5029
  156SAPE  H18Y17475   1.833   2.128   8.169  0.2998 -1.3219  0.0983
  156SAPE  H18Z17476   1.657   2.094   8.156  2.8376 -1.6800 -2.2607
  157SAPE     N17477   0.852   4.580  10.898 -0.3067 -0.2799 -0.2992
  157SAPE   HN117478   0.867   4.481  10.926  0.1629 -0.3091 -0.6542
  157SAPE   HN217479   0.752   4.583  10.868 -1.0362 -0.7610  1.8550
  157SAPE   HN317480   0.927   4.591  10.828 -0.2251 -1.3860 -0.4129
  157SAPE   C1217481   0.878   4.684  10.999  0.8471 -0.5265 -0.0164
  157SAPE  H12A17482   0.954   4.639  11.066  0.2106 -1.2213  0.2516
  157SAPE  H12B17483   0.781   4.697  11.052  0.5695 -0.1381 -0.6150
  157SAPE   C1117484   0.943   4.811  10.940  0.0514 -0.7819  0.3477
  157SAPE  H11A17485   0.988   4.875  11.019  2.3772  0.1614 -1.6540
  157SAPE  H11B17486   0.872   4.875  10.883  1.4008  1.1741  0.7422
  157SAPE     P17487   1.096   4.863  10.725  0.2024 -0.1120  0.1678
  157SAPE   O1317488   1.025   4.993  10.712  0.6316  0.1735  0.5263
  157SAPE   O1417489   1.242   4.871  10.731  0.0448  0.6118 -0.2470
  157SAPE   O1217490   1.051   4.776  10.853  0.6501 -0.1496 -0.5081
  157SAPE   O1117491   1.065   4.765  10.606 -0.0598  0.0143 -0.4898
  157SAPE    C117492   0.971   4.790  10.500 -0.4700  0.2480  0.4389
  157SAPE    HA17493   0.914   4.883  10.522 -0.6885 -0.5913  4.2417
  157SAPE    HB17494   1.028   4.804  10.406 -0.2412 -1.1302  0.3527
  157SAPE    C217495   0.875   4.669  10.476  0.4686 -0.1677  0.1673
  157SAPE    HS17496   0.825   4.647  10.573  0.4006 -2.1682 -0.2769
  157SAPE   O2117497   0.955   4.557  10.426 -0.0742 -0.6289  0.4216
  157SAPE   C2117498   0.995   4.482  10.519  0.8855 -0.1227  0.4031
  157SAPE   O2217499   0.970   4.494  10.640 -0.0306 -0.0050 -0.4075
  157SAPE   C2217500   1.081   4.371  10.466 -0.4586  0.0503 -0.0302
  157SAPE   H2R17501   1.183   4.413  10.453  0.5101 -2.0259  0.3823
  157SAPE   H2S17502   1.093   4.292  10.543  1.5374 -1.1253 -1.4476
  157SAPE    C317503   0.764   4.716  10.381  0.7831 -0.0761  0.3593
  157SAPE    HX17504   0.705   4.805  10.412 -0.0757  0.1296 -1.7443
  157SAPE    HY17505   0.683   4.640  10.376  0.4238  0.3687 -1.0996
  157SAPE   O3117506   0.819   4.734  10.248  0.2292  0.2668 -0.1483
  157SAPE   C3117507   0.728   4.756  10.150 -0.5468 -0.2280 -0.2989
  157SAPE   O3217508   0.612   4.756  10.163 -0.0054  0.2243 -0.4188
  157SAPE   C3217509   0.795   4.778  10.019 -0.2624  0.1850  0.0501
  157SAPE   H2X17510   0.777   4.884   9.992 -1.2198  0.0546  0.1232
  157SAPE   H2Y17511   0.735   4.712   9.953 -1.2069 -0.6838  1.6920
  157SAPE   C2317512   1.031   4.294  10.329 -0.0104 -0.4113  0.1379
  157SAPE   H3R17513   1.055   4.363  10.245  0.0921 -0.6592 -0.0362
  157SAPE   H3S17514   0.921   4.279  10.337  0.0912 -0.8357  0.7519
  157SAPE   C2417515   1.098   4.163  10.304  0.2786  0.0846 -0.3253
  157SAPE   H4R17516   1.090   4.110  10.401  0.3029  1.6163  0.5394
  157SAPE   H4S17517   1.204   4.184  10.280  0.5406  0.2216  0.9177
  157SAPE   C2517518   1.031   4.079  10.197  0.2436  0.3838  0.9251
  157SAPE   H5R17519   0.929   4.042  10.213 -0.0296  0.9157  0.4586
  157SAPE   C2617520   1.109   4.034  10.085  0.5250 -0.2501 -0.3538
  157SAPE   H6R17521   1.071   3.955  10.018 -1.3974  0.6382 -0.3720
  157SAPE   C2717522   1.250   4.078  10.067 -0.1006 -0.4655  0.1943
  157SAPE   H7R17523   1.251   4.188  10.084  0.3594 -0.1069 -1.8397
  157SAPE   H7S17524   1.257   4.058   9.958 -0.5602 -0.2202  0.1183
  157SAPE   C2817525   1.362   4.004  10.138 -0.3377 -0.5969 -0.2686
  157SAPE   H8R17526   1.330   3.969  10.237 -1.1033 -2.8706 -1.2512
  157SAPE   C2917527   1.487   4.007  10.093 -0.5307 -0.2934 -0.3922
  157SAPE   H9R17528   1.569   3.972  10.157  0.1144  1.3448 -0.2635
  157SAPE  C21017529   1.535   4.072   9.965 -1.0026 -0.0218  0.0006
  157SAPE  H10R17530   1.452   4.109   9.901 -2.8071 -1.8938  1.1111
  157SAPE  H10S17531   1.600   4.003   9.907  0.0131  0.9983 -0.1042
  157SAPE  C21117532   1.622   4.193   9.987  0.2529 -0.5622  0.3015
  157SAPE  H11R17533   1.645   4.215  10.093 -0.1575  3.3676 -0.2843
  157SAPE  C21217534   1.662   4.271   9.884  0.2470  0.8373  0.2505
  157SAPE  H12R17535   1.739   4.345   9.911  1.1272  0.2646 -0.6159
  157SAPE  C21317536   1.628   4.244   9.742  0.0474 -0.0571  0.5375
  157SAPE  H13R17537   1.554   4.320   9.710  0.4888  0.5135  0.8460
  157SAPE  H13S17538   1.579   4.147   9.719  1.2945 -0.6139  0.1283
  157SAPE  C21417539   1.756   4.245   9.661 -0.0940  0.4257  0.0281
  157SAPE  H14R17540   1.813   4.151   9.655  0.9237  1.0425 -0.3558
  157SAPE  C21517541   1.794   4.345   9.583  0.1806 -0.3444 -0.1688
  157SAPE  H15R17542   1.899   4.348   9.549  0.1674  1.6932 -0.1758
  157SAPE  C21617543   1.732   4.480   9.550 -0.1792  0.2811  0.4550
  157SAPE  H16R17544   1.788   4.571   9.582 -0.4075  0.4663  0.3291
  157SAPE  H16S17545   1.632   4.475   9.599 -0.2818 -3.0869  0.1761
  157SAPE  C21717546   1.708   4.497   9.400 -0.0859  0.3183 -0.0655
  157SAPE  H17R17547   1.797   4.493   9.333 -0.2148  2.0661 -0.3900
  157SAPE  H17S17548   1.670   4.598   9.373 -3.6336 -0.9362 -0.2639
  157SAPE  C21817549   1.606   4.386   9.348 -0.0703  0.4247 -1.0104
  157SAPE  H18R17550   1.514   4.398   9.409  0.5475  0.8092 -0.1284
  157SAPE  H18S17551   1.653   4.290   9.380  2.7345  1.5302 -1.5473
  157SAPE  C21917552   1.596   4.389   9.201  0.2624  0.4005  0.1775
  157SAPE  H19R17553   1.693   4.365   9.152 -1.2327  0.2932 -2.9898
  157SAPE  H19S17554   1.566   4.490   9.166  1.0478  1.0664  1.3310
  157SAPE  C22017555   1.505   4.276   9.152 -0.9024  0.2452 -0.0922
  157SAPE  H20R17556   1.521   4.262   9.042 -0.7949  1.8654 -0.3024
  157SAPE  H20S17557   1.396   4.287   9.172 -1.3611  0.5845 -2.3934
  157SAPE  H20T17558   1.531   4.179   9.201  1.1804  0.2349 -1.1055
  157SAPE   C3317559   0.946   4.741  10.019  0.8341 -0.4094  0.1216
  157SAPE   H3X17560   0.963   4.647  10.075  0.4022 -0.6208 -0.0940
  157SAPE   H3Y17561   1.003   4.823  10.067 -0.6964 -0.2077  1.6747
  157SAPE   C3417562   0.996   4.720   9.872 -0.0796 -0.1025 -0.0854
  157SAPE   H4X17563   1.006   4.610   9.857  1.8194 -0.4320  2.6989
  157SAPE   H4Y17564   1.104   4.746   9.872 -0.0688  0.2959  2.8620
  157SAPE   C3517565   0.922   4.807   9.770 -0.3949 -0.6752 -0.1607
  157SAPE   H5X17566   0.931   4.914   9.801 -1.3238 -0.4777 -0.5490
  157SAPE   H5Y17567   0.815   4.781   9.759 -0.6370 -0.2849  1.1126
  157SAPE   C3617568   0.968   4.804   9.625 -0.3258  0.1835  0.0420
  157SAPE   H6X17569   0.953   4.706   9.574  1.4123  0.1430 -0.4721
  157SAPE   H6Y17570   1.072   4.842   9.615 -0.0693 -0.6606 -0.6526
  157SAPE   C3717571   0.875   4.898   9.544  0.3977 -0.8715  1.3593
  157SAPE   H7X17572   0.905   4.996   9.586  1.1396 -0.0301 -0.9529
  157SAPE   H7Y17573   0.771   4.869   9.572 -0.2240  1.0270  1.1520
  157SAPE   C3817574   0.915   4.899   9.400  1.0964  0.2454 -0.5021
  157SAPE   H8X17575   0.892   4.796   9.365  0.7685 -0.2545  1.0873
  157SAPE   H8Y17576   1.020   4.927   9.377  0.9438  0.9305 -0.4040
  157SAPE   C3917577   0.818   4.991   9.324 -0.3179 -0.3965 -0.3794
  157SAPE   H9X17578   0.845   5.096   9.347 -1.5362  0.0962 -1.0841
  157SAPE   H9Y17579   0.713   4.968   9.353 -0.4732  1.3394  0.5702
  157SAPE  C31017580   0.844   4.967   9.173  0.4508  0.0810  0.3315
  157SAPE  H10X17581   0.811   4.866   9.142 -0.2002  0.4831 -0.3225
  157SAPE  H10Y17582   0.955   4.969   9.172  0.6233 -2.3510  2.4824
  157SAPE  C31117583   0.766   5.078   9.117 -1.2548 -0.7114  0.5514
  157SAPE  H11X17584   0.795   5.176   9.161  0.6158 -0.4126 -1.1857
  157SAPE  H11Y17585   0.660   5.059   9.143 -0.7265 -0.6793  3.0150
  157SAPE  C31217586   0.756   5.093   8.966 -0.0274 -0.4174  0.3462
  157SAPE  H12X17587   0.670   5.158   8.943  1.0749  0.9534 -0.0591
  157SAPE  H12Y17588   0.735   5.002   8.906  3.9494 -1.0321 -0.4213
  157SAPE  C31317589   0.882   5.160   8.914  0.3249  0.2286  0.4441
  157SAPE  H13X17590   0.916   5.252   8.966 -0.0115  0.9509 -0.5641
  157SAPE  H13Y17591   0.859   5.194   8.810 -0.7589  1.3338  1.0223
  157SAPE  C31417592   1.002   5.066   8.897 -0.1017  0.1402 -0.9688
  157SAPE  H14X17593   0.965   4.971   8.853 -0.1641  0.7657 -2.2899
  157SAPE  H14Y17594   1.039   5.059   9.002 -0.1052 -2.4122 -1.0620
  157SAPE  C31517595   1.121   5.117   8.812  0.0919 -0.5591  0.1816
  157SAPE  H15X17596   1.168   5.207   8.858  1.7458 -1.9169  1.2584
  157SAPE  H15Y17597   1.101   5.127   8.703 -0.0629 -1.4254  0.1252
  157SAPE  C31617598   1.244   5.023   8.804  0.0901 -0.4071  0.5190
  157SAPE  H16X17599   1.269   4.999   8.910  0.1092 -2.0889  0.1487
  157SAPE  H16Y17600   1.332   5.080   8.767  1.1383 -2.3984 -0.1998
  157SAPE  C31717601   1.230   4.892   8.727 -0.2216  0.1326 -1.0776
  157SAPE  H17X17602   1.189   4.924   8.628  1.1756 -2.1979 -2.4981
  157SAPE  H17Y17603   1.155   4.831   8.782 -0.5188 -0.0252 -1.6511
  157SAPE  C31817604   1.365   4.811   8.720 -0.2641  0.3079  0.2816
  157SAPE  H18X17605   1.447   4.866   8.670 -0.3668  0.5256  0.3477
  157SAPE  H18Y17606   1.363   4.718   8.659 -0.9757 -0.7400  1.8314
  157SAPE  H18Z17607   1.404   4.781   8.819  0.7971  0.9469  0.0644
  158SAPE     N17608   2.027   4.464  10.751  0.2215  0.0996  0.0929
  158SAPE   HN117609   1.963   4.533  10.707  0.6012 -0.4026 -1.3195
  158SAPE   HN217610   1.997   4.458  10.850 -2.6074 -1.2905 -0.7297
  158SAPE   HN317611   2.124   4.501  10.753  1.0382 -1.9033  2.7457
  158SAPE   C1217612   2.023   4.333  10.672  0.7874 -0.4914 -0.1374
  158SAPE  H12A17613   2.111   4.268  10.695  0.3325 -1.7052 -1.6372
  158SAPE  H12B17614   2.042   4.354  10.564  0.7914  0.7053  0.0874
  158SAPE   C1117615   1.891   4.258  10.721  0.4412 -0.1086 -0.0234
  158SAPE  H11A17616   1.876   4.177  10.647 -2.2157 -1.0331  1.3991
  158SAPE  H11B17617   1.803   4.325  10.714  1.0044  0.6250 -0.2791
  158SAPE     P17618   1.982   4.080  10.893 -0.3013 -0.0102 -0.2939
  158SAPE   O1317619   2.073   4.109  11.008  0.1505  0.1278 -0.2979
  158SAPE   O1417620   1.893   3.969  10.913  0.3783  0.2489  0.5419
  158SAPE   O1217621   1.907   4.213  10.857 -0.3915  0.4933  0.4925
  158SAPE   O1117622   2.071   4.055  10.764  0.5949  0.6179  0.7396
  158SAPE    C117623   2.208   4.014  10.783  0.5482  0.1008  0.2734
  158SAPE    HA17624   2.265   4.089  10.842  1.2045 -1.1482  1.2699
  158SAPE    HB17625   2.217   3.914  10.830  1.7186  0.5535  1.0711
  158SAPE    C217626   2.295   3.980  10.645 -0.5344  0.3587  0.0269
  158SAPE    HS17627   2.397   3.951  10.677  0.2303  0.1726 -2.4003
  158SAPE   O2117628   2.291   4.085  10.550 -0.6023 -0.1016  0.2677
  158SAPE   C2117629   2.363   4.187  10.585  0.0523 -0.2129 -0.1446
  158SAPE   O2217630   2.438   4.195  10.681 -0.0975  0.8407 -0.8595
  158SAPE   C2217631   2.352   4.297  10.488  0.1119  0.0085 -0.0808
  158SAPE   H2R17632   2.263   4.275  10.425 -0.6663 -0.2892  1.0970
  158SAPE   H2S17633   2.336   4.383  10.556 -1.3484 -2.2138  2.5551
  158SAPE    C317634   2.222   3.861  10.580 -0.3209 -0.0631 -0.4665
  158SAPE    HX17635   2.125   3.891  10.534  0.3944 -0.3628 -2.2853
  158SAPE    HY17636   2.193   3.779  10.648 -3.1757 -0.0628 -1.5430
  158SAPE   O3117637   2.306   3.822  10.464 -0.0222 -0.3619 -0.5289
  158SAPE   C3117638   2.249   3.726  10.384  0.7580  0.5924 -0.4461
  158SAPE   O3217639   2.141   3.678  10.404 -0.4053  0.8051  0.4292
  158SAPE   C3217640   2.338   3.720  10.260 -0.4697 -0.4936  0.6750
  158SAPE   H2X17641   2.431   3.674  10.299  0.3766  1.4369  1.0631
  158SAPE   H2Y17642   2.378   3.818  10.225  1.6625 -1.3199  0.6593
  158SAPE   C2317643   2.480   4.319  10.409  0.8478 -0.0856 -0.8111
  158SAPE   H3R17644   2.487   4.234  10.338 -1.5236  1.1571 -2.6769
  158SAPE   H3S17645   2.575   4.300  10.463 -0.5154 -1.8937  1.1154
  158SAPE   C2417646   2.485   4.446  10.331  0.1784  0.1268  0.2144
  158SAPE   H4R17647   2.473   4.533  10.400  0.1703  0.7037 -0.4981
  158SAPE   H4S17648   2.401   4.446  10.259  1.1006 -2.8883 -1.0118
  158SAPE   C2517649   2.618   4.467  10.254 -0.0331 -0.8401 -0.5012
  158SAPE   H5R17650   2.714   4.475  10.307 -0.6327  0.3382  0.4427
  158SAPE   C2617651   2.636   4.467  10.116  0.4799 -0.1023  0.1640
  158SAPE   H6R17652   2.740   4.458  10.082  0.3013 -4.5522  0.2093
  158SAPE   C2717653   2.524   4.456  10.013 -0.0810  0.5310 -0.8339
  158SAPE   H7R17654   2.521   4.553   9.958  0.8000  0.6505 -0.6754
  158SAPE   H7S17655   2.434   4.464  10.078  2.0320 -1.1460  2.5358
  158SAPE   C2817656   2.510   4.321   9.943 -0.1134 -0.7372  0.2059
  158SAPE   H8R17657   2.521   4.232  10.007 -0.8453 -0.0682  1.2900
  158SAPE   C2917658   2.483   4.309   9.808  0.2929 -0.1019  0.5211
  158SAPE   H9R17659   2.470   4.204   9.779  1.6293 -0.8804  2.5140
  158SAPE  C21017660   2.485   4.415   9.692  0.0746 -0.4318 -1.5184
  158SAPE  H10R17661   2.427   4.497   9.739  0.6857 -1.6564  1.6118
  158SAPE  H10S17662   2.431   4.390   9.599 -4.0165  1.3019  0.1726
  158SAPE  C21117663   2.621   4.464   9.666 -0.2232 -0.6319  0.5338
  158SAPE  H11R17664   2.694   4.453   9.747  0.0431  0.2745  0.4256
  158SAPE  C21217665   2.661   4.521   9.549 -0.5059 -1.0115 -0.4341
  158SAPE  H12R17666   2.767   4.551   9.547 -0.8363  0.2631 -0.0129
  158SAPE  C21317667   2.578   4.554   9.430  0.9307 -0.0646  0.8109
  158SAPE  H13R17668   2.568   4.665   9.431  1.1923 -0.0373  1.7719
  158SAPE  H13S17669   2.473   4.519   9.431  0.6617  0.7048  0.0135
  158SAPE  C21417670   2.626   4.510   9.294  0.2139  0.4365  0.2823
  158SAPE  H14R17671   2.684   4.587   9.242  0.3919 -0.7581 -1.3500
  158SAPE  C21517672   2.604   4.387   9.245 -0.4010  0.0124 -0.2911
  158SAPE  H15R17673   2.628   4.368   9.139 -0.0018  1.4219 -0.4737
  158SAPE  C21617674   2.535   4.273   9.324 -0.1479 -0.1143  0.2684
  158SAPE  H16R17675   2.451   4.235   9.262 -0.0682  0.2986 -0.1036
  158SAPE  H16S17676   2.499   4.309   9.423 -0.3494  0.0451  0.1381
  158SAPE  C21717677   2.621   4.154   9.344  0.1859  0.3348 -0.3837
  158SAPE  H17R17678   2.559   4.080   9.400  0.5855  0.2796 -0.0141
  158SAPE  H17S17679   2.713   4.185   9.397 -0.5577  1.6085  0.2171
  158SAPE  C21817680   2.657   4.069   9.216  0.5929 -0.4405 -0.2113
  158SAPE  H18R17681   2.730   3.989   9.241  0.9691 -0.0423 -0.0120
  158SAPE  H18S17682   2.715   4.142   9.155  1.5820 -1.8118 -0.9556
  158SAPE  C21917683   2.534   4.008   9.145  0.3691  0.6267  0.0719
  158SAPE  H19R17684   2.489   4.089   9.085 -3.0803 -1.5501 -0.5474
  158SAPE  H19S17685   2.467   3.956   9.217 -0.0972 -0.3352 -1.0337
  158SAPE  C22017686   2.577   3.897   9.053  0.6465 -0.8626  0.1958
  158SAPE  H20R17687   2.619   3.821   9.122 -1.1443 -0.9780  1.2391
  158SAPE  H20S17688   2.656   3.932   8.983  0.6425  0.5538  0.8619
  158SAPE  H20T17689   2.496   3.842   9.001  1.2263  0.9516 -2.9128
  158SAPE   C3317690   2.282   3.635  10.142 -0.0291  0.4048  0.3683
  158SAPE   H3X17691   2.180   3.661  10.106  0.2255  0.0154 -0.6452
  158SAPE   H3Y17692   2.260   3.534  10.185  1.2664 -0.9052 -1.8867
  158SAPE   C3417693   2.375   3.603  10.031 -0.3898  1.4549  0.6299
  158SAPE   H4X17694   2.480   3.589  10.064 -0.3589  1.6311  0.6047
  158SAPE   H4Y17695   2.380   3.685   9.957 -2.5207  1.2940  0.2542
  158SAPE   C3517696   2.339   3.471   9.959 -0.3518 -0.0295  0.1591
  158SAPE   H5X17697   2.238   3.472   9.913 -1.3402  0.5708  2.1913
  158SAPE   H5Y17698   2.334   3.392  10.037 -2.0461 -0.8114 -0.6956
  158SAPE   C3617699   2.440   3.430   9.852  0.1118 -0.2055  0.2912
  158SAPE   H6X17700   2.519   3.372   9.905  0.7224 -1.4206 -1.8135
  158SAPE   H6Y17701   2.481   3.515   9.795  1.9959 -0.6485  0.9309
  158SAPE   C3717702   2.388   3.332   9.744 -0.4352 -0.1388 -0.6031
  158SAPE   H7X17703   2.308   3.368   9.677 -2.1006 -0.2649  1.2273
  158SAPE   H7Y17704   2.356   3.244   9.804  0.6515  0.7868  1.4402
  158SAPE   C3817705   2.501   3.293   9.650 -0.0440  0.6141 -0.1585
  158SAPE   H8X17706   2.586   3.263   9.715 -1.0177 -0.9427  0.4631
  158SAPE   H8Y17707   2.525   3.385   9.594  0.7529 -0.2110 -1.2147
  158SAPE   C3917708   2.450   3.183   9.553 -0.2410  0.0160  0.3174
  158SAPE   H9X17709   2.353   3.212   9.508  0.0330 -0.2179 -0.4330
  158SAPE   H9Y17710   2.430   3.091   9.611  0.5205 -0.3263  0.0520
  158SAPE  C31017711   2.545   3.143   9.437 -0.1914 -0.4062  0.6323
  158SAPE  H10X17712   2.486   3.065   9.385  0.1102  0.5968 -1.3126
  158SAPE  H10Y17713   2.634   3.101   9.489  0.0551  3.3483  3.8038
  158SAPE  C31117714   2.578   3.257   9.337  0.2647 -0.6755  0.0502
  158SAPE  H11X17715   2.658   3.221   9.268 -0.2183 -0.3823 -0.6667
  158SAPE  H11Y17716   2.607   3.353   9.385  1.2247 -0.3359 -1.1368
  158SAPE  C31217717   2.452   3.292   9.249 -0.6933  0.3161 -0.8443
  158SAPE  H12X17718   2.372   3.333   9.314 -0.3987  0.2691 -0.4525
  158SAPE  H12Y17719   2.401   3.203   9.208  0.4981 -0.5831 -0.4301
  158SAPE  C31317720   2.484   3.395   9.142  0.4991 -0.1697  0.0371
  158SAPE  H13X17721   2.534   3.355   9.051 -0.1039  0.2990 -0.5093
  158SAPE  H13Y17722   2.555   3.471   9.181 -1.2637  0.3981  2.4009
  158SAPE  C31417723   2.358   3.469   9.108 -0.2333 -0.1723 -0.3020
  158SAPE  H14X17724   2.325   3.544   9.182  1.3054  1.8517 -1.5790
  158SAPE  H14Y17725   2.271   3.399   9.103 -0.5579  0.2740 -1.2322
  158SAPE  C31517726   2.377   3.552   8.985 -0.0970  0.2039 -0.5973
  158SAPE  H15X17727   2.486   3.574   8.981  0.0496 -0.0896  0.9899
  158SAPE  H15Y17728   2.337   3.652   9.010  0.6799 -0.1041  2.2060
  158SAPE  C31617729   2.333   3.503   8.841  0.5687 -0.5007 -1.0508
  158SAPE  H16X17730   2.223   3.490   8.843  0.8145 -3.0084 -0.0207
  158SAPE  H16Y17731   2.375   3.400   8.831  0.7309 -0.7598  1.5955
  158SAPE  C31717732   2.369   3.592   8.714  0.1186  0.1472  0.0948
  158SAPE  H17X17733   2.477   3.616   8.705  0.0825 -0.3036 -2.0291
  158SAPE  H17Y17734   2.313   3.687   8.724 -0.4012 -0.1140 -0.2667
  158SAPE  C31817735   2.316   3.527   8.591  0.1141  0.9461 -0.2545
  158SAPE  H18X17736   2.364   3.428   8.583 -0.3942  0.7546 -1.0891
  158SAPE  H18Y17737   2.342   3.591   8.504  0.2126  0.8310 -0.3088
  158SAPE  H18Z17738   2.205   3.530   8.606  0.3666  0.2733  2.1651
  159SAPE     N17739   0.199   4.031   6.641 -0.0560  0.4399 -0.3975
  159SAPE   HN117740   0.222   3.979   6.728  0.4871 -1.5560 -1.6660
  159SAPE   HN217741   0.098   4.014   6.620 -0.7412  0.3896  2.4677
  159SAPE   HN317742   0.261   3.972   6.582 -0.0888 -1.5131  1.3862
  159SAPE   C1217743   0.226   4.176   6.658  0.0827 -0.7496 -0.7338
  159SAPE  H12A17744   0.141   4.225   6.710  0.5758  1.1441 -1.5982
  159SAPE  H12B17745   0.221   4.219   6.555 -1.7459  0.2953 -0.2428
  159SAPE   C1117746   0.359   4.197   6.732 -0.2341  0.3924 -0.4821
  159SAPE  H11A17747   0.334   4.167   6.836 -1.7016 -0.8817 -1.1644
  159SAPE  H11B17748   0.388   4.304   6.734 -1.1008  0.6287  0.2886
  159SAPE     P17749   0.558   4.160   6.580  0.2680 -0.1322 -0.2408
  159SAPE   O1317750   0.493   4.150   6.449  0.5589 -0.3133  0.2085
  159SAPE   O1417751   0.622   4.292   6.615  0.0248  0.1369 -0.5980
  159SAPE   O1217752   0.463   4.107   6.690 -0.2477  0.1566  0.2936
  159SAPE   O1117753   0.685   4.064   6.571  0.4599  0.1591 -0.5329
  159SAPE    C117754   0.698   3.929   6.622 -0.0444  0.7436  0.0972
  159SAPE    HA17755   0.597   3.885   6.635 -0.0609  1.0713  1.1599
  159SAPE    HB17756   0.757   3.863   6.555  0.5465  1.3026  0.0627
  159SAPE    C217757   0.777   3.931   6.759  0.3479  0.7293 -0.6601
  159SAPE    HS17758   0.786   3.825   6.789 -1.3237  0.5356 -0.7815
  159SAPE   O2117759   0.707   4.006   6.856  0.7353 -0.5086  0.2909
  159SAPE   C2117760   0.603   3.949   6.918  0.4504  0.2401  0.1776
  159SAPE   O2217761   0.563   3.832   6.899 -0.6189 -0.2500  0.2287
  159SAPE   C2217762   0.567   4.038   7.041 -0.8330 -0.1691  0.3322
  159SAPE   H2R17763   0.651   4.028   7.114 -0.0982 -2.8180 -0.7744
  159SAPE   H2S17764   0.570   4.145   7.014  1.5426  0.5118  2.8252
  159SAPE    C317765   0.917   3.988   6.739 -0.6702 -0.6500  0.0207
  159SAPE    HX17766   0.911   4.090   6.695  0.1057 -0.8112 -0.4786
  159SAPE    HY17767   0.987   3.929   6.676  1.5147  0.6354  1.1415
  159SAPE   O3117768   0.980   3.993   6.866 -0.2181  0.7654  0.3224
  159SAPE   C3117769   0.986   4.101   6.938  0.5734 -0.1914 -1.0547
  159SAPE   O3217770   0.932   4.208   6.908  0.8616  0.7611  0.2350
  159SAPE   C3217771   1.054   4.077   7.073 -0.4912  0.5184  0.3333
  159SAPE   H2X17772   1.159   4.048   7.053  0.1325  2.4066  0.6445
  159SAPE   H2Y17773   1.010   3.999   7.139 -0.6414 -1.0305 -1.4929
  159SAPE   C2317774   0.431   3.996   7.105  0.4074 -0.1826 -1.4252
  159SAPE   H3R17775   0.449   3.898   7.154 -0.4393 -0.0677 -0.8621
  159SAPE   H3S17776   0.347   4.011   7.035 -0.2099  4.0892 -0.0496
  159SAPE   C2417777   0.404   4.085   7.228 -0.2777 -0.2679  0.5204
  159SAPE   H4R17778   0.368   4.179   7.181 -3.2529 -1.1164  0.9190
  159SAPE   H4S17779   0.499   4.101   7.283  2.0754 -1.5340 -2.8671
  159SAPE   C2517780   0.287   4.035   7.304  0.7918 -0.1163 -0.0209
  159SAPE   H5R17781   0.199   4.011   7.242  0.2030 -1.4796  1.2644
  159SAPE   C2617782   0.280   4.023   7.435 -0.0081 -0.1905  0.3349
  159SAPE   H6R17783   0.186   3.992   7.483 -0.8283  1.2821 -0.2632
  159SAPE   C2717784   0.390   4.051   7.535 -0.0723 -0.2185 -0.3255
  159SAPE   H7R17785   0.364   4.115   7.622  0.9129 -2.8199  2.0285
  159SAPE   H7S17786   0.473   4.118   7.504 -0.6300  0.2159 -0.9162
  159SAPE   C2817787   0.461   3.927   7.583  0.0024  0.1579 -1.1319
  159SAPE   H8R17788   0.508   3.868   7.503  1.7915 -1.4435  0.9718
  159SAPE   C2917789   0.444   3.858   7.703 -0.0567 -0.8957  0.2651
  159SAPE   H9R17790   0.505   3.767   7.716  0.3943 -0.8511 -1.3351
  159SAPE  C21017791   0.353   3.896   7.820 -0.4361 -0.7320 -0.0383
  159SAPE  H10R17792   0.281   3.819   7.853  0.1430 -1.3659 -0.2356
  159SAPE  H10S17793   0.289   3.981   7.787  1.0358  1.1779  1.7382
  159SAPE  C21117794   0.436   3.949   7.935 -0.1349  0.4612 -0.9462
  159SAPE  H11R17795   0.487   4.047   7.935  2.0336 -0.4959  2.0507
  159SAPE  C21217796   0.467   3.881   8.049 -0.2242  0.1618 -0.1766
  159SAPE  H12R17797   0.511   3.934   8.134 -1.1104  2.2842 -0.9683
  159SAPE  C21317798   0.405   3.740   8.068 -0.2177 -0.1152  0.3656
  159SAPE  H13R17799   0.415   3.684   7.973 -2.9190 -0.8040  0.4276
  159SAPE  H13S17800   0.297   3.754   8.087 -0.2397 -0.0150  0.1643
  159SAPE  C21417801   0.459   3.642   8.170  0.7782  0.2781 -0.5235
  159SAPE  H14R17802   0.540   3.579   8.129  2.5089  1.1450  1.3653
  159SAPE  C21517803   0.413   3.624   8.294  0.0308 -0.3534  0.1164
  159SAPE  H15R17804   0.468   3.551   8.355  0.8699  1.0618  1.1091
  159SAPE  C21617805   0.308   3.702   8.361 -0.9742 -0.1835  0.0550
  159SAPE  H16R17806   0.233   3.633   8.405 -0.8307  0.7584  1.9126
  159SAPE  H16S17807   0.247   3.772   8.299  0.8080  1.5704  0.1754
  159SAPE  C21717808   0.377   3.786   8.470  0.2005 -0.0556  0.6524
  159SAPE  H17R17809   0.443   3.722   8.532  2.9354  1.7185 -0.2150
  159SAPE  H17S17810   0.293   3.828   8.529 -0.4702 -0.3232 -0.0938
  159SAPE  C21817811   0.455   3.906   8.409  0.2475  0.0604  0.1270
  159SAPE  H18R17812   0.398   3.931   8.317  0.9199 -0.0387 -0.3189
  159SAPE  H18S17813   0.556   3.872   8.378  0.4176 -0.8465  1.5839
  159SAPE  C21917814   0.466   4.031   8.504 -0.0791 -0.2564 -0.0357
  159SAPE  H19R17815   0.364   4.069   8.526 -0.3267 -1.6657  1.4451
  159SAPE  H19S17816   0.537   4.105   8.461  0.3363 -1.1644 -0.9565
  159SAPE  C22017817   0.531   3.997   8.639 -0.4980  0.7267  0.2667
  159SAPE  H20R17818   0.478   3.940   8.719 -1.0822  2.0777  0.8915
  159SAPE  H20S17819   0.567   4.093   8.683  0.8943  0.0874  0.5850
  159SAPE  H20T17820   0.626   3.940   8.635  0.2236  1.9767 -2.1408
  159SAPE   C3317821   1.064   4.213   7.141 -0.3694 -0.4718 -0.4852
  159SAPE   H3X17822   1.093   4.294   7.070 -1.6117 -1.0201 -1.6682
  159SAPE   H3Y17823   1.152   4.212   7.209 -1.6702  0.2048  1.2693
  159SAPE   C3417824   0.943   4.262   7.217  0.6804  0.2469  0.4436
  159SAPE   H4X17825   0.859   4.272   7.145 -0.2755  0.2251  1.5301
  159SAPE   H4Y17826   0.961   4.365   7.253  1.8640  0.3398 -0.3291
  159SAPE   C3517827   0.891   4.174   7.336 -0.3336  0.1086  0.4728
  159SAPE   H5X17828   0.971   4.135   7.403 -2.4608  0.2403  3.2635
  159SAPE   H5Y17829   0.831   4.094   7.287  2.1209 -2.6321  1.6288
  159SAPE   C3617830   0.809   4.250   7.440 -0.1743  0.0860 -0.5109
  159SAPE   H6X17831   0.716   4.284   7.390  0.0438 -0.6282 -1.4227
  159SAPE   H6Y17832   0.870   4.340   7.464 -1.8711  1.3808 -0.8521
  159SAPE   C3717833   0.771   4.175   7.569  0.3425  0.6468  1.4085
  159SAPE   H7X17834   0.855   4.133   7.628 -0.1613 -0.3304  1.4473
  159SAPE   H7Y17835   0.703   4.092   7.540  2.3216 -0.9306  1.0983
  159SAPE   C3817836   0.686   4.262   7.660  0.1541 -0.1450  0.0708
  159SAPE   H8X17837   0.658   4.196   7.744  3.1220  1.3047  2.3936
  159SAPE   H8Y17838   0.594   4.301   7.612  0.3914  0.7156  0.2837
  159SAPE   C3917839   0.768   4.379   7.714 -0.0559  0.0276  0.3202
  159SAPE   H9X17840   0.803   4.440   7.629  0.9417  1.4531  1.6867
  159SAPE   H9Y17841   0.857   4.333   7.762 -0.4200 -0.3827  0.6145
  159SAPE  C31017842   0.687   4.457   7.820  0.2903 -1.1618 -0.5351
  159SAPE  H10X17843   0.578   4.450   7.805  0.4423 -1.8486 -1.3902
  159SAPE  H10Y17844   0.716   4.564   7.822  1.1326 -1.3624  2.0066
  159SAPE  C31117845   0.717   4.412   7.966  0.0169 -0.0862 -0.5874
  159SAPE  H11X17846   0.826   4.423   7.983 -0.2890  0.3925  1.3915
  159SAPE  H11Y17847   0.689   4.305   7.977  0.3010  0.1051  4.4836
  159SAPE  C31217848   0.625   4.485   8.064 -0.1175  0.5863 -0.1433
  159SAPE  H12X17849   0.518   4.474   8.035  0.4414  1.2971 -2.7698
  159SAPE  H12Y17850   0.643   4.593   8.044 -1.1074  0.8205  0.1337
  159SAPE  C31317851   0.646   4.455   8.211 -0.3278 -0.4289 -0.0828
  159SAPE  H13X17852   0.752   4.470   8.240 -0.7727  0.9643  0.9847
  159SAPE  H13Y17853   0.628   4.350   8.241 -0.5546 -0.3000  0.2418
  159SAPE  C31417854   0.560   4.545   8.312 -0.4237  0.0088  0.4065
  159SAPE  H14X17855   0.557   4.480   8.402  1.4664  0.3784  0.7783
  159SAPE  H14Y17856   0.462   4.571   8.268 -0.3381 -1.6058 -0.8326
  159SAPE  C31517857   0.644   4.669   8.328 -0.2399  0.1505 -0.6448
  159SAPE  H15X17858   0.681   4.704   8.230 -1.5170 -1.4678 -1.7477
  159SAPE  H15Y17859   0.729   4.631   8.389 -0.5555  0.4551 -0.0062
  159SAPE  C31617860   0.584   4.791   8.402 -0.0403  0.0070  0.0634
  159SAPE  H16X17861   0.493   4.829   8.351  1.3301  1.3364 -1.5238
  159SAPE  H16Y17862   0.654   4.876   8.385  0.6530 -0.2842  1.3215
  159SAPE  C31717863   0.573   4.768   8.548 -0.8654  0.6592 -0.4574
  159SAPE  H17X17864   0.664   4.713   8.579 -1.4407 -0.1562 -0.1755
  159SAPE  H17Y17865   0.481   4.705   8.550 -0.6121  0.2426 -1.4329
  159SAPE  C31817866   0.568   4.901   8.626 -0.5950  0.4802  1.0116
  159SAPE  H18X17867   0.486   4.967   8.591  0.7288  1.7955  0.2782
  159SAPE  H18Y17868   0.667   4.952   8.618  0.4420 -0.9578  3.5674
  159SAPE  H18Z17869   0.560   4.867   8.731  0.8789  0.0249  1.0047
  160SAPE     N17870   0.282   6.573   6.315 -0.7970  0.0197 -0.2984
  160SAPE   HN117871   0.225   6.504   6.262  0.3786 -1.0771 -0.1944
  160SAPE   HN217872   0.322   6.639   6.245  1.7755 -0.6867  0.3785
  160SAPE   HN317873   0.369   6.521   6.338 -0.9169  0.8208  2.2921
  160SAPE   C1217874   0.230   6.643   6.437 -0.5483 -0.1915  0.6025
  160SAPE  H12A17875   0.275   6.744   6.434 -0.2135 -0.3651 -1.0307
  160SAPE  H12B17876   0.266   6.587   6.526  1.5291  0.8843  0.4975
  160SAPE   C1117877   0.081   6.642   6.450  0.0058 -0.7109  0.2626
  160SAPE  H11A17878   0.063   6.689   6.550  1.3976  0.7139 -0.1175
  160SAPE  H11B17879   0.042   6.538   6.456  1.0797 -1.1542 -0.2334
  160SAPE     P17880  -0.122   6.749   6.329 -0.3964  0.0207 -0.0811
  160SAPE   O1317881  -0.138   6.874   6.247  0.4366  0.1079  0.1291
  160SAPE   O1417882  -0.190   6.625   6.280  0.1542 -0.3458  0.6758
  160SAPE   O1217883   0.037   6.728   6.344 -0.7892  0.2832 -0.1226
  160SAPE   O1117884  -0.175   6.776   6.475 -0.0888 -0.2762 -1.0288
  160SAPE    C117885  -0.278   6.692   6.533 -0.0072 -1.2171  0.1159
  160SAPE    HA17886  -0.365   6.696   6.464 -1.9663  0.1604  2.5034
  160SAPE    HB17887  -0.244   6.586   6.542 -0.0756 -1.0628  4.9844
  160SAPE    C217888  -0.316   6.734   6.674  0.1651 -0.6935  0.3241
  160SAPE    HS17889  -0.328   6.844   6.670  2.2744 -0.4471 -1.1830
  160SAPE   O2117890  -0.204   6.693   6.753  0.3150 -0.2492  0.1484
  160SAPE   C2117891  -0.128   6.792   6.795 -0.4420  0.0898 -0.3327
  160SAPE   O2217892  -0.156   6.911   6.795 -0.6470  0.3224 -0.0408
  160SAPE   C2217893   0.002   6.733   6.853 -0.3681 -0.3245 -1.3351
  160SAPE   H2R17894  -0.025   6.631   6.887  1.1162 -1.0998 -2.3382
  160SAPE   H2S17895   0.067   6.715   6.765  0.3607 -3.0303 -0.3275
  160SAPE    C317896  -0.446   6.665   6.725  0.1908  0.7078  0.0119
  160SAPE    HX17897  -0.440   6.567   6.672 -0.3583  0.4385  0.4408
  160SAPE    HY17898  -0.527   6.737   6.698  0.6851  1.9170  1.6283
  160SAPE   O3117899  -0.452   6.660   6.866  0.0943 -0.2676  0.3329
  160SAPE   C3117900  -0.421   6.549   6.926 -0.3399 -0.3096 -0.5223
  160SAPE   O3217901  -0.393   6.441   6.875 -0.1163 -0.0408  0.9120
  160SAPE   C3217902  -0.412   6.585   7.073  0.3379  0.1864  0.0900
  160SAPE   H2X17903  -0.511   6.630   7.097 -0.0255 -0.4857 -0.1463
  160SAPE   H2Y17904  -0.319   6.646   7.075  0.9562 -0.6861 -0.7177
  160SAPE   C2317905   0.072   6.824   6.959  0.0228 -0.4350  0.0075
  160SAPE   H3R17906   0.086   6.929   6.925  0.6108 -0.7077 -0.6311
  160SAPE   H3S17907   0.173   6.779   6.974  0.5100 -0.4247 -2.6674
  160SAPE   C2417908  -0.003   6.820   7.098  0.2249 -0.6764  0.7895
  160SAPE   H4R17909  -0.107   6.853   7.075 -0.2815 -2.5667  0.1451
  160SAPE   H4S17910   0.043   6.889   7.172  0.2938  0.1890 -0.0367
  160SAPE   C2517911  -0.018   6.679   7.153 -0.3218  0.5543  0.3192
  160SAPE   H5R17912  -0.052   6.600   7.084 -0.9927  0.9848  0.1585
  160SAPE   C2617913   0.016   6.651   7.285  0.3421  0.1002  0.9202
  160SAPE   H6R17914   0.017   6.543   7.308  0.5520  0.0533  0.6955
  160SAPE   C2717915   0.059   6.746   7.398 -0.6310 -0.1083 -0.0165
  160SAPE   H7R17916   0.008   6.728   7.495 -0.1705 -3.2891 -0.2814
  160SAPE   H7S17917   0.033   6.853   7.378  1.1323  0.1025 -1.4079
  160SAPE   C2817918   0.211   6.731   7.419 -0.6789  0.3859 -0.7337
  160SAPE   H8R17919   0.273   6.679   7.344 -1.8283  0.8796 -2.0642
  160SAPE   C2917920   0.265   6.763   7.538 -0.1746  0.4925  0.1350
  160SAPE   H9R17921   0.372   6.742   7.551  0.0262 -0.5103 -2.6044
  160SAPE  C21017922   0.199   6.825   7.658 -0.4464 -0.4509  0.9794
  160SAPE  H10R17923   0.142   6.916   7.627  0.7460  0.9365  2.6458
  160SAPE  H10S17924   0.276   6.880   7.716  0.8510  0.5029 -1.4642
  160SAPE  C21117925   0.125   6.723   7.735 -0.0372 -0.5282  1.5503
  160SAPE  H11R17926   0.083   6.639   7.677  2.9451 -0.5358 -0.9035
  160SAPE  C21217927   0.095   6.727   7.865 -0.4764 -0.2300 -0.1629
  160SAPE  H12R17928   0.032   6.646   7.904  0.6241 -1.2151 -0.3621
  160SAPE  C21317929   0.129   6.839   7.960 -0.5917 -0.2923 -0.1153
  160SAPE  H13R17930   0.146   6.935   7.906  0.7985  0.0409  0.8571
  160SAPE  H13S17931   0.221   6.807   8.014 -2.1841 -0.9217  2.3616
  160SAPE  C21417932   0.020   6.873   8.057  0.0348 -0.2328  0.0939
  160SAPE  H14R17933  -0.076   6.824   8.037  0.2926 -1.9956  2.6959
  160SAPE  C21517934   0.031   6.944   8.170 -0.4700 -0.4077  0.6465
  160SAPE  H15R17935  -0.062   6.958   8.228  0.0394  0.9795  1.1640
  160SAPE  C21617936   0.154   7.005   8.223  0.5780  0.4152  0.6637
  160SAPE  H16R17937   0.127   7.113   8.225  0.8237  0.4989 -0.2170
  160SAPE  H16S17938   0.242   6.996   8.157  2.7456 -1.4203  3.5764
  160SAPE  C21717939   0.195   6.945   8.360  0.1759  0.5128  0.0505
  160SAPE  H17R17940   0.215   6.836   8.351 -1.1114  0.0160  2.4379
  160SAPE  H17S17941   0.111   6.960   8.431 -0.4573  0.4743 -0.6735
  160SAPE  C21817942   0.316   7.027   8.416 -0.9180 -0.7930 -0.6176
  160SAPE  H18R17943   0.299   7.136   8.429  2.2223 -0.2595 -0.0259
  160SAPE  H18S17944   0.405   7.018   8.350  0.3888 -1.5932  1.1841
  160SAPE  C21917945   0.364   6.980   8.555  0.0323 -0.2954  0.2222
  160SAPE  H19R17946   0.335   6.874   8.572 -0.2296 -0.0142  1.7133
  160SAPE  H19S17947   0.308   7.029   8.637 -1.0018  0.2202 -0.7694
  160SAPE  C22017948   0.513   6.994   8.584  0.8584  0.0791 -0.2149
  160SAPE  H20R17949   0.567   6.923   8.519  2.0390 -1.0307  1.8552
  160SAPE  H20S17950   0.545   6.966   8.687  0.3380 -0.1235 -0.1037
  160SAPE  H20T17951   0.549   7.095   8.556  1.6819 -0.3720 -0.8005
  160SAPE   C3317952  -0.388   6.470   7.169 -0.7096  0.0464  0.3749
  160SAPE   H3X17953  -0.299   6.413   7.133  0.7491  2.3024  0.2544
  160SAPE   H3Y17954  -0.477   6.404   7.172 -1.6695  1.2900  0.0231
  160SAPE   C3417955  -0.368   6.523   7.314  0.9199  0.8449  0.1201
  160SAPE   H4X17956  -0.316   6.621   7.309  1.1300  0.7342  0.1086
  160SAPE   H4Y17957  -0.292   6.460   7.365  2.8279  1.5037 -1.7658
  160SAPE   C3517958  -0.505   6.549   7.384 -0.5147  0.2684  0.3533
  160SAPE   H5X17959  -0.562   6.455   7.401  0.9223 -0.7030  0.0282
  160SAPE   H5Y17960  -0.560   6.592   7.298  2.0981 -0.0205 -1.5581
  160SAPE   C3617961  -0.496   6.630   7.511  0.1436  0.4952 -0.0755
  160SAPE   H6X17962  -0.601   6.639   7.546  0.5236 -0.1496  1.2820
  160SAPE   H6Y17963  -0.447   6.728   7.491  3.3903 -1.1170 -0.7507
  160SAPE   C3717964  -0.419   6.568   7.631  0.3009  0.7461  0.5830
  160SAPE   H7X17965  -0.309   6.578   7.622  0.2678  0.0075 -0.9988
  160SAPE   H7Y17966  -0.451   6.462   7.638  0.6959  0.4952 -1.1097
  160SAPE   C3817967  -0.451   6.637   7.768  0.1249 -0.3463 -0.0131
  160SAPE   H8X17968  -0.559   6.633   7.791  0.1627  0.9413  0.4644
  160SAPE   H8Y17969  -0.410   6.739   7.753  1.5196 -0.7463  0.8690
  160SAPE   C3917970  -0.381   6.579   7.896 -0.0228  0.1257  0.5125
  160SAPE   H9X17971  -0.273   6.604   7.883  0.2884 -1.6011 -0.5655
  160SAPE   H9Y17972  -0.411   6.472   7.897  0.7320 -0.1452 -1.4025
  160SAPE  C31017973  -0.425   6.671   8.015 -0.1913 -0.0155 -0.3021
  160SAPE  H10X17974  -0.536   6.674   8.016 -0.2034  3.4617 -0.2396
  160SAPE  H10Y17975  -0.391   6.775   7.996  1.0184 -0.4254 -0.4383
  160SAPE  C31117976  -0.370   6.617   8.149 -0.0929 -0.2766 -0.0877
  160SAPE  H11X17977  -0.424   6.684   8.220  1.1649 -0.0709  0.7046
  160SAPE  H11Y17978  -0.263   6.640   8.167  0.5087 -1.5142 -1.9014
  160SAPE  C31217979  -0.405   6.473   8.166 -0.5207  0.1082 -0.2189
  160SAPE  H12X17980  -0.331   6.410   8.112  1.5640  0.6487  1.8418
  160SAPE  H12Y17981  -0.511   6.463   8.132 -1.1119  3.4439  0.3239
  160SAPE  C31317982  -0.396   6.430   8.312 -0.1796 -0.1622  0.0546
  160SAPE  H13X17983  -0.458   6.338   8.320  1.7883 -1.6643 -0.8649
  160SAPE  H13Y17984  -0.432   6.514   8.374 -0.0623 -0.8341  1.0612
  160SAPE  C31417985  -0.256   6.390   8.355 -0.0304 -0.0296 -0.1550
  160SAPE  H14X17986  -0.182   6.469   8.331  1.3395 -0.7653  1.4413
  160SAPE  H14Y17987  -0.225   6.295   8.306  1.0851 -0.5561  1.4770
  160SAPE  C31517988  -0.244   6.370   8.513  0.2523 -0.4994 -0.2693
  160SAPE  H15X17989  -0.299   6.277   8.538  1.6924 -1.7288 -1.3845
  160SAPE  H15Y17990  -0.301   6.451   8.561 -1.2495 -1.9375  0.4578
  160SAPE  C31617991  -0.099   6.372   8.568  0.4065  0.2701 -0.3935
  160SAPE  H16X17992  -0.052   6.287   8.514 -0.8397 -0.8472  0.2416
  160SAPE  H16Y17993  -0.105   6.339   8.674  2.8864 -2.5429 -1.0061
  160SAPE  C31717994  -0.008   6.500   8.545  0.0549 -0.0640  0.2464
  160SAPE  H17X17995   0.002   6.512   8.435  0.0436 -3.9065 -0.3252
  160SAPE  H17Y17996   0.098   6.494   8.577 -0.2395 -0.1066  1.2472
  160SAPE  C31817997  -0.071   6.624   8.623  0.1611 -0.9281 -0.2002
  160SAPE  H18X17998  -0.006   6.712   8.601  1.0888 -1.5391  0.0436
  160SAPE  H18Y17999  -0.075   6.609   8.733  1.8987  2.4747  0.4816
  160SAPE  H18Z18000  -0.170   6.644   8.577  0.7610  2.5538 -0.2517
  161SAPE     N18001   2.641   1.458   6.251 -0.1319  0.0282 -0.2910
  161SAPE   HN118002   2.678   1.406   6.168 -2.0924  1.1439 -1.9663
  161SAPE   HN218003   2.556   1.506   6.215 -0.4238 -1.2036 -1.3251
  161SAPE   HN318004   2.713   1.531   6.262  0.2390 -0.2595 -0.7519
  161SAPE   C1218005   2.602   1.365   6.358  0.7287  0.0215 -0.6290
  161SAPE  H12A18006   2.584   1.264   6.316  4.6050 -0.5322 -1.3073
  161SAPE  H12B18007   2.513   1.405   6.411  0.1065 -1.0439 -0.8473
  161SAPE   C1118008   2.715   1.340   6.451 -0.1417  0.2672  0.7353
  161SAPE  H11A18009   2.680   1.281   6.538  0.3819 -0.3152  0.5615
  161SAPE  H11B18010   2.755   1.434   6.495 -0.5875 -0.4071  2.6504
  161SAPE     P18011   2.907   1.157   6.451  0.0460 -0.2965 -0.1751
  161SAPE   O1318012   2.843   1.025   6.434  0.3800 -0.2843 -0.3338
  161SAPE   O1418013   3.044   1.165   6.399  0.9329 -0.1549 -0.1150
  161SAPE   O1218014   2.822   1.271   6.381 -0.0292  0.1468  0.2824
  161SAPE   O1118015   2.905   1.201   6.599  0.7932  0.1899 -0.3162
  161SAPE    C118016   3.024   1.272   6.644 -0.4688 -0.0405  0.0175
  161SAPE    HA18017   3.109   1.199   6.645 -0.9664 -0.7940 -2.5760
  161SAPE    HB18018   3.050   1.357   6.578 -1.4620  0.9902  0.9354
  161SAPE    C218019   2.999   1.308   6.789  0.2138 -0.0060 -1.0726
  161SAPE    HS18020   3.084   1.374   6.816  0.4331 -0.7692  0.1591
  161SAPE   O2118021   2.989   1.191   6.872 -0.1465  0.6190 -0.4115
  161SAPE   C2118022   3.105   1.130   6.893 -0.2443 -0.3009 -0.0197
  161SAPE   O2218023   3.212   1.172   6.857  0.1324 -0.2178 -0.5722
  161SAPE   C2218024   3.072   1.013   6.994 -0.4314 -0.3880  0.0103
  161SAPE   H2R18025   3.030   0.931   6.931  0.7631 -0.4330 -0.7551
  161SAPE   H2S18026   3.171   0.983   7.035 -1.1399 -3.0514 -0.0117
  161SAPE    C318027   2.876   1.401   6.801 -0.2138  0.3442  0.3709
  161SAPE    HX18028   2.802   1.354   6.733  3.6817 -2.9744 -2.0204
  161SAPE    HY18029   2.895   1.497   6.747  1.3197  0.1455  0.4935
  161SAPE   O3118030   2.835   1.417   6.942  0.4410  0.1370 -0.0770
  161SAPE   C3118031   2.717   1.361   6.978  0.6435 -0.6706  0.4488
  161SAPE   O3218032   2.622   1.346   6.906  0.0070  0.2170 -0.0318
  161SAPE   C3218033   2.702   1.353   7.122  0.1690  0.0147 -0.5373
  161SAPE   H2X18034   2.754   1.442   7.164  2.2119 -0.6251 -1.6024
  161SAPE   H2Y18035   2.760   1.266   7.159 -1.5740 -1.0558 -0.1794
  161SAPE   C2318036   2.977   1.056   7.108  0.5358  0.5750 -0.4247
  161SAPE   H3R18037   2.965   0.966   7.172  1.1099  0.6696 -0.1727
  161SAPE   H3S18038   2.876   1.081   7.070  0.3160 -1.2574 -1.1524
  161SAPE   C2418039   3.026   1.170   7.191  0.0675 -0.1207 -1.2234
  161SAPE   H4R18040   2.942   1.202   7.256  0.4171 -1.6246  0.0329
  161SAPE   H4S18041   3.041   1.261   7.129 -0.7655 -0.7139 -2.3269
  161SAPE   C2518042   3.152   1.146   7.274 -0.1760 -0.3545 -0.0151
  161SAPE   H5R18043   3.246   1.162   7.219 -0.8068 -1.0440 -1.3425
  161SAPE   C2618044   3.153   1.105   7.402  0.3846 -0.3379 -0.3535
  161SAPE   H6R18045   3.252   1.102   7.450 -0.1624  2.4055  1.1561
  161SAPE   C2718046   3.029   1.069   7.491 -0.0743  0.3460  0.2501
  161SAPE   H7R18047   3.055   0.976   7.544  3.4193 -0.0651 -1.8795
  161SAPE   H7S18048   2.932   1.051   7.440 -2.2545  0.4817  3.9884
  161SAPE   C2818049   3.003   1.192   7.577  0.6812 -0.4538 -0.3548
  161SAPE   H8R18050   3.018   1.295   7.541  0.0977 -0.3996 -0.4456
  161SAPE   C2918051   2.993   1.191   7.715  0.4693  0.0781  0.7856
  161SAPE   H9R18052   3.000   1.289   7.766  3.9500 -0.1607  0.9913
  161SAPE  C21018053   3.005   1.072   7.804 -0.2559 -0.3779 -0.4568
  161SAPE  H10R18054   3.105   1.069   7.852 -0.6163 -0.8840  0.2702
  161SAPE  H10S18055   2.998   0.970   7.759 -1.0187 -1.3643  1.7809
  161SAPE  C21118056   2.884   1.097   7.899 -0.3252 -0.3159 -0.0203
  161SAPE  H11R18057   2.789   1.103   7.844 -0.9446 -1.3086  0.8953
  161SAPE  C21218058   2.882   1.094   8.034  0.7176  0.1788  0.1089
  161SAPE  H12R18059   2.787   1.123   8.081  0.1283  2.2397 -2.1400
  161SAPE  C21318060   2.990   1.067   8.127  0.7006 -0.6056 -0.3542
  161SAPE  H13R18061   3.064   1.001   8.078 -0.2975 -1.5402 -0.6560
  161SAPE  H13S18062   2.943   1.014   8.212  0.2593 -0.6729 -0.6373
  161SAPE  C21418063   3.062   1.199   8.156  0.6910  0.3892  0.1142
  161SAPE  H14R18064   3.153   1.217   8.096  0.2610  0.0544 -0.6550
  161SAPE  C21518065   3.023   1.285   8.251  0.4428 -0.0627 -0.2952
  161SAPE  H15R18066   3.086   1.370   8.282  2.3334 -2.0999  1.9244
  161SAPE  C21618067   2.903   1.275   8.340 -0.3699  0.0701  0.3435
  161SAPE  H16R18068   2.875   1.168   8.346  2.6487 -0.7897  0.8629
  161SAPE  H16S18069   2.822   1.328   8.287  0.3470  0.9132  0.0609
  161SAPE  C21718070   2.908   1.330   8.484  0.2778 -0.7358 -0.8368
  161SAPE  H17R18071   2.805   1.339   8.524 -0.4082 -0.8048 -2.5008
  161SAPE  H17S18072   2.964   1.426   8.492 -0.2950 -0.2479 -2.3112
  161SAPE  C21818073   2.992   1.232   8.579  0.2398 -0.1221 -0.0296
  161SAPE  H18R18074   3.100   1.221   8.556  0.6629 -1.5909  2.3415
  161SAPE  H18S18075   2.952   1.131   8.558  0.7773 -0.2178 -0.6157
  161SAPE  C21918076   2.985   1.263   8.725  0.0390  0.2519 -0.0385
  161SAPE  H19R18077   3.008   1.170   8.782 -0.3321 -0.3231 -0.8125
  161SAPE  H19S18078   2.882   1.287   8.758  0.7793  1.7011  1.3194
  161SAPE  C22018079   3.059   1.392   8.767 -0.1373 -0.0286  0.2311
  161SAPE  H20R18080   3.022   1.485   8.717  0.6581 -0.7221 -1.7297
  161SAPE  H20S18081   3.164   1.391   8.731  0.2633  2.8001  1.0699
  161SAPE  H20T18082   3.054   1.404   8.877  0.3172 -0.7303  0.3299
  161SAPE   C3318083   2.553   1.341   7.175 -0.7058 -0.0410  0.5999
  161SAPE   H3X18084   2.503   1.256   7.124 -2.1729  1.5699 -0.7694
  161SAPE   H3Y18085   2.503   1.440   7.164  0.0499  0.3174  0.3071
  161SAPE   C3418086   2.557   1.318   7.329 -0.1104  0.6214 -0.5161
  161SAPE   H4X18087   2.628   1.238   7.361 -0.4780  1.1305  1.7403
  161SAPE   H4Y18088   2.456   1.287   7.361 -0.1017  2.1665  1.1369
  161SAPE   C3518089   2.610   1.442   7.392  0.1856 -0.0463 -0.5669
  161SAPE   H5X18090   2.557   1.530   7.351  1.7626 -0.2865 -3.3296
  161SAPE   H5Y18091   2.716   1.457   7.364  0.1480  0.1845 -0.5847
  161SAPE   C3618092   2.607   1.427   7.542 -0.1985 -0.0277 -0.0875
  161SAPE   H6X18093   2.688   1.357   7.570 -0.2895 -0.4665 -0.8796
  161SAPE   H6Y18094   2.511   1.380   7.573 -0.5959  0.1401 -1.0158
  161SAPE   C3718095   2.628   1.564   7.623  0.3646  0.0381 -0.3870
  161SAPE   H7X18096   2.537   1.623   7.605 -0.5642 -0.6570  1.6685
  161SAPE   H7Y18097   2.714   1.616   7.576 -0.1079  0.3714 -0.8765
  161SAPE   C3818098   2.640   1.542   7.782 -0.1960  0.0040 -0.6083
  161SAPE   H8X18099   2.624   1.642   7.829  1.0546  0.7735 -1.7567
  161SAPE   H8Y18100   2.739   1.498   7.808  0.4757  1.5631 -0.3950
  161SAPE   C3918101   2.527   1.451   7.843 -0.1038 -0.1659 -0.3359
  161SAPE   H9X18102   2.515   1.352   7.794 -3.0131  0.4633 -1.0634
  161SAPE   H9Y18103   2.436   1.511   7.823  0.3251  0.3954 -0.6416
  161SAPE  C31018104   2.543   1.427   7.997  1.3048  0.7913  0.0665
  161SAPE  H10X18105   2.545   1.512   8.069 -0.6974 -1.3243  2.8327
  161SAPE  H10Y18106   2.635   1.367   8.013 -0.2334 -1.0424  2.6156
  161SAPE  C31118107   2.423   1.348   8.054  0.4261  0.0066 -0.1096
  161SAPE  H11X18108   2.411   1.243   8.020 -1.2126  0.2656 -0.4309
  161SAPE  H11Y18109   2.334   1.406   8.021 -0.9101 -1.9404 -0.1028
  161SAPE  C31218110   2.425   1.350   8.206  0.2587 -0.0299 -0.5862
  161SAPE  H12X18111   2.320   1.344   8.241  0.2889  0.0249 -0.4836
  161SAPE  H12Y18112   2.474   1.438   8.253 -1.1663  2.1124 -2.9250
  161SAPE  C31318113   2.476   1.219   8.261  0.3812 -0.1628 -0.5013
  161SAPE  H13X18114   2.582   1.212   8.227  0.3792  0.3543 -0.6213
  161SAPE  H13Y18115   2.438   1.138   8.195 -0.9323  0.8100 -0.9794
  161SAPE  C31418116   2.435   1.184   8.405 -0.1947  0.3518 -0.3933
  161SAPE  H14X18117   2.326   1.163   8.404  0.1395 -1.9033  1.4435
  161SAPE  H14Y18118   2.466   1.264   8.476  0.1458 -1.2884  1.4096
  161SAPE  C31518119   2.498   1.054   8.448 -0.6751  0.8556 -0.0989
  161SAPE  H15X18120   2.607   1.054   8.468 -0.6860 -0.5400  0.0828
  161SAPE  H15Y18121   2.485   0.974   8.372 -0.2873  1.2492 -0.5875
  161SAPE  C31618122   2.458   1.000   8.589  0.1861 -0.9321 -0.3492
  161SAPE  H16X18123   2.488   1.082   8.659  2.1710 -1.3309 -0.6888
  161SAPE  H16Y18124   2.516   0.911   8.618  0.2937 -0.2803  1.5801
  161SAPE  C31718125   2.304   0.983   8.605 -0.1384  0.5326 -0.3805
  161SAPE  H17X18126   2.259   1.084   8.604 -1.5692 -0.0764  0.0857
  161SAPE  H17Y18127   2.282   0.938   8.704 -0.6946 -2.6847 -1.8353
  161SAPE  C31818128   2.231   0.900   8.502 -0.4360  0.4161 -0.2638
  161SAPE  H18X18129   2.270   0.796   8.500  1.0359  0.9550 -1.0711
  161SAPE  H18Y18130   2.244   0.950   8.404 -1.1514  0.7298 -0.2059
  161SAPE  H18Z18131   2.123   0.888   8.525 -0.1975 -2.1963 -0.3146
  162SAPE     N18132   6.537   1.165   6.294  0.5669 -1.1225 -0.5659
  162SAPE   HN118133   6.505   1.125   6.204 -0.6320 -0.9737 -0.2252
  162SAPE   HN218134   6.540   1.268   6.277 -0.4133 -0.7972  1.0048
  162SAPE   HN318135   6.631   1.130   6.322  0.7255  0.8377  1.6301
  162SAPE   C1218136   6.420   1.141   6.383 -0.3778  0.1698 -0.6537
  162SAPE  H12A18137   6.442   1.199   6.475  1.8871 -1.5771 -0.0199
  162SAPE  H12B18138   6.416   1.034   6.412 -0.8311 -0.0593 -1.5483
  162SAPE   C1118139   6.293   1.175   6.317 -0.0625 -0.4047  0.7007
  162SAPE  H11A18140   6.298   1.284   6.299 -2.1886 -0.1928  1.0975
  162SAPE  H11B18141   6.211   1.184   6.391 -0.2613 -1.2966  0.6041
  162SAPE     P18142   6.146   0.983   6.214 -0.2132 -0.3331 -0.0371
  162SAPE   O1318143   6.013   1.049   6.221  0.2487  0.0375  0.1953
  162SAPE   O1418144   6.162   0.878   6.117 -0.7970 -0.1004  0.0397
  162SAPE   O1218145   6.257   1.098   6.200 -0.2234 -0.3434 -0.2011
  162SAPE   O1118146   6.174   0.930   6.356  0.6455 -0.1638 -0.7377
  162SAPE    C118147   6.163   0.790   6.368 -0.1166 -0.2511 -0.3582
  162SAPE    HA18148   6.086   0.740   6.307 -0.7675  1.4946 -1.0395
  162SAPE    HB18149   6.258   0.742   6.336  0.1360 -0.2709  0.3958
  162SAPE    C218150   6.166   0.773   6.524  0.3478  0.7181 -0.1596
  162SAPE    HS18151   6.235   0.850   6.565 -0.4619  1.9473 -1.0528
  162SAPE   O2118152   6.209   0.636   6.549 -0.5006  0.6325  0.7151
  162SAPE   C2118153   6.325   0.624   6.608 -0.6047 -0.8398 -0.0546
  162SAPE   O2218154   6.397   0.717   6.652 -0.0173 -0.3734 -0.5895
  162SAPE   C2218155   6.355   0.471   6.632  0.3682 -0.0129  0.0374
  162SAPE   H2R18156   6.267   0.409   6.603  0.2700  0.7030 -1.2747
  162SAPE   H2S18157   6.438   0.440   6.565 -1.5853 -2.0806 -1.5975
  162SAPE    C318158   6.030   0.812   6.595 -0.1103 -0.9082 -0.2859
  162SAPE    HX18159   5.954   0.743   6.551  0.1331 -0.5837 -1.2411
  162SAPE    HY18160   6.001   0.915   6.565  0.6975 -0.3109  0.9384
  162SAPE   O3118161   6.047   0.816   6.742  0.0994  0.2189  0.1135
  162SAPE   C3118162   5.983   0.728   6.823 -0.1683 -1.0897  0.2434
  162SAPE   O3218163   5.910   0.638   6.786  0.3135 -0.6369 -0.1125
  162SAPE   C3218164   6.034   0.739   6.967 -0.2320  0.1359 -0.0596
  162SAPE   H2X18165   6.094   0.832   6.982 -0.6051  0.2785  0.5874
  162SAPE   H2Y18166   6.105   0.654   6.963  1.6299  1.6582 -1.5823
  162SAPE   C2318167   6.410   0.447   6.775  0.0526  0.8510  0.0888
  162SAPE   H3R18168   6.490   0.512   6.816  0.0206  0.3377  0.9861
  162SAPE   H3S18169   6.463   0.350   6.763  0.7809  1.4002 -1.4149
  162SAPE   C2418170   6.305   0.438   6.890 -0.2023  0.1592  0.1089
  162SAPE   H4R18171   6.217   0.384   6.850 -0.6024 -0.3605  1.6429
  162SAPE   H4S18172   6.283   0.546   6.907  1.4672  0.5134  0.1959
  162SAPE   C2518173   6.370   0.389   7.013 -0.1357 -0.2167 -0.4094
  162SAPE   H5R18174   6.476   0.417   7.025 -0.4575  0.4447  1.1499
  162SAPE   C2618175   6.312   0.303   7.096  1.2463 -0.4195  0.2059
  162SAPE   H6R18176   6.377   0.275   7.180  1.8969 -0.3084 -0.2507
  162SAPE   C2718177   6.174   0.250   7.078  0.0346 -0.0761  0.4948
  162SAPE   H7R18178   6.174   0.190   6.985  1.9700  0.0788  0.3621
  162SAPE   H7S18179   6.090   0.321   7.059  0.3302  0.4309  1.0371
  162SAPE   C2818180   6.136   0.153   7.186  0.4813  0.4065 -0.0990
  162SAPE   H8R18181   6.164   0.048   7.170 -1.0287 -0.0071 -0.1799
  162SAPE   C2918182   6.085   0.196   7.305  0.1885 -0.3511 -0.0309
  162SAPE   H9R18183   6.061   0.120   7.380  0.4980 -0.7575 -0.3461
  162SAPE  C21018184   6.062   0.339   7.355 -0.2221 -0.2173 -0.1120
  162SAPE  H10R18185   6.119   0.416   7.298 -0.4445  0.5637  0.6904
  162SAPE  H10S18186   6.118   0.345   7.451 -2.1539  2.5110  1.0011
  162SAPE  C21118187   5.913   0.365   7.374 -0.4982 -0.0643 -0.4164
  162SAPE  H11R18188   5.861   0.407   7.287 -0.6016 -0.7384 -0.6800
  162SAPE  C21218189   5.841   0.335   7.483 -0.4473 -0.0324  0.7576
  162SAPE  H12R18190   5.734   0.353   7.465 -0.8577 -2.4858  0.3166
  162SAPE  C21318191   5.878   0.271   7.610 -0.5968  0.3054  0.1364
  162SAPE  H13R18192   5.925   0.172   7.593 -1.3229 -0.0157 -0.0843
  162SAPE  H13S18193   5.783   0.246   7.663  0.2426 -1.1000  1.0267
  162SAPE  C21418194   5.963   0.360   7.702 -0.0641  0.0112 -0.5404
  162SAPE  H14R18195   6.007   0.453   7.664  0.9490 -0.5751 -0.8506
  162SAPE  C21518196   6.014   0.315   7.814 -0.3964  0.2417 -0.4963
  162SAPE  H15R18197   6.071   0.390   7.870  2.0539  0.3609 -2.9586
  162SAPE  C21618198   5.996   0.177   7.876  0.2048  0.3127  0.0181
  162SAPE  H16R18199   6.093   0.139   7.917  0.7988 -0.0233 -1.6330
  162SAPE  H16S18200   5.964   0.102   7.801 -0.1022 -0.1606  0.6104
  162SAPE  C21718201   5.891   0.169   7.988  0.6311  0.6602  0.3880
  162SAPE  H17R18202   5.791   0.167   7.940  0.8433 -0.5977 -0.0391
  162SAPE  H17S18203   5.886   0.269   8.037 -1.8587  1.6080 -1.5338
  162SAPE  C21818204   5.915   0.053   8.077 -0.6350  0.3342  0.4753
  162SAPE  H18R18205   5.852   0.069   8.168 -3.0227  0.3958 -1.0802
  162SAPE  H18S18206   6.020   0.045   8.111 -0.4359  1.2837  0.1345
  162SAPE  C21918207   5.872  -0.074   8.007  0.0061 -0.0472 -0.7559
  162SAPE  H19R18208   5.904  -0.080   7.901  0.7577  0.9282 -0.5929
  162SAPE  H19S18209   5.761  -0.061   8.005  0.3033  3.4770 -0.6097
  162SAPE  C22018210   5.908  -0.206   8.081 -0.2679  0.4285 -0.0305
  162SAPE  H20R18211   5.838  -0.282   8.040  0.0362 -0.1241  0.4590
  162SAPE  H20S18212   5.886  -0.203   8.190 -0.1260  0.4812 -0.0040
  162SAPE  H20T18213   6.013  -0.237   8.060 -0.6607  0.4429 -2.1288
  162SAPE   C3318214   5.931   0.734   7.078  0.1834 -0.5881  0.1513
  162SAPE   H3X18215   5.877   0.638   7.090 -2.1229  0.8203  1.8107
  162SAPE   H3Y18216   5.857   0.811   7.050 -1.0185 -1.6283  0.3730
  162SAPE   C3418217   5.979   0.773   7.217 -1.0005 -0.5471 -0.4697
  162SAPE   H4X18218   6.042   0.864   7.226 -1.4961 -0.3342  1.3008
  162SAPE   H4Y18219   6.033   0.681   7.247  0.5187  0.3130 -0.4762
  162SAPE   C3518220   5.857   0.788   7.303 -0.2541  0.1076  0.5355
  162SAPE   H5X18221   5.790   0.701   7.286  0.8752 -0.4873 -1.0909
  162SAPE   H5Y18222   5.799   0.881   7.287 -1.7957 -1.1679 -1.8903
  162SAPE   C3618223   5.899   0.778   7.448 -0.4586 -0.6105  0.2906
  162SAPE   H6X18224   5.979   0.852   7.470 -0.0621 -0.3648 -1.8190
  162SAPE   H6Y18225   5.947   0.678   7.457  2.5475  0.6499 -0.3810
  162SAPE   C3718226   5.774   0.792   7.541  0.2988  0.2490  0.9895
  162SAPE   H7X18227   5.709   0.704   7.520 -0.5845  1.2146 -0.4795
  162SAPE   H7Y18228   5.709   0.875   7.508 -1.8515 -1.2584  1.1925
  162SAPE   C3818229   5.809   0.812   7.689 -0.3233  0.3304 -0.1714
  162SAPE   H8X18230   5.866   0.906   7.698 -0.7175  0.4920  0.7689
  162SAPE   H8Y18231   5.874   0.731   7.730 -2.1553 -0.2434  1.8063
  162SAPE   C3918232   5.684   0.836   7.768  0.6590  0.9551  0.2946
  162SAPE   H9X18233   5.598   0.777   7.730  0.2581  2.0376 -0.5286
  162SAPE   H9Y18234   5.645   0.939   7.754 -2.1651 -0.2716 -1.8436
  162SAPE  C31018235   5.702   0.814   7.923 -0.2819  0.3499  0.5859
  162SAPE  H10X18236   5.708   0.708   7.956  1.7270  0.5159  0.8679
  162SAPE  H10Y18237   5.622   0.868   7.978 -1.1040  0.2549 -0.4782
  162SAPE  C31118238   5.831   0.878   7.971 -0.2692  0.3005 -0.8889
  162SAPE  H11X18239   5.840   0.981   7.932  0.9320  1.0137  1.0908
  162SAPE  H11Y18240   5.916   0.816   7.937 -1.0691 -0.9406 -0.6881
  162SAPE  C31218241   5.829   0.898   8.121 -0.6000  0.2834  0.6353
  162SAPE  H12X18242   5.759   0.978   8.152 -0.1423  0.8315  0.2786
  162SAPE  H12Y18243   5.926   0.940   8.158 -0.3993  1.5720 -1.2290
  162SAPE  C31318244   5.798   0.775   8.206  0.2553  0.7552  0.5031
  162SAPE  H13X18245   5.841   0.683   8.160 -3.2372 -1.1999  0.7870
  162SAPE  H13Y18246   5.688   0.771   8.193  0.2718  1.4061  0.1253
  162SAPE  C31418247   5.845   0.781   8.360 -0.2752  0.0949 -0.4406
  162SAPE  H14X18248   5.776   0.715   8.418  0.7457 -0.9471 -0.3502
  162SAPE  H14Y18249   5.842   0.888   8.388 -1.0389  0.8483 -3.1876
  162SAPE  C31518250   5.986   0.730   8.395 -0.4508 -0.0552 -0.9038
  162SAPE  H15X18251   6.014   0.775   8.493  0.2385 -1.4930 -0.4065
  162SAPE  H15Y18252   6.055   0.757   8.312 -0.9188 -0.8445 -1.5675
  162SAPE  C31618253   5.986   0.574   8.428  0.7621  0.0746 -0.5625
  162SAPE  H16X18254   6.088   0.533   8.436  0.1764 -1.0815  1.8686
  162SAPE  H16Y18255   5.937   0.521   8.344  1.3057 -0.1566 -0.7311
  162SAPE  C31718256   5.923   0.527   8.562  0.4909 -0.2952  0.1301
  162SAPE  H17X18257   5.913   0.416   8.551 -1.6047 -0.5275  3.0347
  162SAPE  H17Y18258   5.818   0.560   8.575  1.0240  2.8238 -2.3572
  162SAPE  C31818259   6.008   0.544   8.693 -0.1924 -0.4440  0.1374
  162SAPE  H18X18260   6.105   0.488   8.690  0.2592  0.3655 -1.1622
  162SAPE  H18Y18261   5.944   0.516   8.780 -0.2291 -0.8860 -0.0305
  162SAPE  H18Z18262   6.017   0.653   8.709 -2.7913  0.1896 -2.0772
  163SAPE     N18263   6.481   4.006   6.380  0.1947 -0.2683  0.1696
  163SAPE   HN118264   6.497   4.024   6.278 -1.2605 -1.7623 -0.3661
  163SAPE   HN218265   6.567   4.016   6.438  0.2581  2.8319 -0.2843
  163SAPE   HN318266   6.441   3.910   6.382  2.6656 -1.3645  1.3175
  163SAPE   C1218267   6.385   4.107   6.428  0.7439  0.0468 -0.7772
  163SAPE  H12A18268   6.287   4.075   6.386  1.0375 -0.5101 -1.0459
  163SAPE  H12B18269   6.404   4.204   6.377  0.2584 -0.3292 -1.7047
  163SAPE   C1118270   6.392   4.115   6.580  0.2484 -0.1421  0.0966
  163SAPE  H11A18271   6.371   4.025   6.641 -0.4657  0.4602  0.7659
  163SAPE  H11B18272   6.312   4.189   6.601 -0.5479 -0.3803 -1.9280
  163SAPE     P18273   6.612   4.102   6.723 -0.6112 -0.2925 -0.4848
  163SAPE   O1318274   6.692   3.985   6.673 -0.7892 -0.0737 -0.1314
  163SAPE   O1418275   6.690   4.212   6.788 -0.7357  0.5213  0.0623
  163SAPE   O1218276   6.522   4.164   6.610 -0.0248 -0.2533 -0.0267
  163SAPE   O1118277   6.508   4.043   6.825 -0.3937 -0.7745 -0.5734
  163SAPE    C118278   6.448   4.121   6.928 -0.2208 -0.2908 -0.0522
  163SAPE    HA18279   6.526   4.177   6.983  0.5971 -0.8543 -0.6061
  163SAPE    HB18280   6.377   4.193   6.883  1.2969  1.8091  0.7562
  163SAPE    C218281   6.357   4.035   7.035  0.0603 -0.3156 -0.8260
  163SAPE    HS18282   6.314   4.100   7.114 -0.3230 -0.7159 -0.6964
  163SAPE   O2118283   6.427   3.929   7.102 -0.6409 -0.0758 -0.2461
  163SAPE   C2118284   6.476   3.959   7.222  0.5748  1.2080 -0.0105
  163SAPE   O2218285   6.462   4.066   7.277 -0.2875  0.6237  0.1640
  163SAPE   C2218286   6.548   3.836   7.271 -0.2672  0.8480  0.1433
  163SAPE   H2R18287   6.476   3.770   7.324  1.8949 -2.2584 -0.4960
  163SAPE   H2S18288   6.594   3.775   7.190 -0.5863  0.3129  0.3634
  163SAPE    C318289   6.241   3.971   6.960  0.0095  0.1170  0.3386
  163SAPE    HX18290   6.291   3.891   6.903  1.6225  1.1475  0.2360
  163SAPE    HY18291   6.212   4.048   6.885  0.7953  0.7879  0.6979
  163SAPE   O3118292   6.134   3.923   7.052 -0.0483 -0.1353  0.3278
  163SAPE   C3118293   6.010   3.958   7.020 -0.3835  0.4154 -0.3997
  163SAPE   O3218294   5.976   4.019   6.922 -0.1966 -0.1470  0.0307
  163SAPE   C3218295   5.917   3.911   7.134 -0.1753 -0.6501 -0.0583
  163SAPE   H2X18296   5.899   3.995   7.205 -0.4480  0.0859 -0.9714
  163SAPE   H2Y18297   5.962   3.825   7.188 -3.3063 -2.7085 -0.5364
  163SAPE   C2318298   6.660   3.874   7.365 -0.4590  0.6647 -0.4027
  163SAPE   H3R18299   6.625   3.953   7.434 -0.9275  0.4919 -0.4397
  163SAPE   H3S18300   6.733   3.929   7.302  0.0957 -0.3488 -0.6622
  163SAPE   C2418301   6.711   3.748   7.437  0.0005 -0.1958  1.0441
  163SAPE   H4R18302   6.815   3.766   7.470 -0.4670 -0.7657  2.9781
  163SAPE   H4S18303   6.713   3.667   7.361  0.4409 -1.1612  2.0606
  163SAPE   C2518304   6.616   3.700   7.548 -0.2184 -0.1631  0.1813
  163SAPE   H5R18305   6.529   3.648   7.504 -1.1058  1.0592  0.4355
  163SAPE   C2618306   6.644   3.689   7.677  0.1459 -0.3682  0.2001
  163SAPE   H6R18307   6.571   3.643   7.745 -0.2965 -0.2798 -0.2067
  163SAPE   C2718308   6.776   3.729   7.746  0.6590 -0.3604 -0.8341
  163SAPE   H7R18309   6.832   3.800   7.682 -0.8362 -0.0940 -1.8984
  163SAPE   H7S18310   6.840   3.640   7.760  2.7932  0.9506 -1.6853
  163SAPE   C2818311   6.747   3.805   7.873  0.0134 -0.4080 -0.1708
  163SAPE   H8R18312   6.759   3.913   7.857  0.8831 -0.5591 -0.5925
  163SAPE   C2918313   6.698   3.761   7.989 -0.0971 -0.3099 -0.3388
  163SAPE   H9R18314   6.690   3.831   8.073 -1.3612  0.1661 -0.8442
  163SAPE  C21018315   6.668   3.612   8.023  0.5186  0.1913 -0.7900
  163SAPE  H10R18316   6.760   3.574   8.071  1.8376  3.8552 -0.0887
  163SAPE  H10S18317   6.638   3.548   7.938 -2.8670  2.4190 -1.4834
  163SAPE  C21118318   6.550   3.621   8.120 -0.3962 -0.4085 -0.0476
  163SAPE  H11R18319   6.445   3.625   8.086 -0.6919 -3.3994  0.2653
  163SAPE  C21218320   6.563   3.637   8.255  0.7535 -0.0877 -0.5432
  163SAPE  H12R18321   6.469   3.653   8.311  1.1602  0.5905 -0.0470
  163SAPE  C21318322   6.688   3.641   8.338 -0.2905 -0.0423  0.1362
  163SAPE  H13R18323   6.776   3.619   8.273  0.1482  0.3592  0.5842
  163SAPE  H13S18324   6.677   3.560   8.413 -0.6519 -0.6705 -0.5821
  163SAPE  C21418325   6.721   3.773   8.405 -0.4852  1.0048  1.1998
  163SAPE  H14R18326   6.751   3.852   8.335  1.4840 -2.3496 -2.1323
  163SAPE  C21518327   6.692   3.795   8.530  0.5065 -0.0259  0.0680
  163SAPE  H15R18328   6.717   3.896   8.567 -0.8055  0.4373 -0.2659
  163SAPE  C21618329   6.625   3.703   8.634 -0.3219  0.3760  0.9587
  163SAPE  H16R18330   6.696   3.649   8.701  0.4369  0.5603  0.3179
  163SAPE  H16S18331   6.569   3.624   8.580  1.2643 -0.6496  0.7327
  163SAPE  C21718332   6.516   3.784   8.715  0.5652 -0.0815 -0.1226
  163SAPE  H17R18333   6.449   3.704   8.754  1.3404 -0.8259 -0.2865
  163SAPE  H17S18334   6.456   3.846   8.645 -1.3701 -1.7155  0.0083
  163SAPE  C21818335   6.580   3.859   8.827 -0.7891 -0.1180 -0.6222
  163SAPE  H18R18336   6.662   3.927   8.794 -1.2082  1.7772  1.9287
  163SAPE  H18S18337   6.631   3.787   8.895  3.6916  1.1290 -2.3511
  163SAPE  C21918338   6.483   3.944   8.911  0.6474  1.0509  0.5097
  163SAPE  H19R18339   6.389   3.887   8.923 -0.3574  2.1724 -1.3817
  163SAPE  H19S18340   6.436   4.025   8.851 -0.0035  0.6401  0.4625
  163SAPE  C22018341   6.534   3.999   9.043  0.4296 -0.4630  0.0124
  163SAPE  H20R18342   6.559   3.917   9.114 -1.4155  0.3541  1.7348
  163SAPE  H20S18343   6.454   4.055   9.097  0.3558 -0.2551 -0.3131
  163SAPE  H20T18344   6.623   4.062   9.024 -0.1345  0.6711  0.9597
  163SAPE   C3318345   5.775   3.871   7.087  0.0256 -0.1198  0.0078
  163SAPE   H3X18346   5.772   3.782   7.021 -0.5914 -1.3986  1.6766
  163SAPE   H3Y18347   5.734   3.947   7.018 -4.3529 -0.1610  2.2171
  163SAPE   C3418348   5.667   3.862   7.196  0.0792 -0.7165  0.1355
  163SAPE   H4X18349   5.573   3.825   7.150  0.6777 -0.0656 -1.7333
  163SAPE   H4Y18350   5.634   3.964   7.226  0.1401 -0.8491  0.6653
  163SAPE   C3518351   5.708   3.778   7.316  0.4201 -0.4865  0.0206
  163SAPE   H5X18352   5.795   3.817   7.373 -0.6696  1.6871  0.3037
  163SAPE   H5Y18353   5.745   3.681   7.277 -2.2606 -2.5221  2.2104
  163SAPE   C3618354   5.599   3.759   7.405  0.4259 -0.5548 -0.4698
  163SAPE   H6X18355   5.517   3.708   7.351  1.3011 -1.3107 -1.1179
  163SAPE   H6Y18356   5.564   3.853   7.454  0.8369 -0.4822 -0.3094
  163SAPE   C3718357   5.618   3.677   7.536 -0.2991 -0.0055 -0.1565
  163SAPE   H7X18358   5.714   3.700   7.587 -0.4839  0.6562 -0.0996
  163SAPE   H7Y18359   5.639   3.570   7.513 -1.3085  0.1139 -1.7243
  163SAPE   C3818360   5.503   3.691   7.649  0.1362 -0.3813  0.3942
  163SAPE   H8X18361   5.410   3.658   7.598  0.4096  1.6438 -1.5974
  163SAPE   H8Y18362   5.496   3.800   7.671  0.1526 -0.4533  0.7738
  163SAPE   C3918363   5.535   3.609   7.776  0.2573  0.1526 -0.5668
  163SAPE   H9X18364   5.642   3.631   7.800 -0.0504 -0.4148  1.5108
  163SAPE   H9Y18365   5.518   3.503   7.746 -0.5702  0.6536 -1.9283
  163SAPE  C31018366   5.435   3.651   7.887 -0.0384 -0.0716  0.2831
  163SAPE  H10X18367   5.333   3.624   7.851  0.0039  0.3707 -0.1831
  163SAPE  H10Y18368   5.446   3.761   7.900  0.1145 -0.1261  0.6172
  163SAPE  C31118369   5.460   3.584   8.021 -0.3348  0.0856 -0.2233
  163SAPE  H11X18370   5.554   3.625   8.062 -0.1903 -0.2678 -0.1961
  163SAPE  H11Y18371   5.479   3.475   8.034 -0.2807  0.3316  2.1915
  163SAPE  C31218372   5.352   3.613   8.120 -0.0308 -0.0061  0.0625
  163SAPE  H12X18373   5.262   3.556   8.088  1.6269 -2.6258 -0.2259
  163SAPE  H12Y18374   5.337   3.722   8.128  0.2330  0.0962 -0.7497
  163SAPE  C31318375   5.375   3.549   8.259 -0.1029 -0.3047  0.0409
  163SAPE  H13X18376   5.471   3.597   8.289 -0.6033  0.5170  0.3641
  163SAPE  H13Y18377   5.406   3.443   8.252  0.5594 -0.0557 -1.0714
  163SAPE  C31418378   5.268   3.573   8.356 -0.2273  0.2767 -0.2566
  163SAPE  H14X18379   5.211   3.668   8.350 -0.4595  0.1098 -0.7507
  163SAPE  H14Y18380   5.315   3.578   8.456  0.4155  1.9326 -0.6167
  163SAPE  C31518381   5.153   3.461   8.368 -0.3165 -1.1053 -0.3605
  163SAPE  H15X18382   5.203   3.362   8.366 -0.2241 -1.0765  0.2330
  163SAPE  H15Y18383   5.086   3.465   8.280 -0.6954 -0.5763 -0.0552
  163SAPE  C31618384   5.076   3.477   8.501  0.0861 -0.1711  0.2419
  163SAPE  H16X18385   4.973   3.439   8.485 -0.9181  1.2645  2.6376
  163SAPE  H16Y18386   5.055   3.585   8.520 -0.0761 -0.2626  0.5924
  163SAPE  C31718387   5.145   3.421   8.625  0.4137 -0.2069  0.0976
  163SAPE  H17X18388   5.088   3.456   8.713  3.2793  2.8603  0.9360
  163SAPE  H17Y18389   5.253   3.446   8.630  0.2252  0.6942 -0.1982
  163SAPE  C31818390   5.143   3.268   8.645 -0.2470  0.6754  0.3242
  163SAPE  H18X18391   5.193   3.219   8.559  0.3841  0.7461  0.6439
  163SAPE  H18Y18392   5.043   3.226   8.668 -0.0894  0.3293  0.3901
  163SAPE  H18Z18393   5.202   3.246   8.736 -0.3809  0.3424  0.3338
  164SAPE     N18394   2.443   5.164   5.881  0.7498 -0.5004  0.4311
  164SAPE   HN118395   2.507   5.105   5.937  1.4109 -0.6199 -0.4279
  164SAPE   HN218396   2.353   5.113   5.868  0.9682 -0.6566 -0.5744
  164SAPE   HN318397   2.473   5.191   5.785  1.0428 -0.2323  0.5980
  164SAPE   C1218398   2.430   5.288   5.965 -0.0157  0.4026 -0.2873
  164SAPE  H12A18399   2.378   5.368   5.909 -2.3341 -0.6827  0.1984
  164SAPE  H12B18400   2.530   5.325   5.995  0.3013  0.5400 -1.4490
  164SAPE   C1118401   2.341   5.264   6.091 -0.0848 -0.2564 -0.2684
  164SAPE  H11A18402   2.333   5.356   6.153 -1.2385 -1.6850  1.7895
  164SAPE  H11B18403   2.377   5.189   6.164  2.2018 -1.1635 -2.1741
  164SAPE     P18404   2.115   5.107   6.073 -0.3249 -0.2744 -0.0005
  164SAPE   O1318405   1.986   5.125   6.006  0.2359  0.1245 -0.4411
  164SAPE   O1418406   2.189   4.982   6.042  0.4722 -0.2481  0.1004
  164SAPE   O1218407   2.206   5.232   6.045 -0.3020 -0.4371  0.5701
  164SAPE   O1118408   2.085   5.116   6.229 -0.0108 -0.1530  0.1551
  164SAPE    C118409   2.038   5.238   6.293  0.6708 -0.3683  0.9487
  164SAPE    HA18410   2.062   5.329   6.235  0.5050 -0.6001  0.5118
  164SAPE    HB18411   1.927   5.243   6.301  0.6478 -1.9604  2.0054
  164SAPE    C218412   2.089   5.253   6.437 -0.0312 -0.1629  0.0996
  164SAPE    HS18413   2.045   5.167   6.493 -0.0139  0.5324  1.2181
  164SAPE   O2118414   2.046   5.376   6.490 -0.6926 -0.0304  0.1486
  164SAPE   C2118415   1.958   5.372   6.587 -0.3125  0.0307  0.2415
  164SAPE   O2218416   1.893   5.275   6.625 -0.3477  0.1531 -0.1787
  164SAPE   C2218417   1.941   5.508   6.651 -0.6208 -1.0303  0.3864
  164SAPE   H2R18418   2.038   5.537   6.696 -0.6750  0.8522 -0.6353
  164SAPE   H2S18419   1.915   5.583   6.573  1.6094 -0.2702  0.3099
  164SAPE    C318420   2.245   5.239   6.440 -0.1333  0.1686 -0.2391
  164SAPE    HX18421   2.273   5.321   6.370 -2.3299  0.7073 -0.5548
  164SAPE    HY18422   2.279   5.143   6.395  2.7045  0.7509  0.4042
  164SAPE   O3118423   2.292   5.270   6.570  0.1151  0.2561 -0.3965
  164SAPE   C3118424   2.389   5.198   6.612  0.2234  1.0069  0.3149
  164SAPE   O3218425   2.470   5.131   6.546 -0.1440  0.1026  0.2318
  164SAPE   C3218426   2.408   5.209   6.767  0.4113  0.2817 -0.5857
  164SAPE   H2X18427   2.466   5.118   6.793 -2.4880 -0.5145  4.3425
  164SAPE   H2Y18428   2.304   5.193   6.803  1.4178 -2.1081  1.6056
  164SAPE   C2318429   1.827   5.514   6.760  0.4037 -0.2699  1.1290
  164SAPE   H3R18430   1.734   5.495   6.702  0.4226 -0.3812  1.1332
  164SAPE   H3S18431   1.809   5.620   6.786  1.7129 -0.5894  3.6595
  164SAPE   C2418432   1.848   5.424   6.888 -0.4202  0.0999 -0.0571
  164SAPE   H4R18433   1.940   5.469   6.930 -1.6485  1.6908  1.0353
  164SAPE   H4S18434   1.875   5.320   6.859  0.5053  1.1565 -3.4568
  164SAPE   C2518435   1.737   5.422   6.996 -0.7155 -0.2364 -0.3637
  164SAPE   H5R18436   1.648   5.364   6.968 -0.1892 -1.7447  0.9360
  164SAPE   C2618437   1.723   5.499   7.107 -0.6506 -0.0910  0.5193
  164SAPE   H6R18438   1.626   5.489   7.158 -1.5688 -0.8165 -1.3040
  164SAPE   C2718439   1.830   5.592   7.158  0.0025 -0.0577  0.1429
  164SAPE   H7R18440   1.875   5.637   7.068  0.6335  1.4198  1.1590
  164SAPE   H7S18441   1.916   5.552   7.216  2.0480  0.5667 -2.2813
  164SAPE   C2818442   1.794   5.711   7.243  0.7395  0.5624 -0.4600
  164SAPE   H8R18443   1.795   5.810   7.196  1.4485  1.8902  2.1725
  164SAPE   C2918444   1.761   5.707   7.372  0.6364  0.2929 -0.1869
  164SAPE   H9R18445   1.741   5.802   7.425  0.9503  0.7030 -0.7848
  164SAPE  C21018446   1.753   5.590   7.466 -0.1561 -0.2551  0.4857
  164SAPE  H10R18447   1.840   5.592   7.535 -0.3804 -1.1775  0.8084
  164SAPE  H10S18448   1.778   5.506   7.398  1.6848  0.5288  0.1419
  164SAPE  C21118449   1.623   5.580   7.543  0.2621 -1.0694 -0.0666
  164SAPE  H11R18450   1.535   5.527   7.504  0.3417 -1.3572  0.1390
  164SAPE  C21218451   1.615   5.627   7.671  0.1455 -0.2578 -1.0271
  164SAPE  H12R18452   1.521   5.630   7.727  1.5739  0.8957  1.4779
  164SAPE  C21318453   1.722   5.696   7.764  0.6180  0.1201 -0.0344
  164SAPE  H13R18454   1.653   5.768   7.812  0.4399 -0.0646 -0.0158
  164SAPE  H13S18455   1.794   5.752   7.700 -1.6597  3.2172 -0.1283
  164SAPE  C21418456   1.802   5.618   7.868 -0.5775 -0.0820  0.6126
  164SAPE  H14R18457   1.865   5.540   7.825 -1.0482  0.8410 -1.9395
  164SAPE  C21518458   1.815   5.645   7.998  0.4111  0.3551  0.7179
  164SAPE  H15R18459   1.876   5.576   8.059 -1.9327 -2.0492  0.5317
  164SAPE  C21618460   1.756   5.752   8.095  0.1123  0.0578 -0.7993
  164SAPE  H16R18461   1.708   5.831   8.033 -2.8101 -1.2349 -0.3800
  164SAPE  H16S18462   1.837   5.779   8.165  0.7012  1.1026 -1.8548
  164SAPE  C21718463   1.649   5.676   8.189  0.5534  0.0361  0.4270
  164SAPE  H17R18464   1.627   5.733   8.282 -1.4494 -0.2864  0.1907
  164SAPE  H17S18465   1.678   5.575   8.222 -0.2549  0.0482  1.2182
  164SAPE  C21818466   1.522   5.659   8.108 -0.2218  0.5153  0.6782
  164SAPE  H18R18467   1.530   5.582   8.028  1.5717  0.1650  1.1628
  164SAPE  H18S18468   1.489   5.755   8.063 -2.7557 -0.9984 -0.9452
  164SAPE  C21918469   1.398   5.624   8.198  0.0134  0.4203  0.2415
  164SAPE  H19R18470   1.303   5.622   8.140  0.5694  0.2623 -0.6770
  164SAPE  H19S18471   1.401   5.704   8.275 -0.1267  0.2461  0.4292
  164SAPE  C22018472   1.411   5.489   8.273 -0.4389 -0.4284 -0.5329
  164SAPE  H20R18473   1.317   5.480   8.331  0.7397 -1.6062  1.3017
  164SAPE  H20S18474   1.502   5.484   8.336  0.2463  0.4059 -1.4387
  164SAPE  H20T18475   1.424   5.405   8.202  0.6753  0.1393 -1.0302
  164SAPE   C3318476   2.469   5.338   6.823  0.3171 -0.6255 -0.1335
  164SAPE   H3X18477   2.542   5.376   6.749 -0.2946 -0.6971 -0.7771
  164SAPE   H3Y18478   2.516   5.309   6.920 -0.4404  0.3526  0.5466
  164SAPE   C3418479   2.370   5.452   6.865 -0.2897 -0.0802  0.2515
  164SAPE   H4X18480   2.320   5.484   6.771  0.3564  0.0287 -0.0603
  164SAPE   H4Y18481   2.440   5.533   6.896 -0.8561  0.5548 -0.1003
  164SAPE   C3518482   2.278   5.423   6.984  0.1917  0.2505 -0.0506
  164SAPE   H5X18483   2.228   5.324   6.980 -0.5463  0.6471 -2.1322
  164SAPE   H5Y18484   2.193   5.495   6.988 -0.5591 -0.6485  3.6440
  164SAPE   C3618485   2.352   5.429   7.126  0.2350  0.9421 -0.2394
  164SAPE   H6X18486   2.397   5.530   7.136  1.1244  0.4594  0.8344
  164SAPE   H6Y18487   2.430   5.350   7.130  0.2650  1.0139  1.8110
  164SAPE   C3718488   2.254   5.414   7.239  0.3650  0.2182 -0.3712
  164SAPE   H7X18489   2.206   5.314   7.231  0.4835  0.1966 -0.8285
  164SAPE   H7Y18490   2.177   5.494   7.228  1.4043  1.2717 -0.2744
  164SAPE   C3818491   2.323   5.427   7.377 -0.5063 -0.8183 -0.0062
  164SAPE   H8X18492   2.380   5.522   7.372  0.8782 -1.6339 -0.0204
  164SAPE   H8Y18493   2.397   5.345   7.391  0.6296 -0.4950 -3.2599
  164SAPE   C3918494   2.222   5.440   7.492 -1.3968  0.0808  0.1751
  164SAPE   H9X18495   2.166   5.344   7.495 -1.7877  0.0828 -3.1765
  164SAPE   H9Y18496   2.148   5.515   7.456 -0.2813  2.0310  1.7412
  164SAPE  C31018497   2.288   5.484   7.622 -0.1555  0.5565 -0.3985
  164SAPE  H10X18498   2.328   5.587   7.609  2.6393  0.0512  2.9098
  164SAPE  H10Y18499   2.363   5.407   7.646 -0.0450  0.2049 -1.7851
  164SAPE  C31118500   2.182   5.495   7.738 -0.5342  0.1372 -0.2721
  164SAPE  H11X18501   2.152   5.397   7.779  1.1249  0.2617  1.3980
  164SAPE  H11Y18502   2.096   5.550   7.693  1.2305  1.5206 -2.1619
  164SAPE  C31218503   2.233   5.566   7.861 -1.0142 -0.1231  0.0876
  164SAPE  H12X18504   2.149   5.572   7.934  0.0435 -0.1529  1.3279
  164SAPE  H12Y18505   2.257   5.671   7.832  0.6173 -0.4385  0.2454
  164SAPE  C31318506   2.349   5.492   7.932 -0.5158 -0.1566  0.2859
  164SAPE  H13X18507   2.436   5.482   7.864 -0.0910 -1.1919  0.9413
  164SAPE  H13Y18508   2.310   5.388   7.935  0.2610 -0.5029 -1.0062
  164SAPE  C31418509   2.382   5.559   8.067  0.2769 -0.3249  0.1416
  164SAPE  H14X18510   2.376   5.669   8.051  0.8338 -0.1925  0.8061
  164SAPE  H14Y18511   2.491   5.542   8.074  0.5267  0.7781 -0.7939
  164SAPE  C31518512   2.288   5.517   8.170  1.0007 -0.8468 -1.4851
  164SAPE  H15X18513   2.350   5.467   8.248 -0.9430 -2.0274 -0.6128
  164SAPE  H15Y18514   2.228   5.427   8.143 -1.1505 -0.4160  1.3871
  164SAPE  C31618515   2.205   5.625   8.235  0.2943  0.4276  0.1162
  164SAPE  H16X18516   2.140   5.659   8.151 -0.4997  1.1170  0.9852
  164SAPE  H16Y18517   2.283   5.699   8.263  1.8369 -0.7321 -0.9414
  164SAPE  C31718518   2.122   5.574   8.353 -0.8105 -0.4255 -0.1425
  164SAPE  H17X18519   2.183   5.541   8.439 -1.6711 -0.0784  0.6156
  164SAPE  H17Y18520   2.064   5.485   8.318 -3.1987 -0.1870  2.7750
  164SAPE  C31818521   2.018   5.671   8.411 -0.4015  0.2688  0.3172
  164SAPE  H18X18522   1.948   5.708   8.334 -0.2024 -0.1972 -0.0972
  164SAPE  H18Y18523   2.066   5.766   8.443 -0.2177  0.0100  0.8193
  164SAPE  H18Z18524   1.958   5.627   8.494 -0.1662 -2.1195 -0.7069
  165SAPE     N18525   2.854   3.392   6.309  0.2119  0.2096  0.1923
  165SAPE   HN118526   2.815   3.340   6.228  0.8037 -1.9970  1.2387
  165SAPE   HN218527   2.800   3.374   6.397 -0.0802 -0.4278 -0.1119
  165SAPE   HN318528   2.837   3.493   6.295 -2.1112  0.0827  1.5616
  165SAPE   C1218529   3.001   3.367   6.336 -0.7416 -0.2708 -0.1172
  165SAPE  H12A18530   3.042   3.463   6.375 -1.6519  0.9706 -2.0998
  165SAPE  H12B18531   3.057   3.344   6.243  0.0997  2.9634 -0.5142
  165SAPE   C1118532   3.029   3.256   6.443 -0.2053  0.0899  1.0191
  165SAPE  H11A18533   2.987   3.297   6.537 -2.3425 -2.5724  1.3824
  165SAPE  H11B18534   3.139   3.242   6.453  0.0926  0.7273 -0.9196
  165SAPE     P18535   3.024   3.026   6.323  0.1141  0.3401 -0.1572
  165SAPE   O1318536   3.048   3.071   6.189  0.2716 -0.4738 -0.1560
  165SAPE   O1418537   3.149   2.983   6.397  0.2720 -0.0432 -0.1648
  165SAPE   O1218538   2.951   3.137   6.412  0.9890  0.3987  1.1222
  165SAPE   O1118539   2.925   2.906   6.322 -0.0807  0.4204 -0.3509
  165SAPE    C118540   2.788   2.913   6.290  0.2450  0.5789 -0.0515
  165SAPE    HA18541   2.769   2.977   6.201 -1.8604  0.3084  0.1598
  165SAPE    HB18542   2.747   2.814   6.262  1.5009 -0.2324  0.8775
  165SAPE    C218543   2.704   2.950   6.413 -0.0972 -0.3407  1.0263
  165SAPE    HS18544   2.704   3.061   6.415 -0.2829 -0.3125  0.1073
  165SAPE   O2118545   2.751   2.884   6.536 -0.9894 -0.0491  0.0027
  165SAPE   C2118546   2.738   2.956   6.648 -0.2345 -0.1221 -0.6445
  165SAPE   O2218547   2.693   3.069   6.646 -0.1112  0.2859  0.2997
  165SAPE   C2218548   2.773   2.871   6.772 -0.5371  0.1999  0.1478
  165SAPE   H2R18549   2.741   2.765   6.761 -2.2920  0.4733  1.9940
  165SAPE   H2S18550   2.882   2.880   6.788 -0.4797 -0.0972 -0.0764
  165SAPE    C318551   2.554   2.889   6.394 -0.2610  0.0042  0.2677
  165SAPE    HX18552   2.573   2.781   6.375  1.8822  0.2917  0.5443
  165SAPE    HY18553   2.499   2.926   6.305 -1.7965 -2.9012 -0.1366
  165SAPE   O3118554   2.468   2.909   6.515  0.0428  0.2480 -0.1775
  165SAPE   C3118555   2.419   3.034   6.525  0.7730 -0.0300  0.1267
  165SAPE   O3218556   2.434   3.121   6.439  0.2706 -0.0235 -0.3738
  165SAPE   C3218557   2.361   3.063   6.664  0.1022 -0.6077  0.1216
  165SAPE   H2X18558   2.446   3.116   6.714 -0.7751  0.2932  0.7138
  165SAPE   H2Y18559   2.348   2.970   6.723  2.6569  0.6651  3.0312
  165SAPE   C2318560   2.710   2.923   6.903  0.0749  0.5936  0.2310
  165SAPE   H3R18561   2.715   3.033   6.918  0.6244  0.3904  1.6504
  165SAPE   H3S18562   2.766   2.885   6.991  0.8784  0.3149 -0.3877
  165SAPE   C2418563   2.570   2.865   6.922  0.2681 -0.8589 -0.2411
  165SAPE   H4R18564   2.577   2.758   6.950 -2.1339 -0.5164  2.0191
  165SAPE   H4S18565   2.526   2.868   6.821 -1.9093  0.5119  0.6708
  165SAPE   C2518566   2.479   2.920   7.025  0.3393 -0.5639 -0.2523
  165SAPE   H5R18567   2.440   3.021   7.008 -1.0207 -0.7888  1.2689
  165SAPE   C2618568   2.432   2.860   7.139  0.2568 -0.0384 -0.3108
  165SAPE   H6R18569   2.368   2.922   7.203 -1.0485 -0.7974 -0.8406
  165SAPE   C2718570   2.469   2.724   7.206  0.1285 -0.1778 -0.1184
  165SAPE   H7R18571   2.493   2.750   7.311  1.6290  2.1645 -0.9507
  165SAPE   H7S18572   2.563   2.694   7.155 -0.5058  0.0931 -1.4908
  165SAPE   C2818573   2.376   2.605   7.187  0.1735  0.5593  0.0247
  165SAPE   H8R18574   2.328   2.603   7.088 -0.4805  0.2581  0.3397
  165SAPE   C2918575   2.355   2.502   7.272  0.0943 -0.2466 -0.1323
  165SAPE   H9R18576   2.269   2.439   7.244  1.1747 -1.1799 -1.4489
  165SAPE  C21018577   2.429   2.491   7.402 -0.2338  0.0593  0.4073
  165SAPE  H10R18578   2.364   2.495   7.492  0.3846 -1.3463  0.9411
  165SAPE  H10S18579   2.508   2.569   7.416 -0.8631  1.0201 -1.1580
  165SAPE  C21118580   2.502   2.364   7.409 -0.0663 -0.2017  0.2319
  165SAPE  H11R18581   2.496   2.299   7.320 -4.2236 -0.7004  0.6771
  165SAPE  C21218582   2.568   2.306   7.511 -0.5621  0.2762  0.2649
  165SAPE  H12R18583   2.628   2.214   7.497  1.2784  1.1613  1.7908
  165SAPE  C21318584   2.592   2.380   7.645  0.0561  0.1718  0.5537
  165SAPE  H13R18585   2.567   2.488   7.637  0.8454  0.3641  0.6648
  165SAPE  H13S18586   2.701   2.369   7.662  0.1638  3.4437  3.0604
  165SAPE  C21418587   2.526   2.314   7.761  0.3855  0.9741  0.2742
  165SAPE  H14R18588   2.464   2.229   7.728  2.5008  0.0641 -1.6246
  165SAPE  C21518589   2.527   2.351   7.889  0.3589  0.1966  0.7232
  165SAPE  H15R18590   2.467   2.301   7.966  1.8616  0.0396  1.8558
  165SAPE  C21618591   2.592   2.481   7.937 -0.1052  0.0273 -0.0636
  165SAPE  H16R18592   2.508   2.544   7.972  0.6776  1.7785 -1.1987
  165SAPE  H16S18593   2.642   2.542   7.859 -1.7038 -2.2022 -3.0327
  165SAPE  C21718594   2.689   2.473   8.056 -0.6928 -0.7209  0.2391
  165SAPE  H17R18595   2.773   2.404   8.030  0.2475  0.1703  0.8557
  165SAPE  H17S18596   2.646   2.437   8.152 -0.8835  0.3646  0.5714
  165SAPE  C21818597   2.746   2.616   8.096  0.7331 -0.3440  0.0478
  165SAPE  H18R18598   2.656   2.680   8.086 -0.7311 -1.5451  3.7617
  165SAPE  H18S18599   2.824   2.657   8.028 -1.1622  1.9033 -0.9201
  165SAPE  C21918600   2.800   2.624   8.237 -0.2469 -1.1115  0.4221
  165SAPE  H19R18601   2.836   2.727   8.259 -0.1546 -0.1760 -3.4327
  165SAPE  H19S18602   2.881   2.549   8.239 -0.0305 -0.9222 -0.6503
  165SAPE  C22018603   2.696   2.595   8.349  0.6546 -0.2274 -1.2559
  165SAPE  H20R18604   2.690   2.485   8.363  1.2788 -0.2037 -0.7746
  165SAPE  H20S18605   2.595   2.640   8.337  0.0999 -1.3117 -0.7896
  165SAPE  H20T18606   2.739   2.643   8.439 -2.4005 -1.1658  0.8511
  165SAPE   C3318607   2.236   3.148   6.673  0.0741  0.4323  0.2487
  165SAPE   H3X18608   2.151   3.091   6.631 -0.5882  0.8010  1.0719
  165SAPE   H3Y18609   2.245   3.238   6.609  1.2129 -0.7134 -1.3040
  165SAPE   C3418610   2.186   3.191   6.817  0.2328 -0.1793  0.4415
  165SAPE   H4X18611   2.092   3.247   6.798  0.1535  1.0388  3.7195
  165SAPE   H4Y18612   2.257   3.271   6.848  0.7612 -0.2354 -0.5891
  165SAPE   C3518613   2.162   3.074   6.910 -0.6206  0.2356  0.1070
  165SAPE   H5X18614   2.258   3.020   6.921 -1.2096 -0.5618  1.5417
  165SAPE   H5Y18615   2.087   3.010   6.859 -2.3996  1.2897  1.2422
  165SAPE   C3618616   2.111   3.121   7.050 -1.0564 -1.0418 -0.0422
  165SAPE   H6X18617   2.179   3.206   7.073 -2.6544 -0.3717  2.5876
  165SAPE   H6Y18618   2.131   3.032   7.112 -1.0633 -1.3324 -0.4559
  165SAPE   C3718619   1.970   3.151   7.076  0.3777 -0.0890  0.8770
  165SAPE   H7X18620   1.916   3.056   7.054  0.7295  0.3158 -2.2507
  165SAPE   H7Y18621   1.931   3.223   7.001 -0.4759 -0.0815  1.3150
  165SAPE   C3818622   1.932   3.201   7.220 -0.0230 -0.4134 -0.7196
  165SAPE   H8X18623   1.990   3.296   7.233 -1.4977  0.2794  1.1686
  165SAPE   H8Y18624   1.973   3.120   7.283 -2.8352 -1.7887 -0.5434
  165SAPE   C3918625   1.783   3.223   7.253 -0.1445 -0.2403  0.7204
  165SAPE   H9X18626   1.734   3.124   7.251 -0.3601 -0.1215 -0.8372
  165SAPE   H9Y18627   1.731   3.294   7.185  1.6184  0.6470  0.2219
  165SAPE  C31018628   1.758   3.268   7.403 -0.2816 -0.6462  0.0749
  165SAPE  H10X18629   1.793   3.373   7.416  0.4298 -0.7870 -0.6645
  165SAPE  H10Y18630   1.821   3.208   7.472  0.9372 -1.8517 -1.9776
  165SAPE  C31118631   1.611   3.266   7.432 -0.8425  0.0609  0.2337
  165SAPE  H11X18632   1.562   3.171   7.401  1.2664 -0.5851 -1.3312
  165SAPE  H11Y18633   1.566   3.347   7.371  0.2280  1.7357  1.5919
  165SAPE  C31218634   1.585   3.299   7.584  0.0026 -0.0280 -0.0848
  165SAPE  H12X18635   1.477   3.320   7.597  0.4100  1.8621  0.5682
  165SAPE  H12Y18636   1.633   3.399   7.593 -0.2016  0.1832 -1.2187
  165SAPE  C31318637   1.639   3.207   7.696 -0.1225 -0.0900 -0.0540
  165SAPE  H13X18638   1.748   3.190   7.685  0.2586  0.5798  2.1878
  165SAPE  H13Y18639   1.590   3.107   7.694 -1.0698  0.3566  0.2070
  165SAPE  C31418640   1.619   3.269   7.835 -0.6124 -0.3936 -0.3947
  165SAPE  H14X18641   1.514   3.306   7.839 -0.9505 -1.3559  0.1005
  165SAPE  H14Y18642   1.683   3.356   7.860 -0.8627 -0.4668  0.5406
  165SAPE  C31518643   1.635   3.172   7.948  0.1158  0.4608 -0.5544
  165SAPE  H15X18644   1.743   3.166   7.976 -0.5050  0.3158  2.1059
  165SAPE  H15Y18645   1.597   3.075   7.910  0.0455  0.1170  0.3494
  165SAPE  C31618646   1.552   3.204   8.077 -0.1643 -0.3860  0.9262
  165SAPE  H16X18647   1.549   3.118   8.148  2.3876 -1.3327  0.0032
  165SAPE  H16Y18648   1.450   3.234   8.044  1.0179  1.3341 -1.5448
  165SAPE  C31718649   1.603   3.327   8.146  0.2335 -0.3425 -0.0958
  165SAPE  H17X18650   1.594   3.410   8.072 -0.5509 -1.7379 -1.6298
  165SAPE  H17Y18651   1.710   3.306   8.165  0.4127  1.2291  0.8497
  165SAPE  C31818652   1.538   3.357   8.285 -0.0545 -0.4840  0.5858
  165SAPE  H18X18653   1.472   3.271   8.309 -0.3524  0.4104  3.3194
  165SAPE  H18Y18654   1.483   3.454   8.279 -0.3806 -0.7533 -1.5931
  165SAPE  H18Z18655   1.609   3.359   8.370 -0.4802  0.8637  0.9378
  166SAPE     N18656   1.240   0.664   6.085  0.1731 -0.4534  0.1113
  166SAPE   HN118657   1.340   0.689   6.077  0.1062 -0.0925  0.3794
  166SAPE   HN218658   1.193   0.757   6.093  1.3472  0.0622  1.4242
  166SAPE   HN318659   1.219   0.606   6.168  2.1653  0.2316  1.1313
  166SAPE   C1218660   1.191   0.593   5.959  0.1548 -0.8077  0.1844
  166SAPE  H12A18661   1.183   0.674   5.884  0.8710 -0.1806  0.7696
  166SAPE  H12B18662   1.087   0.562   5.983  0.9733 -3.4577  0.6168
  166SAPE   C1118663   1.271   0.468   5.911  0.1001 -0.0413 -0.2852
  166SAPE  H11A18664   1.375   0.492   5.879  0.9434 -0.9813  1.6102
  166SAPE  H11B18665   1.216   0.433   5.821  0.3131 -1.5151  0.1294
  166SAPE     P18666   1.392   0.284   6.068 -0.0459  0.0871 -0.0137
  166SAPE   O1318667   1.385   0.137   6.046  0.2963 -0.2187 -0.2656
  166SAPE   O1418668   1.512   0.351   6.021 -0.3850 -0.5468 -0.1316
  166SAPE   O1218669   1.264   0.350   5.998 -0.0641  0.3037 -0.0450
  166SAPE   O1118670   1.357   0.317   6.220  0.1366  0.1208  0.1012
  166SAPE    C118671   1.453   0.297   6.325 -0.6170  0.0351 -0.0541
  166SAPE    HA18672   1.548   0.250   6.294  0.1299  0.9252  0.7868
  166SAPE    HB18673   1.485   0.398   6.359  1.3934 -0.8723  0.8889
  166SAPE    C218674   1.399   0.219   6.444  0.3090 -0.3124 -0.8695
  166SAPE    HS18675   1.376   0.117   6.405  1.8013 -1.4734  1.0463
  166SAPE   O2118676   1.281   0.288   6.485  0.6821  0.2366 -0.0608
  166SAPE   C2118677   1.178   0.216   6.532  0.1017  0.5527 -0.4027
  166SAPE   O2218678   1.151   0.102   6.504 -0.1260  0.2743  0.1877
  166SAPE   C2218679   1.102   0.297   6.637  0.3831 -0.1543 -1.0185
  166SAPE   H2R18680   1.174   0.348   6.704  1.7802 -2.9938 -0.2144
  166SAPE   H2S18681   1.047   0.377   6.582 -0.9050  1.0482  1.8285
  166SAPE    C318682   1.494   0.215   6.564  0.1920 -0.0390 -0.0889
  166SAPE    HX18683   1.479   0.315   6.609 -1.8913 -0.5738  0.5068
  166SAPE    HY18684   1.597   0.202   6.523  1.1306  1.5173  1.6206
  166SAPE   O3118685   1.449   0.112   6.659 -0.3796 -0.1283  0.1109
  166SAPE   C3118686   1.442  -0.012   6.616 -0.1307 -0.9438  0.3446
  166SAPE   O3218687   1.502  -0.058   6.521  0.4544 -0.3210  0.0255
  166SAPE   C3218688   1.346  -0.092   6.703 -0.0329  0.5597  0.0092
  166SAPE   H2X18689   1.334  -0.198   6.674  2.3031  0.5245 -1.0560
  166SAPE   H2Y18690   1.248  -0.045   6.680 -1.3442 -1.9269  0.2656
  166SAPE   C2318691   1.010   0.228   6.733  0.1967 -0.2127 -0.2617
  166SAPE   H3R18692   0.958   0.149   6.674  2.1643  1.0261 -3.9504
  166SAPE   H3S18693   0.934   0.302   6.767  0.2733 -0.6343  0.8763
  166SAPE   C2418694   1.064   0.172   6.860  0.4506 -0.6860 -1.6690
  166SAPE   H4R18695   1.133   0.245   6.907  0.8667 -1.9870 -0.1810
  166SAPE   H4S18696   1.144   0.098   6.839  1.9532 -0.2246  1.8183
  166SAPE   C2518697   0.964   0.126   6.964 -0.2281 -1.3312  0.1194
  166SAPE   H5R18698   0.882   0.064   6.926 -1.5296  1.4147 -1.9484
  166SAPE   C2618699   0.957   0.169   7.089 -0.0712 -0.0074  0.1629
  166SAPE   H6R18700   0.881   0.131   7.159 -0.4104  1.8494  0.8684
  166SAPE   C2718701   1.049   0.284   7.144 -0.9743  0.5960  0.0198
  166SAPE   H7R18702   1.076   0.358   7.066  2.5903 -1.9606 -1.4240
  166SAPE   H7S18703   1.150   0.253   7.177  0.1737  0.5684 -3.1487
  166SAPE   C2818704   0.971   0.363   7.246 -0.1533  0.3021 -0.3596
  166SAPE   H8R18705   0.866   0.386   7.221  0.1792 -0.3566 -2.6351
  166SAPE   C2918706   1.021   0.417   7.357  0.7434 -0.0868  0.3519
  166SAPE   H9R18707   0.953   0.472   7.424 -0.2927 -0.5604 -0.2932
  166SAPE  C21018708   1.169   0.412   7.399 -0.0325 -0.3583 -0.3729
  166SAPE  H10R18709   1.183   0.505   7.458 -0.2973 -1.4485  1.5243
  166SAPE  H10S18710   1.237   0.421   7.312 -1.3515 -0.3447 -1.4249
  166SAPE  C21118711   1.203   0.289   7.477 -0.3488 -0.5848  0.1628
  166SAPE  H11R18712   1.252   0.215   7.412  1.1805  0.9101 -0.4692
  166SAPE  C21218713   1.169   0.259   7.606  0.1049 -0.0970 -0.8963
  166SAPE  H12R18714   1.203   0.165   7.652 -0.6200  0.4583  0.8548
  166SAPE  C21318715   1.095   0.362   7.693  0.6255  1.1158 -0.4914
  166SAPE  H13R18716   0.998   0.310   7.709  2.4035 -1.8370  1.7771
  166SAPE  H13S18717   1.072   0.457   7.640  0.3644  0.7424 -1.0633
  166SAPE  C21418718   1.140   0.391   7.837  0.0566 -0.3420 -0.1654
  166SAPE  H14R18719   1.176   0.493   7.857 -0.7918  0.0489 -0.5862
  166SAPE  C21518720   1.142   0.311   7.949 -0.1786 -0.7822 -0.4877
  166SAPE  H15R18721   1.169   0.350   8.048 -1.5496 -2.9231  0.8333
  166SAPE  C21618722   1.103   0.175   7.968  0.4199  0.1064  0.6036
  166SAPE  H16R18723   1.191   0.119   8.006  0.9959  2.7734  3.6266
  166SAPE  H16S18724   1.070   0.128   7.873  3.5182  0.8685 -1.0080
  166SAPE  C21718725   0.986   0.133   8.059 -0.9673  0.1394 -0.8441
  166SAPE  H17R18726   0.955   0.028   8.037  0.1138 -0.2431 -0.5913
  166SAPE  H17S18727   0.892   0.188   8.035 -0.8612  1.0942  0.7741
  166SAPE  C21818728   1.023   0.143   8.210 -0.3572 -0.0689  0.0644
  166SAPE  H18R18729   1.043   0.250   8.229  1.5487 -0.2225 -0.8421
  166SAPE  H18S18730   1.112   0.081   8.233 -2.9719 -3.6993  1.4061
  166SAPE  C21918731   0.908   0.113   8.306  0.1329  0.1674  0.1232
  166SAPE  H19R18732   0.865   0.017   8.270  0.3044  0.5763 -1.2395
  166SAPE  H19S18733   0.827   0.187   8.283 -0.6494  0.0366  2.2705
  166SAPE  C22018734   0.938   0.118   8.457  0.6346 -0.0221 -0.1542
  166SAPE  H20R18735   0.860   0.085   8.528 -2.5072  0.9002 -2.9182
  166SAPE  H20S18736   0.958   0.227   8.471 -2.0347  0.8200 -2.0420
  166SAPE  H20T18737   1.034   0.064   8.472  0.1355 -1.3717 -1.5513
  166SAPE   C3318738   1.388  -0.092   6.851 -0.1223 -0.0781 -0.3905
  166SAPE   H3X18739   1.399   0.016   6.873  0.2165 -0.2923  0.5456
  166SAPE   H3Y18740   1.485  -0.141   6.876  0.5520  1.2926 -0.2066
  166SAPE   C3418741   1.293  -0.160   6.951  0.3867  0.4187  1.0176
  166SAPE   H4X18742   1.313  -0.267   6.931  0.3592  1.0021 -2.7292
  166SAPE   H4Y18743   1.187  -0.142   6.921 -0.0172 -0.5936  1.7912
  166SAPE   C3518744   1.334  -0.117   7.097 -0.0967 -0.8585 -0.2477
  166SAPE   H5X18745   1.345  -0.007   7.106 -0.9415 -0.8914  1.6902
  166SAPE   H5Y18746   1.434  -0.152   7.129 -0.0630  1.3560  2.4146
  166SAPE   C3618747   1.237  -0.159   7.206 -0.2806 -0.2782 -0.0208
  166SAPE   H6X18748   1.137  -0.117   7.183 -0.3204 -1.9002 -3.4482
  166SAPE   H6Y18749   1.265  -0.108   7.301  0.5300  0.6283 -0.7256
  166SAPE   C3718750   1.237  -0.312   7.234  0.0416 -0.0024 -0.1254
  166SAPE   H7X18751   1.333  -0.338   7.284 -1.0437 -2.2488  0.9660
  166SAPE   H7Y18752   1.215  -0.377   7.146 -0.2264  0.8241 -0.6738
  166SAPE   C3818753   1.127  -0.349   7.347 -0.2313 -0.7572  0.6639
  166SAPE   H8X18754   1.026  -0.326   7.306 -1.3041 -1.4791  2.7549
  166SAPE   H8Y18755   1.143  -0.280   7.432 -0.8991 -0.6235  0.6840
  166SAPE   C3918756   1.128  -0.495   7.399  0.0629  0.0415  0.5234
  166SAPE   H9X18757   1.217  -0.508   7.466  0.6371  0.7614 -0.0877
  166SAPE   H9Y18758   1.125  -0.560   7.309  1.8739  1.3387 -0.5456
  166SAPE  C31018759   0.994  -0.513   7.476 -0.4708 -0.1540  0.2315
  166SAPE  H10X18760   0.961  -0.619   7.467 -0.8490  0.1452 -4.5017
  166SAPE  H10Y18761   0.913  -0.467   7.416 -0.3174 -2.0496 -1.5521
  166SAPE  C31118762   0.992  -0.457   7.618  0.2413  0.4485 -0.5199
  166SAPE  H11X18763   1.023  -0.350   7.615 -1.4002  0.9519 -0.4327
  166SAPE  H11Y18764   1.067  -0.508   7.682 -0.9960 -0.1592  0.4805
  166SAPE  C31218765   0.853  -0.458   7.685 -0.1263  0.2843 -0.1080
  166SAPE  H12X18766   0.827  -0.566   7.674  0.5492  0.1490 -0.4529
  166SAPE  H12Y18767   0.773  -0.399   7.636  1.1982  1.0859 -1.3734
  166SAPE  C31318768   0.872  -0.422   7.838  0.1745  0.0797  0.4833
  166SAPE  H13X18769   0.898  -0.314   7.849  0.5574 -0.0251  0.6413
  166SAPE  H13Y18770   0.952  -0.490   7.874 -0.2308 -0.5713  0.1745
  166SAPE  C31418771   0.755  -0.452   7.928  1.4409 -1.1015  0.6209
  166SAPE  H14X18772   0.768  -0.395   8.023  1.9749  0.2020 -0.1927
  166SAPE  H14Y18773   0.756  -0.561   7.947  0.7485 -1.3785 -0.7798
  166SAPE  C31518774   0.613  -0.412   7.882  0.5249  0.4415 -0.4107
  166SAPE  H15X18775   0.538  -0.453   7.952  0.5762  1.9597  0.5857
  166SAPE  H15Y18776   0.588  -0.458   7.784 -1.2106  0.6595 -0.1005
  166SAPE  C31618777   0.594  -0.268   7.854 -0.1564 -0.1839 -0.1457
  166SAPE  H16X18778   0.662  -0.236   7.772 -1.7368 -0.0451 -1.4288
  166SAPE  H16Y18779   0.610  -0.202   7.943  1.1245 -0.7724  0.0899
  166SAPE  C31718780   0.455  -0.239   7.794  0.3598 -0.1044  0.0120
  166SAPE  H17X18781   0.417  -0.139   7.824 -0.8980 -1.4209  3.3315
  166SAPE  H17Y18782   0.395  -0.317   7.844  0.2791 -0.0161  0.0520
  166SAPE  C31818783   0.435  -0.266   7.646 -0.0446  0.2159  0.0950
  166SAPE  H18X18784   0.473  -0.368   7.622 -1.5014 -0.9432  2.4731
  166SAPE  H18Y18785   0.492  -0.190   7.587 -0.1443  1.0282  1.0274
  166SAPE  H18Z18786   0.329  -0.250   7.619  0.5453  1.4488 -1.6808
  167SAPE     N18787   3.204   5.278   6.444  0.5317  0.4870  0.1912
  167SAPE   HN118788   3.284   5.213   6.461 -1.3855 -2.3896 -0.9147
  167SAPE   HN218789   3.166   5.260   6.349  2.3784 -0.2391 -0.4491
  167SAPE   HN318790   3.241   5.375   6.446 -0.6062  0.9923 -1.2867
  167SAPE   C1218791   3.100   5.270   6.550  1.0338 -0.5622  0.0219
  167SAPE  H12A18792   3.142   5.273   6.653 -0.6924 -0.4182  0.7579
  167SAPE  H12B18793   3.037   5.179   6.540 -1.2766  0.9435  0.1138
  167SAPE   C1118794   3.016   5.399   6.547 -0.2733 -0.1788  0.4281
  167SAPE  H11A18795   3.072   5.484   6.591 -0.5865 -0.1549  0.7921
  167SAPE  H11B18796   2.940   5.388   6.627 -1.0511 -0.4780 -0.3393
  167SAPE     P18797   2.809   5.385   6.401 -0.0348 -0.8008  0.1989
  167SAPE   O1318798   2.766   5.431   6.274 -0.5773 -0.3326  0.4381
  167SAPE   O1418799   2.794   5.239   6.419 -0.5694 -0.4089  0.2978
  167SAPE   O1218800   2.954   5.427   6.423 -0.3522  0.2100  0.3456
  167SAPE   O1118801   2.724   5.471   6.510  0.0043  0.0626  0.7252
  167SAPE    C118802   2.764   5.603   6.547 -0.1662 -0.0039  0.1252
  167SAPE    HA18803   2.872   5.605   6.576 -0.4279  2.5582  1.1931
  167SAPE    HB18804   2.741   5.674   6.465 -1.8285  0.0162  0.5779
  167SAPE    C218805   2.698   5.654   6.679 -0.2283 -0.6505  0.8010
  167SAPE    HS18806   2.748   5.749   6.707 -2.0980  0.0136  2.1068
  167SAPE   O2118807   2.701   5.562   6.788 -0.1786  0.0943  0.4778
  167SAPE   C2118808   2.817   5.526   6.831 -0.8627 -0.4177  0.1239
  167SAPE   O2218809   2.926   5.572   6.803  0.1922  0.5587  0.0770
  167SAPE   C2218810   2.803   5.444   6.957  0.7766  0.4576  0.2410
  167SAPE   H2R18811   2.876   5.491   7.026 -0.8937  1.7007  1.2491
  167SAPE   H2S18812   2.704   5.469   7.002  0.4725 -0.6365  0.1961
  167SAPE    C318813   2.551   5.692   6.661  0.3052 -0.5746  0.8823
  167SAPE    HX18814   2.488   5.601   6.650  1.5609 -1.4587  0.8698
  167SAPE    HY18815   2.538   5.749   6.566 -3.3447 -0.3224  1.3765
  167SAPE   O3118816   2.512   5.768   6.777  0.5220 -0.2080 -0.5340
  167SAPE   C3118817   2.388   5.811   6.761 -0.5568 -0.2875 -0.1614
  167SAPE   O3218818   2.324   5.786   6.661 -0.2341 -0.1410  0.1994
  167SAPE   C3218819   2.341   5.887   6.884 -0.0538  0.3772 -0.3005
  167SAPE   H2X18820   2.246   5.941   6.863 -0.3605 -0.7937 -2.1373
  167SAPE   H2Y18821   2.418   5.965   6.903  0.6633 -0.4540  0.2698
  167SAPE   C2318822   2.817   5.292   6.932 -0.5272 -0.2871  0.5890
  167SAPE   H3R18823   2.922   5.275   6.901  0.3741  0.3515  3.0975
  167SAPE   H3S18824   2.742   5.263   6.854  0.0930 -2.8884  0.8716
  167SAPE   C2418825   2.787   5.214   7.052  0.0098  0.2602 -0.1454
  167SAPE   H4R18826   2.752   5.112   7.023 -1.6367  1.4087 -2.4876
  167SAPE   H4S18827   2.703   5.259   7.109  0.3052  0.4719  0.1234
  167SAPE   C2518828   2.907   5.216   7.144 -0.4942 -0.6446  0.2926
  167SAPE   H5R18829   3.001   5.191   7.092  0.9483  0.1976  2.3497
  167SAPE   C2618830   2.909   5.247   7.280 -0.2254  0.4155  0.3189
  167SAPE   H6R18831   3.002   5.243   7.338  0.0171 -1.1967 -0.1240
  167SAPE   C2718832   2.793   5.290   7.366 -0.0522  0.5789 -0.5273
  167SAPE   H7R18833   2.740   5.202   7.409 -0.6497  0.5577 -1.2761
  167SAPE   H7S18834   2.713   5.334   7.303 -3.4300 -3.4096  0.5191
  167SAPE   C2818835   2.825   5.391   7.471  0.1338 -0.2692  0.3419
  167SAPE   H8R18836   2.878   5.479   7.432  0.3087 -0.7942 -0.6174
  167SAPE   C2918837   2.815   5.381   7.603 -0.1387  0.1937 -0.5974
  167SAPE   H9R18838   2.853   5.470   7.654  3.9357 -0.5217 -2.0162
  167SAPE  C21018839   2.763   5.267   7.685 -0.1291 -0.4097  0.6667
  167SAPE  H10R18840   2.736   5.180   7.620 -2.4539 -1.0487  2.3596
  167SAPE  H10S18841   2.670   5.316   7.720  0.4651  0.6778  0.7365
  167SAPE  C21118842   2.859   5.212   7.791  0.0843 -0.5543 -0.5434
  167SAPE  H11R18843   2.942   5.152   7.751  2.0423  1.1858  0.6669
  167SAPE  C21218844   2.841   5.223   7.927 -0.1747  0.0694  0.6891
  167SAPE  H12R18845   2.921   5.178   7.988  1.4368 -1.6916 -2.4451
  167SAPE  C21318846   2.721   5.287   7.987 -0.4862  0.4452 -0.4416
  167SAPE  H13R18847   2.635   5.216   7.983 -1.7727  1.6866  2.2512
  167SAPE  H13S18848   2.682   5.368   7.923 -1.8259  0.5358  0.4373
  167SAPE  C21418849   2.753   5.339   8.128 -0.2804 -0.9344 -0.5807
  167SAPE  H14R18850   2.764   5.448   8.135 -0.1842 -0.8258 -2.0943
  167SAPE  C21518851   2.771   5.258   8.238  0.0869  0.0309  0.1428
  167SAPE  H15R18852   2.783   5.308   8.336  3.8386 -1.5003  0.6577
  167SAPE  C21618853   2.778   5.109   8.239  0.9615 -0.1631 -0.0467
  167SAPE  H16R18854   2.779   5.067   8.136 -1.3917 -0.5269  0.0289
  167SAPE  H16S18855   2.685   5.073   8.288  1.9642  0.0086  2.1202
  167SAPE  C21718856   2.894   5.041   8.315  0.7332 -0.7512  1.0247
  167SAPE  H17R18857   2.984   5.093   8.275 -0.9590  0.8382 -0.9789
  167SAPE  H17S18858   2.902   4.933   8.293  0.2016 -0.8898  1.5013
  167SAPE  C21818859   2.876   5.065   8.465 -0.5565 -0.3647 -0.6041
  167SAPE  H18R18860   2.786   5.008   8.498 -1.5087  0.2279 -2.0640
  167SAPE  H18S18861   2.847   5.170   8.484  0.7754 -0.3315  1.6362
  167SAPE  C21918862   2.998   5.015   8.548  0.4065 -0.1474 -0.5461
  167SAPE  H19R18863   2.997   5.062   8.648 -1.7320 -2.5573  0.6786
  167SAPE  H19S18864   3.088   5.055   8.496  0.3746  0.9709  0.2294
  167SAPE  C22018865   2.999   4.864   8.572  0.0861 -0.0544  0.0895
  167SAPE  H20R18866   2.949   4.806   8.491  0.2104 -0.0868  0.0360
  167SAPE  H20S18867   2.948   4.835   8.666  1.6989 -0.7478  0.7930
  167SAPE  H20T18868   3.103   4.830   8.592 -0.0911 -0.6752 -0.0138
  167SAPE   C3318869   2.328   5.804   7.019 -0.2598  0.1240 -0.6290
  167SAPE   H3X18870   2.422   5.775   7.070 -1.2714 -3.5865 -0.5667
  167SAPE   H3Y18871   2.275   5.708   7.005 -0.8782  0.4657 -0.6407
  167SAPE   C3418872   2.237   5.870   7.130  0.3285  0.0015 -0.0053
  167SAPE   H4X18873   2.137   5.876   7.083  1.7646  0.7370 -3.2350
  167SAPE   H4Y18874   2.266   5.977   7.141 -0.2816  0.2678 -0.9174
  167SAPE   C3518875   2.235   5.796   7.262  0.0030 -0.0780 -0.3838
  167SAPE   H5X18876   2.339   5.772   7.293  1.1504 -0.7267 -4.1574
  167SAPE   H5Y18877   2.200   5.692   7.246  1.8300 -0.7377 -0.3447
  167SAPE   C3618878   2.148   5.880   7.365 -0.3814  0.4940 -0.0203
  167SAPE   H6X18879   2.049   5.895   7.317 -1.3415 -2.7043  0.7607
  167SAPE   H6Y18880   2.202   5.977   7.372 -1.4279  1.1342 -0.6249
  167SAPE   C3718881   2.139   5.805   7.500 -0.2759  1.0989 -0.0374
  167SAPE   H7X18882   2.245   5.782   7.525 -0.1392  2.7457  1.0197
  167SAPE   H7Y18883   2.100   5.707   7.464  2.2128 -0.0652  0.1650
  167SAPE   C3818884   2.055   5.858   7.618 -0.0334 -0.2751 -1.2285
  167SAPE   H8X18885   2.056   5.791   7.707 -1.0725 -0.7388 -1.5428
  167SAPE   H8Y18886   1.946   5.862   7.596  0.0576 -1.0894 -1.9154
  167SAPE   C3918887   2.093   6.002   7.663 -0.0479  0.4441  0.6239
  167SAPE   H9X18888   2.086   6.058   7.567  0.9438  0.4478  0.5408
  167SAPE   H9Y18889   2.201   6.006   7.689 -0.0966 -2.1026  1.4677
  167SAPE  C31018890   2.012   6.048   7.785 -0.3633  0.4992 -0.2810
  167SAPE  H10X18891   1.903   6.047   7.764  0.1177  0.9867 -3.1642
  167SAPE  H10Y18892   2.041   6.156   7.791 -0.4318  0.7002 -2.7201
  167SAPE  C31118893   2.054   5.986   7.918  0.4484 -0.1788 -0.6416
  167SAPE  H11X18894   2.164   5.998   7.931  0.6373  0.3897 -2.4297
  167SAPE  H11Y18895   2.043   5.876   7.927  0.4609 -0.1057  0.3725
  167SAPE  C31218896   1.988   6.041   8.050 -0.1833  0.0476 -0.7383
  167SAPE  H12X18897   1.985   5.960   8.126  1.2213 -0.6912 -1.4302
  167SAPE  H12Y18898   1.882   6.058   8.020 -0.9423 -3.3153 -0.3901
  167SAPE  C31318899   2.047   6.163   8.113  0.1219 -0.2450  0.3130
  167SAPE  H13X18900   2.055   6.250   8.044  1.6923 -1.1316 -0.6800
  167SAPE  H13Y18901   2.156   6.142   8.123 -0.2862 -3.1804 -0.3374
  167SAPE  C31418902   1.995   6.197   8.251  0.3961 -0.6670  0.6762
  167SAPE  H14X18903   2.018   6.105   8.309 -0.2586 -2.1405 -1.2936
  167SAPE  H14Y18904   1.887   6.221   8.261  0.8870  1.3989  1.4875
  167SAPE  C31518905   2.069   6.317   8.302 -0.2296 -0.8269 -0.3387
  167SAPE  H15X18906   2.057   6.400   8.229  0.9481 -1.3740 -1.1878
  167SAPE  H15Y18907   2.175   6.294   8.278  0.2982  0.7773  0.2773
  167SAPE  C31618908   2.057   6.349   8.451 -0.1958 -0.0114  0.2692
  167SAPE  H16X18909   2.110   6.445   8.464 -0.0302  0.0276 -0.6437
  167SAPE  H16Y18910   2.100   6.274   8.520 -0.4390  0.0371  0.4772
  167SAPE  C31718911   1.918   6.377   8.508  0.7753  0.2902 -0.7174
  167SAPE  H17X18912   1.867   6.278   8.512 -0.4647  0.9480  0.5815
  167SAPE  H17Y18913   1.862   6.441   8.437  1.0419  1.3784  0.0280
  167SAPE  C31818914   1.907   6.427   8.650 -0.2431 -0.0473 -0.6446
  167SAPE  H18X18915   1.952   6.528   8.662 -0.9202  0.0427  1.6628
  167SAPE  H18Y18916   1.963   6.355   8.713  0.8375  0.3407 -1.1293
  167SAPE  H18Z18917   1.803   6.414   8.687  0.3805 -0.5374  1.0146
  168SAPE     N18918   3.981   0.646   6.521  0.3544  0.0655  0.7486
  168SAPE   HN118919   3.933   0.737   6.539 -3.3723 -1.5353 -0.3007
  168SAPE   HN218920   4.026   0.620   6.611 -0.0623 -0.8958  0.6872
  168SAPE   HN318921   4.051   0.663   6.446 -1.6160  1.0509 -0.9910
  168SAPE   C1218922   3.886   0.535   6.484  0.0875  0.3437  0.1080
  168SAPE  H12A18923   3.833   0.509   6.578  0.0081 -0.5610 -0.1737
  168SAPE  H12B18924   3.947   0.450   6.447 -1.2904 -1.1663  1.1634
  168SAPE   C1118925   3.775   0.566   6.387 -0.3147  0.5019 -0.4828
  168SAPE  H11A18926   3.715   0.473   6.377  0.0271  0.1597  0.4976
  168SAPE  H11B18927   3.820   0.614   6.298  0.9132  2.2587  0.9999
  168SAPE     P18928   3.549   0.658   6.500 -0.1880  0.0329  0.0491
  168SAPE   O1318929   3.531   0.785   6.569  0.1319 -1.6571 -0.0074
  168SAPE   O1418930   3.446   0.615   6.401 -0.2725 -0.4834 -0.2226
  168SAPE   O1218931   3.692   0.665   6.430  0.0153 -0.4153 -0.4881
  168SAPE   O1118932   3.572   0.543   6.609  0.0203  0.1692  0.3493
  168SAPE    C118933   3.460   0.466   6.654  0.5852 -0.2423 -0.7149
  168SAPE    HA18934   3.401   0.417   6.574  0.7751  1.2969 -1.8397
  168SAPE    HB18935   3.498   0.393   6.729 -0.8879  1.7464  2.1622
  168SAPE    C218936   3.356   0.546   6.736 -0.1657  0.1541  0.9517
  168SAPE    HS18937   3.310   0.629   6.677 -1.1751 -0.1008  1.3603
  168SAPE   O2118938   3.423   0.592   6.851 -0.1170  0.3917  0.0828
  168SAPE   C2118939   3.370   0.696   6.908  0.1487 -0.3465 -1.2796
  168SAPE   O2218940   3.282   0.767   6.862 -0.1019 -0.3655 -0.2557
  168SAPE   C2218941   3.416   0.704   7.056  0.2749  0.0457 -0.0729
  168SAPE   H2R18942   3.368   0.619   7.109 -1.2434  0.7989 -0.1876
  168SAPE   H2S18943   3.526   0.690   7.049  0.1886 -0.2544 -0.9332
  168SAPE    C318944   3.254   0.443   6.779 -0.8293  0.0830  0.8182
  168SAPE    HX18945   3.298   0.346   6.808 -2.7916 -0.6447  1.5526
  168SAPE    HY18946   3.200   0.409   6.689  0.6652  0.6725 -0.3458
  168SAPE   O3118947   3.168   0.488   6.893  0.0120  0.4615 -0.7239
  168SAPE   C3118948   3.035   0.488   6.866  0.2985  1.3988  0.3620
  168SAPE   O3218949   2.984   0.447   6.762  0.0414  0.3684  0.2472
  168SAPE   C3218950   2.946   0.564   6.977 -0.7187 -0.0493 -0.2604
  168SAPE   H2X18951   2.862   0.495   7.001 -0.8268 -0.1729 -0.9699
  168SAPE   H2Y18952   2.903   0.650   6.923  1.1695  0.1078 -1.6396
  168SAPE   C2318953   3.382   0.819   7.148 -0.0188 -0.0390 -0.4638
  168SAPE   H3R18954   3.275   0.812   7.178 -0.6167  1.3425 -2.1243
  168SAPE   H3S18955   3.395   0.919   7.101  0.5406 -0.0800 -0.4018
  168SAPE   C2418956   3.457   0.823   7.282  0.4073 -0.2732  0.2566
  168SAPE   H4R18957   3.472   0.720   7.322  0.3008 -0.1949  0.4982
  168SAPE   H4S18958   3.404   0.884   7.358 -1.5159 -1.0911 -0.3839
  168SAPE   C2518959   3.594   0.872   7.237  0.2841  0.2015 -0.3831
  168SAPE   H5R18960   3.617   0.882   7.130 -0.8272  0.3158 -0.6266
  168SAPE   C2618961   3.682   0.928   7.315 -0.3700 -0.3386 -0.4695
  168SAPE   H6R18962   3.778   0.962   7.273  1.4481  1.4328  4.3969
  168SAPE   C2718963   3.679   0.954   7.466 -0.0075  0.5724  0.3847
  168SAPE   H7R18964   3.727   0.863   7.507 -0.6726  0.3045  0.5887
  168SAPE   H7S18965   3.575   0.956   7.506 -0.3599 -1.6264 -0.2910
  168SAPE   C2818966   3.758   1.077   7.520  0.4101  0.0737  0.4486
  168SAPE   H8R18967   3.864   1.075   7.491 -0.0152  3.1726 -1.8320
  168SAPE   C2918968   3.709   1.196   7.564  0.0950 -0.0317  0.0613
  168SAPE   H9R18969   3.787   1.266   7.597  1.2225 -0.4676 -1.5640
  168SAPE  C21018970   3.572   1.245   7.589  0.5396  0.3083 -0.4246
  168SAPE  H10R18971   3.518   1.246   7.492 -0.1306  0.9608 -0.0544
  168SAPE  H10S18972   3.580   1.353   7.613 -0.8585  0.7754 -1.8910
  168SAPE  C21118973   3.487   1.176   7.693 -0.5342 -0.0825 -0.5283
  168SAPE  H11R18974   3.421   1.095   7.659  0.5911 -1.0248 -0.5099
  168SAPE  C21218975   3.495   1.200   7.826 -0.0134 -0.4303  0.8126
  168SAPE  H12R18976   3.420   1.143   7.882 -0.1174 -0.6527  0.4517
  168SAPE  C21318977   3.579   1.299   7.903 -0.7581 -0.4111  0.9593
  168SAPE  H13R18978   3.531   1.399   7.914  2.1523  1.1470  0.6840
  168SAPE  H13S18979   3.661   1.324   7.833 -0.9511 -1.2003  0.4437
  168SAPE  C21418980   3.624   1.237   8.033  0.2514 -0.0022  0.2702
  168SAPE  H14R18981   3.686   1.147   8.032  0.4136  0.0878  1.1604
  168SAPE  C21518982   3.599   1.301   8.153  0.4501 -0.5012  0.3590
  168SAPE  H15R18983   3.631   1.256   8.248 -0.5920 -3.8157 -0.7182
  168SAPE  C21618984   3.522   1.435   8.176  0.5244  0.2675 -0.0819
  168SAPE  H16R18985   3.491   1.484   8.081  1.3276  0.4477 -0.2632
  168SAPE  H16S18986   3.595   1.505   8.223  0.4191  0.2316  0.1377
  168SAPE  C21718987   3.393   1.410   8.260 -0.5082  0.5745  0.3905
  168SAPE  H17R18988   3.421   1.370   8.360 -0.8994  1.1364  0.7315
  168SAPE  H17S18989   3.332   1.335   8.207 -0.9774  0.9041  0.4605
  168SAPE  C21818990   3.315   1.535   8.291 -0.3146  0.0927  0.4079
  168SAPE  H18R18991   3.238   1.547   8.212  1.0646 -0.3343 -1.0571
  168SAPE  H18S18992   3.387   1.619   8.287  0.9608 -0.8227  2.5641
  168SAPE  C21918993   3.264   1.541   8.432  0.3044 -0.7892 -0.9836
  168SAPE  H19R18994   3.347   1.535   8.505  0.8473  0.3894 -1.4733
  168SAPE  H19S18995   3.192   1.458   8.450 -0.3199  0.2501  1.6452
  168SAPE  C22018996   3.189   1.676   8.468  0.3345 -0.1697  0.3574
  168SAPE  H20R18997   3.125   1.671   8.558  0.1473  1.2339  0.3235
  168SAPE  H20S18998   3.139   1.709   8.375  0.4917 -2.2531 -0.5223
  168SAPE  H20T18999   3.271   1.747   8.493 -0.3069  1.0384 -0.8237
  168SAPE   C3319000   3.033   0.614   7.091  0.6403 -0.5729  1.1214
  168SAPE   H3X19001   3.088   0.708   7.066  2.4028 -1.2379  2.3315
  168SAPE   H3Y19002   3.116   0.544   7.116  1.1908 -0.1661  0.4807
  168SAPE   C3419003   2.944   0.638   7.214 -0.0055  0.3496 -0.5016
  168SAPE   H4X19004   2.907   0.537   7.244  0.5289 -0.0721 -1.2154
  168SAPE   H4Y19005   2.858   0.700   7.182 -0.6262 -0.8977 -1.3574
  168SAPE   C3519006   3.010   0.703   7.335  0.0612 -0.4774  0.0955
  168SAPE   H5X19007   2.934   0.723   7.414 -0.5062  0.1434 -0.5884
  168SAPE   H5Y19008   3.055   0.802   7.312  2.1115 -0.9518  1.6930
  168SAPE   C3619009   3.121   0.620   7.394 -0.1419  0.0426  0.3002
  168SAPE   H6X19010   3.210   0.624   7.327  0.8767  0.3029  1.6364
  168SAPE   H6Y19011   3.083   0.516   7.383  1.3582 -0.2788 -3.3463
  168SAPE   C3719012   3.139   0.634   7.543  0.0643 -0.3299  0.5639
  168SAPE   H7X19013   3.192   0.545   7.583 -0.0937 -0.9052 -0.4568
  168SAPE   H7Y19014   3.043   0.646   7.599 -0.0204 -3.4235  1.2299
  168SAPE   C3819015   3.224   0.758   7.574 -0.5011 -0.0008 -0.1285
  168SAPE   H8X19016   3.202   0.845   7.508  2.5694  0.2445 -0.9702
  168SAPE   H8Y19017   3.330   0.742   7.548  0.5816  1.2065  3.0633
  168SAPE   C3919018   3.222   0.799   7.724 -0.2166  0.9333 -0.1855
  168SAPE   H9X19019   3.118   0.790   7.762 -1.3867  2.4131 -2.8176
  168SAPE   H9Y19020   3.258   0.904   7.723  0.9807  0.6102  1.8815
  168SAPE  C31019021   3.312   0.715   7.814 -0.5119  0.2001 -0.0609
  168SAPE  H10X19022   3.415   0.730   7.777 -0.6366  1.4673  0.0449
  168SAPE  H10Y19023   3.282   0.609   7.806 -2.2049  0.5491  1.0259
  168SAPE  C31119024   3.331   0.756   7.965  0.0532 -0.1255 -0.1662
  168SAPE  H11X19025   3.372   0.667   8.019  1.4682 -0.4131 -1.6122
  168SAPE  H11Y19026   3.233   0.777   8.011 -0.0260  0.2256 -0.4911
  168SAPE  C31219027   3.427   0.872   7.968  0.5198 -0.1347  0.4981
  168SAPE  H12X19028   3.377   0.956   7.915 -0.7189 -0.7513  0.6676
  168SAPE  H12Y19029   3.523   0.848   7.917  0.2838  0.1547 -0.0939
  168SAPE  C31319030   3.472   0.907   8.106 -0.2262 -0.3983  0.4388
  168SAPE  H13X19031   3.553   0.983   8.096 -1.7853  1.5754  1.8283
  168SAPE  H13Y19032   3.517   0.823   8.163 -0.4689 -0.7075  0.1757
  168SAPE  C31419033   3.358   0.972   8.192 -0.2053 -0.6493 -0.3835
  168SAPE  H14X19034   3.279   0.898   8.217  1.1455 -1.3891  1.9193
  168SAPE  H14Y19035   3.319   1.059   8.135 -1.1622 -1.0359 -0.3290
  168SAPE  C31519036   3.423   1.037   8.319 -0.3863  0.3515  0.4392
  168SAPE  H15X19037   3.499   1.117   8.302 -0.3851  0.4844  1.0667
  168SAPE  H15Y19038   3.476   0.953   8.369  1.7566 -1.1066 -3.7592
  168SAPE  C31619039   3.310   1.085   8.406  0.5852  0.3043  0.7155
  168SAPE  H16X19040   3.235   1.006   8.386  0.3648  0.9614 -1.3042
  168SAPE  H16Y19041   3.261   1.177   8.366 -0.8340  0.4311  2.6026
  168SAPE  C31719042   3.333   1.073   8.553  0.6012  0.0452 -0.2026
  168SAPE  H17X19043   3.404   0.989   8.571  0.8146  0.2143 -0.2617
  168SAPE  H17Y19044   3.237   1.030   8.591 -1.4617  2.2462 -2.5510
  168SAPE  C31819045   3.359   1.201   8.630  0.6120 -0.5572 -0.3820
  168SAPE  H18X19046   3.458   1.247   8.606 -0.4875  2.0445 -0.2897
  168SAPE  H18Y19047   3.367   1.172   8.737  2.3725 -0.9790 -0.5922
  168SAPE  H18Z19048   3.287   1.284   8.616 -0.3606 -1.5537 -1.4438
  169SAPE     N19049   3.770   3.922   6.191 -0.6014  0.0654 -0.2496
  169SAPE   HN119050   3.832   3.843   6.216 -1.7451 -0.6628  0.3608
  169SAPE   HN219051   3.786   3.921   6.088  1.1656 -2.9847 -0.0490
  169SAPE   HN319052   3.817   4.006   6.231  0.8477 -0.8237 -0.0560
  169SAPE   C1219053   3.627   3.909   6.235  0.7030  0.9700 -0.8401
  169SAPE  H12A19054   3.564   3.998   6.213 -1.9172 -0.7981 -0.9957
  169SAPE  H12B19055   3.621   3.895   6.345  0.8621  0.4830 -0.8898
  169SAPE   C1119056   3.568   3.782   6.170  0.7079 -0.1003 -0.2522
  169SAPE  H11A19057   3.561   3.806   6.062  1.8142  1.3844 -0.0388
  169SAPE  H11B19058   3.468   3.778   6.217  0.8877  0.8348  0.2525
  169SAPE     P19059   3.587   3.527   6.179 -0.7363  0.1656  0.1318
  169SAPE   O1319060   3.457   3.533   6.111 -0.4769 -0.7904  0.0012
  169SAPE   O1419061   3.696   3.439   6.119 -0.0187  0.2059 -0.6400
  169SAPE   O1219062   3.656   3.662   6.194  0.5170 -0.2549 -0.2525
  169SAPE   O1119063   3.551   3.485   6.326 -0.9084 -0.1017  0.5537
  169SAPE    C119064   3.645   3.482   6.437 -0.2984  0.2489  0.0593
  169SAPE    HA19065   3.741   3.523   6.401  0.3286 -1.9928 -0.9683
  169SAPE    HB19066   3.608   3.549   6.518 -3.4641 -1.9029  0.5746
  169SAPE    C219067   3.659   3.343   6.491  0.2797 -0.2328  0.4102
  169SAPE    HS19068   3.672   3.273   6.405 -0.2261 -1.5265  1.3466
  169SAPE   O2119069   3.535   3.309   6.570 -0.2516 -0.8280 -0.1857
  169SAPE   C2119070   3.502   3.182   6.571  0.2312  0.4988  1.5155
  169SAPE   O2219071   3.563   3.093   6.516 -0.5915  0.4904  0.0620
  169SAPE   C2219072   3.378   3.153   6.644  0.0183 -0.0793 -0.0522
  169SAPE   H2R19073   3.301   3.161   6.564 -0.1673 -3.2013 -0.3095
  169SAPE   H2S19074   3.400   3.047   6.668  1.7497  0.1334 -0.5674
  169SAPE    C319075   3.784   3.324   6.580 -0.6493 -0.0145  0.3866
  169SAPE    HX19076   3.876   3.345   6.522 -0.4630  5.0458  2.0836
  169SAPE    HY19077   3.790   3.217   6.609 -2.4076 -0.0213  0.8744
  169SAPE   O3119078   3.786   3.395   6.704  0.0793  0.5388 -0.0210
  169SAPE   C3119079   3.867   3.498   6.704 -0.0325 -0.1975 -0.1955
  169SAPE   O3219080   3.932   3.538   6.609 -0.6102 -0.5056  0.3622
  169SAPE   C3219081   3.865   3.567   6.835 -0.2802  0.3283  0.3284
  169SAPE   H2X19082   3.902   3.491   6.908  1.0278  1.0353  0.4316
  169SAPE   H2Y19083   3.758   3.581   6.865 -0.4038 -0.2463  0.1672
  169SAPE   C2319084   3.353   3.239   6.767  0.0955  0.2329 -0.3118
  169SAPE   H3R19085   3.320   3.344   6.749 -1.9858 -0.3351 -0.0560
  169SAPE   H3S19086   3.446   3.254   6.826 -0.0677 -1.0246  0.2856
  169SAPE   C2419087   3.262   3.167   6.862  0.3178 -0.7139  0.0479
  169SAPE   H4R19088   3.268   3.212   6.964  1.4839 -0.1534 -0.2463
  169SAPE   H4S19089   3.308   3.066   6.876 -0.0044 -0.7610  0.8412
  169SAPE   C2519090   3.116   3.162   6.817  0.2522  0.3967 -0.2512
  169SAPE   H5R19091   3.122   3.151   6.707  0.5222 -0.4909 -0.1558
  169SAPE   C2619092   2.997   3.163   6.884 -0.9663 -0.4658  0.0872
  169SAPE   H6R19093   2.904   3.137   6.831 -0.3391  0.5565 -1.6025
  169SAPE   C2719094   2.987   3.165   7.036 -0.0999 -0.4892  1.0545
  169SAPE   H7R19095   2.881   3.188   7.057  0.2828  0.8846  1.5868
  169SAPE   H7S19096   3.049   3.242   7.086 -2.0997  1.6600  0.3821
  169SAPE   C2819097   3.019   3.027   7.089 -0.4125 -0.3748  0.2364
  169SAPE   H8R19098   3.081   2.961   7.025 -3.0623 -0.6600 -2.2392
  169SAPE   C2919099   2.957   2.969   7.196  0.1859 -0.5526  0.0293
  169SAPE   H9R19100   2.977   2.864   7.222 -1.5776 -1.3117 -1.3994
  169SAPE  C21019101   2.851   3.041   7.287  0.2044 -0.4691 -0.1137
  169SAPE  H10R19102   2.805   3.118   7.222 -0.0308 -1.6487 -1.3944
  169SAPE  H10S19103   2.906   3.092   7.369  0.0214  1.6692 -1.2706
  169SAPE  C21119104   2.739   2.947   7.335 -0.3895  0.1518  0.5071
  169SAPE  H11R19105   2.688   2.897   7.250  0.3933 -0.7206  0.5407
  169SAPE  C21219106   2.691   2.928   7.458 -0.4583 -0.0104  0.6816
  169SAPE  H12R19107   2.605   2.861   7.473 -1.5296  0.8428 -1.2942
  169SAPE  C21319108   2.754   2.991   7.584  0.7130  0.1861 -0.0422
  169SAPE  H13R19109   2.712   3.094   7.589  4.3842  1.8867 -0.3047
  169SAPE  H13S19110   2.863   3.000   7.564  0.7805  0.7098  0.5156
  169SAPE  C21419111   2.728   2.906   7.710 -0.2932  0.2391 -0.0197
  169SAPE  H14R19112   2.678   2.809   7.701 -0.4111  0.2728  0.2551
  169SAPE  C21519113   2.770   2.933   7.837  1.0461 -0.7969 -0.5640
  169SAPE  H15R19114   2.739   2.866   7.919  1.0196 -1.5988 -1.2111
  169SAPE  C21619115   2.832   3.067   7.876 -0.3465  0.4354  0.2191
  169SAPE  H16R19116   2.751   3.124   7.928 -0.3620 -0.7880  1.5839
  169SAPE  H16S19117   2.870   3.117   7.785  2.4011 -0.0710  1.0045
  169SAPE  C21719118   2.939   3.042   7.987 -0.5465  0.6027  0.5113
  169SAPE  H17R19119   3.005   3.131   7.985  1.4895 -0.8471 -0.2745
  169SAPE  H17S19120   3.009   2.960   7.961  2.0345  2.8247 -0.0274
  169SAPE  C21819121   2.899   3.026   8.132  0.3029  0.1955  0.1950
  169SAPE  H18R19122   2.819   2.950   8.147  0.3092  0.1538  0.0242
  169SAPE  H18S19123   2.883   3.132   8.160  1.5564  0.5329 -0.3118
  169SAPE  C21919124   3.010   2.964   8.213 -0.5332  0.3700 -1.2441
  169SAPE  H19R19125   3.111   2.998   8.181  2.5285 -2.0378  4.4444
  169SAPE  H19S19126   3.004   2.853   8.210  2.1593  0.1445 -0.6440
  169SAPE  C22019127   3.003   2.993   8.366  0.1854 -0.4053  0.4993
  169SAPE  H20R19128   2.899   2.965   8.393  0.1209 -0.1602  0.5135
  169SAPE  H20S19129   3.009   3.103   8.385  1.2203 -0.2739 -0.4696
  169SAPE  H20T19130   3.076   2.949   8.437 -0.9069  1.0696  2.6550
  169SAPE   C3319131   3.944   3.704   6.846 -0.0529 -0.6257  0.3831
  169SAPE   H3X19132   3.900   3.785   6.783 -0.5710 -1.2279 -0.0489
  169SAPE   H3Y19133   4.052   3.688   6.828 -0.6809 -2.8340 -1.9193
  169SAPE   C3419134   3.918   3.764   6.989  0.7461  0.3839 -0.0221
  169SAPE   H4X19135   4.013   3.820   7.004 -0.2833  3.4299 -3.3134
  169SAPE   H4Y19136   3.907   3.697   7.076  0.2088  0.6084  0.0880
  169SAPE   C3519137   3.796   3.866   6.977 -0.3760  0.1080 -0.6479
  169SAPE   H5X19138   3.706   3.807   6.949 -0.7107 -0.0778  0.7204
  169SAPE   H5Y19139   3.825   3.945   6.905  3.4687 -1.1769 -0.7262
  169SAPE   C3619140   3.757   3.943   7.107 -0.6169  0.2845  0.1225
  169SAPE   H6X19141   3.829   4.027   7.118  0.0536 -0.3238  0.3781
  169SAPE   H6Y19142   3.762   3.869   7.189  1.9484 -1.0118 -1.1140
  169SAPE   C3719143   3.620   3.998   7.089  0.2679 -0.2230  0.5496
  169SAPE   H7X19144   3.541   3.923   7.070 -2.6853  2.9567 -0.7217
  169SAPE   H7Y19145   3.620   4.070   7.005 -1.7062 -0.8016  0.0166
  169SAPE   C3819146   3.566   4.078   7.218 -0.0899 -0.3213  0.4551
  169SAPE   H8X19147   3.474   4.135   7.190  1.0026  1.4393  0.3192
  169SAPE   H8Y19148   3.648   4.148   7.244  0.2958 -1.5695  2.7841
  169SAPE   C3919149   3.545   3.991   7.345 -0.2439  0.0494 -0.5250
  169SAPE   H9X19150   3.649   3.963   7.374  0.0116  2.2775  0.9927
  169SAPE   H9Y19151   3.469   3.914   7.325  2.0641 -1.7977 -3.0274
  169SAPE  C31019152   3.514   4.075   7.470 -0.1335  0.0484  0.3972
  169SAPE  H10X19153   3.414   4.116   7.444  0.9066  1.4058 -1.7893
  169SAPE  H10Y19154   3.586   4.156   7.495 -0.0535  0.5908 -1.4351
  169SAPE  C31119155   3.501   3.982   7.597  0.8743  0.1203 -0.0510
  169SAPE  H11X19156   3.600   3.947   7.632  0.7536  0.7680  1.0128
  169SAPE  H11Y19157   3.436   3.895   7.575  1.5954 -1.2859  2.8685
  169SAPE  C31219158   3.440   4.051   7.720 -0.1069 -0.2255 -0.4569
  169SAPE  H12X19159   3.341   4.094   7.694 -0.2975 -0.1129  0.4271
  169SAPE  H12Y19160   3.506   4.133   7.755 -1.3539  1.1307 -1.1366
  169SAPE  C31319161   3.411   3.957   7.839 -0.5524  0.4936 -0.3811
  169SAPE  H13X19162   3.508   3.917   7.878 -0.8807  0.4721  0.4401
  169SAPE  H13Y19163   3.347   3.874   7.803 -0.7130 -0.6002  2.1618
  169SAPE  C31419164   3.347   4.027   7.958 -0.2475  0.3603  0.3347
  169SAPE  H14X19165   3.244   4.053   7.924 -0.8778 -1.6975  0.5346
  169SAPE  H14Y19166   3.403   4.116   7.991 -1.2068  1.3733 -0.6829
  169SAPE  C31519167   3.315   3.940   8.078  0.0434  0.3728 -0.1165
  169SAPE  H15X19168   3.415   3.903   8.109  0.4812  1.1510 -0.5571
  169SAPE  H15Y19169   3.248   3.861   8.039 -2.4716  2.3571 -0.0711
  169SAPE  C31619170   3.237   4.019   8.176  0.6936 -0.6091 -0.4261
  169SAPE  H16X19171   3.138   4.052   8.137 -0.4865 -2.1534  1.0856
  169SAPE  H16Y19172   3.294   4.102   8.223 -0.2875 -0.3728  0.4056
  169SAPE  C31719173   3.196   3.933   8.301 -1.0775  0.1030  0.1483
  169SAPE  H17X19174   3.284   3.914   8.366 -0.2132  0.8368 -0.7838
  169SAPE  H17Y19175   3.165   3.831   8.271 -1.4544  0.1098  0.4964
  169SAPE  C31819176   3.089   3.987   8.391 -0.0852  0.6393  0.4600
  169SAPE  H18X19177   3.109   4.087   8.433 -0.3812  1.8830 -2.1604
  169SAPE  H18Y19178   3.065   3.922   8.478 -3.9780  0.4313 -0.5946
  169SAPE  H18Z19179   3.001   4.004   8.326  0.6607  2.6240 -0.1060
  170SAPE     N19180   2.828   0.899   6.672  0.6815 -0.1226  0.7512
  170SAPE   HN119181   2.814   0.796   6.671  0.0233 -0.0621 -0.8706
  170SAPE   HN219182   2.816   0.939   6.576  1.4172  0.1704  0.7745
  170SAPE   HN319183   2.931   0.901   6.686  0.7102  1.0697  0.4283
  170SAPE   C1219184   2.749   0.971   6.776 -0.0457  0.1524 -0.1713
  170SAPE  H12A19185   2.789   1.075   6.782  0.3843 -0.0062 -0.2771
  170SAPE  H12B19186   2.762   0.914   6.870  2.1909  0.0089 -0.5166
  170SAPE   C1119187   2.605   0.978   6.725  0.0974  0.6035 -0.7193
  170SAPE  H11A19188   2.554   1.040   6.801 -1.3205 -0.7029 -0.5700
  170SAPE  H11B19189   2.550   0.883   6.743 -0.5310  1.3393  1.5765
  170SAPE     P19190   2.454   1.054   6.538 -0.1107 -0.5464  0.0529
  170SAPE   O1319191   2.413   1.192   6.560 -0.3804 -0.1303 -0.1907
  170SAPE   O1419192   2.453   1.001   6.401  0.0946  0.2342  0.3136
  170SAPE   O1219193   2.605   1.039   6.595 -0.1917  0.5274  0.7987
  170SAPE   O1119194   2.370   0.959   6.637 -0.1442  0.2035  0.2910
  170SAPE    C119195   2.230   0.939   6.605  0.3585 -0.1924  0.0596
  170SAPE    HA19196   2.210   0.945   6.496 -2.6545 -0.6201  0.5003
  170SAPE    HB19197   2.196   0.837   6.636 -1.3247  0.7955  1.6855
  170SAPE    C219198   2.131   1.042   6.670  0.7021  0.3893 -0.2612
  170SAPE    HS19199   2.172   1.142   6.643 -2.1077  2.0491  1.1779
  170SAPE   O2119200   2.143   1.013   6.810 -0.0893 -0.1902 -0.2217
  170SAPE   C2119201   2.088   1.111   6.891 -0.3677 -0.4851 -0.9530
  170SAPE   O2219202   2.041   1.215   6.857  0.1787  0.0218  0.0979
  170SAPE   C2219203   2.093   1.062   7.042  0.7274 -0.3822 -0.3555
  170SAPE   H2R19204   2.135   0.960   7.034  0.7657 -0.3706 -0.3008
  170SAPE   H2S19205   2.164   1.128   7.097  1.4242 -0.2822 -1.3356
  170SAPE    C319206   1.990   1.023   6.617  0.6223 -0.1860  0.4666
  170SAPE    HX19207   1.985   1.052   6.509  3.3726  1.6026  0.7234
  170SAPE    HY19208   1.916   1.096   6.656  1.4234  1.9423 -1.7342
  170SAPE   O3119209   1.954   0.882   6.628 -0.8001 -0.0974 -0.1102
  170SAPE   C3119210   1.878   0.853   6.734 -0.5273  0.0194 -0.6062
  170SAPE   O3219211   1.843   0.935   6.813 -0.3022  0.4812 -0.5599
  170SAPE   C3219212   1.843   0.714   6.738  0.6789  0.5041 -0.0204
  170SAPE   H2X19213   1.925   0.650   6.698  1.1270  0.7424  0.5092
  170SAPE   H2Y19214   1.753   0.704   6.672  0.9997 -1.1989 -0.2466
  170SAPE   C2319215   1.954   1.078   7.111 -1.0063  0.8867 -0.4076
  170SAPE   H3R19216   1.883   1.023   7.046  0.7112  0.0231 -1.6299
  170SAPE   H3S19217   1.929   1.184   7.133 -1.7612  0.1962  2.5989
  170SAPE   C2419218   1.968   1.013   7.252 -0.7810 -0.2096  0.2877
  170SAPE   H4R19219   2.061   1.038   7.307 -2.1248  0.6784  2.2701
  170SAPE   H4S19220   1.975   0.905   7.224 -0.2626 -0.0214 -0.3382
  170SAPE   C2519221   1.848   1.055   7.339  0.0471 -0.4564 -0.0194
  170SAPE   H5R19222   1.752   1.021   7.296  0.1652  0.9207 -1.4622
  170SAPE   C2619223   1.850   1.129   7.449  0.1219  0.1790 -0.7251
  170SAPE   H6R19224   1.758   1.135   7.509  1.1646  1.2086  0.8409
  170SAPE   C2719225   1.966   1.193   7.514  0.0743  0.0956 -0.2049
  170SAPE   H7R19226   1.948   1.298   7.547  0.0787  0.5180 -1.5141
  170SAPE   H7S19227   2.043   1.213   7.437  0.6397 -0.2329  0.2676
  170SAPE   C2819228   2.026   1.118   7.635 -0.9910 -0.4484  0.0585
  170SAPE   H8R19229   2.097   1.037   7.613  2.0410  2.1058 -0.3119
  170SAPE   C2919230   2.005   1.134   7.767 -0.9644  0.8701  0.5493
  170SAPE   H9R19231   2.049   1.060   7.836  0.3928 -1.8072 -2.8240
  170SAPE  C21019232   1.911   1.226   7.835 -0.3688  0.0386  0.2176
  170SAPE  H10R19233   1.840   1.166   7.896 -2.2534  1.7468 -0.1527
  170SAPE  H10S19234   1.841   1.266   7.758 -0.3989 -0.3447  0.0474
  170SAPE  C21119235   1.978   1.341   7.909  0.2238  0.2667 -0.1399
  170SAPE  H11R19236   1.974   1.435   7.854 -2.5964  1.5480  2.0353
  170SAPE  C21219237   2.032   1.334   8.034 -0.2041 -0.6218  0.0649
  170SAPE  H12R19238   2.066   1.427   8.083 -0.2829 -1.6459  2.1545
  170SAPE  C21319239   2.049   1.223   8.127 -0.1930  0.4062 -0.1124
  170SAPE  H13R19240   2.121   1.256   8.205  0.2902  0.7475 -0.6930
  170SAPE  H13S19241   2.095   1.135   8.076  1.2190  0.7981  0.4276
  170SAPE  C21419242   1.914   1.174   8.187 -0.6369  0.1570  0.0040
  170SAPE  H14R19243   1.842   1.140   8.110  1.5139 -2.2768 -1.0694
  170SAPE  C21519244   1.902   1.159   8.317 -0.0804 -0.3967 -0.9048
  170SAPE  H15R19245   1.804   1.130   8.357 -0.2530 -0.8982 -1.6655
  170SAPE  C21619246   1.995   1.178   8.433  0.0172 -0.1086 -1.0309
  170SAPE  H16R19247   2.100   1.145   8.416  1.0302  1.0131  2.3401
  170SAPE  H16S19248   1.954   1.111   8.511 -0.5521  0.5145 -0.7886
  170SAPE  C21719249   1.988   1.329   8.479 -0.3391  0.2744 -0.0898
  170SAPE  H17R19250   1.887   1.345   8.521 -0.9791 -1.6862 -0.7821
  170SAPE  H17S19251   2.020   1.404   8.403 -0.9433 -0.8430 -1.4846
  170SAPE  C21819252   2.090   1.344   8.595  0.1213 -0.3537  0.5753
  170SAPE  H18R19253   2.191   1.342   8.551  0.5890  2.6886  1.2869
  170SAPE  H18S19254   2.086   1.248   8.652  0.7763 -1.0438 -0.5179
  170SAPE  C21919255   2.078   1.478   8.676 -0.4899 -0.3031  0.2491
  170SAPE  H19R19256   2.069   1.553   8.595  2.8521 -1.3572 -1.2714
  170SAPE  H19S19257   2.179   1.489   8.722  0.1099  0.4965 -1.2002
  170SAPE  C22019258   1.966   1.498   8.784 -0.1513  0.2949  0.4341
  170SAPE  H20R19259   1.875   1.464   8.731 -1.4627  1.0058  2.1434
  170SAPE  H20S19260   1.962   1.607   8.805  0.2767  0.4621 -0.3343
  170SAPE  H20T19261   1.979   1.454   8.886 -0.9051 -0.1253  0.3555
  170SAPE   C3319262   1.797   0.677   6.881 -0.0935  0.0675 -0.9520
  170SAPE   H3X19263   1.701   0.730   6.903  0.9264  1.6026  0.0063
  170SAPE   H3Y19264   1.861   0.714   6.964 -0.3513  0.3656 -0.8833
  170SAPE   C3419265   1.775   0.529   6.910 -0.2155  0.2500  0.6106
  170SAPE   H4X19266   1.867   0.468   6.896 -1.3386 -1.4452  0.4433
  170SAPE   H4Y19267   1.694   0.480   6.853  0.1279 -0.5061  0.7590
  170SAPE   C3519268   1.735   0.498   7.053 -0.5437  0.1288 -0.1898
  170SAPE   H5X19269   1.650   0.563   7.084  0.1792  0.1424  1.8812
  170SAPE   H5Y19270   1.817   0.508   7.127 -2.5751 -1.1446  2.3832
  170SAPE   C3619271   1.706   0.350   7.085 -0.0400 -0.0036  0.5025
  170SAPE   H6X19272   1.780   0.281   7.040 -0.5143 -0.4974  0.4677
  170SAPE   H6Y19273   1.615   0.329   7.024  0.4264  0.9105 -0.5474
  170SAPE   C3719274   1.676   0.324   7.232 -0.4037  0.3768 -0.3058
  170SAPE   H7X19275   1.628   0.417   7.270  0.0911  1.6189 -2.5512
  170SAPE   H7Y19276   1.768   0.316   7.295 -0.1376  3.3127 -0.1810
  170SAPE   C3819277   1.601   0.194   7.267 -0.3601  0.5055  0.4094
  170SAPE   H8X19278   1.644   0.113   7.205 -2.1123 -0.8839  0.9479
  170SAPE   H8Y19279   1.494   0.206   7.241 -1.0371 -2.0347  1.7136
  170SAPE   C3919280   1.584   0.170   7.421  0.2978 -0.3445 -0.3749
  170SAPE   H9X19281   1.530   0.251   7.474 -1.3429 -0.1670 -2.1841
  170SAPE   H9Y19282   1.684   0.162   7.469  0.8705 -0.5758 -1.5599
  170SAPE  C31019283   1.505   0.041   7.452 -0.7152 -0.3314 -0.2408
  170SAPE  H10X19284   1.550  -0.043   7.394 -2.2205 -1.4968  0.2078
  170SAPE  H10Y19285   1.402   0.061   7.415 -2.1184 -0.2212  3.2982
  170SAPE  C31119286   1.502   0.020   7.603  0.0633 -0.0030 -0.4200
  170SAPE  H11X19287   1.448   0.109   7.642 -0.7137 -1.0222  0.8763
  170SAPE  H11Y19288   1.598   0.016   7.660  0.3517  3.0748 -0.4959
  170SAPE  C31219289   1.420  -0.109   7.618 -0.3913  0.9971  0.3652
  170SAPE  H12X19290   1.477  -0.186   7.564 -0.0376  1.7829 -0.4064
  170SAPE  H12Y19291   1.327  -0.101   7.558  1.2343  1.3935 -2.2763
  170SAPE  C31319292   1.394  -0.145   7.767 -0.2564 -0.1032 -0.0556
  170SAPE  H13X19293   1.341  -0.056   7.809  1.0553  0.1100  1.2203
  170SAPE  H13Y19294   1.490  -0.171   7.815  0.2917  1.1370 -0.4380
  170SAPE  C31419295   1.301  -0.272   7.775 -0.5605  0.2988  0.4253
  170SAPE  H14X19296   1.358  -0.346   7.716  1.7694  1.2239  1.4087
  170SAPE  H14Y19297   1.209  -0.249   7.717 -0.3415 -1.1565 -0.5400
  170SAPE  C31519298   1.276  -0.336   7.902  0.0046  0.2247 -0.2786
  170SAPE  H15X19299   1.371  -0.362   7.952 -0.0848  1.3896  0.5477
  170SAPE  H15Y19300   1.216  -0.426   7.876 -1.8912  1.9395 -2.2763
  170SAPE  C31619301   1.194  -0.257   8.000 -0.1229  0.2179 -0.8834
  170SAPE  H16X19302   1.105  -0.223   7.943 -0.9680 -0.9543 -0.3197
  170SAPE  H16Y19303   1.244  -0.168   8.043  0.4170 -0.0455 -0.9617
  170SAPE  C31719304   1.137  -0.349   8.111  0.4376 -0.1748  0.1088
  170SAPE  H17X19305   1.079  -0.437   8.075  0.8308 -1.1763  1.8095
  170SAPE  H17Y19306   1.065  -0.286   8.167  0.4281  0.3120 -0.4429
  170SAPE  C31819307   1.231  -0.394   8.226  0.4981  0.3951  0.2446
  170SAPE  H18X19308   1.286  -0.309   8.273  3.0580 -0.9832 -0.0637
  170SAPE  H18Y19309   1.309  -0.457   8.179  2.7219  2.8323  0.4308
  170SAPE  H18Z19310   1.176  -0.448   8.306  0.2660  1.2085  0.6455
  171SAPE     N19311   5.064   1.185   6.277 -0.1808 -0.6196  0.2328
  171SAPE   HN119312   5.111   1.261   6.222  1.1897  0.0451  2.2208
  171SAPE   HN219313   5.068   1.102   6.215 -0.8675 -0.9988  0.6879
  171SAPE   HN319314   4.968   1.217   6.302  0.5463  1.9934  0.0287
  171SAPE   C1219315   5.140   1.164   6.408  0.0166  0.3739  0.0604
  171SAPE  H12A19316   5.247   1.168   6.378 -0.2744 -0.4695 -1.1871
  171SAPE  H12B19317   5.112   1.066   6.451 -1.2705  2.0115  3.2113
  171SAPE   C1119318   5.124   1.279   6.497  0.4169  0.4169 -0.0441
  171SAPE  H11A19319   5.200   1.270   6.578  1.2916 -0.0195 -0.8888
  171SAPE  H11B19320   5.018   1.272   6.528  0.4326 -0.8753 -0.2052
  171SAPE     P19321   5.160   1.543   6.488 -0.0556 -0.0891 -0.6888
  171SAPE   O1319322   5.303   1.581   6.495  0.1487 -0.2664  0.2907
  171SAPE   O1419323   5.065   1.624   6.402 -0.4371  0.3438 -0.7129
  171SAPE   O1219324   5.152   1.397   6.427  0.2709 -0.1377  0.2492
  171SAPE   O1119325   5.108   1.541   6.642 -0.0044 -0.0500 -0.3313
  171SAPE    C119326   4.965   1.569   6.657 -0.4389  0.1645 -0.0883
  171SAPE    HA19327   4.947   1.677   6.637 -3.6146 -0.4192 -1.1084
  171SAPE    HB19328   4.900   1.510   6.588 -2.9701  2.7966 -0.1282
  171SAPE    C219329   4.919   1.528   6.804  0.1945 -0.1477  0.0732
  171SAPE    HS19330   4.985   1.583   6.874 -0.6313  2.2880 -0.9783
  171SAPE   O2119331   4.929   1.388   6.823 -0.0750  0.0014  0.0828
  171SAPE   C2119332   4.971   1.346   6.944  0.3904  0.2594 -0.0959
  171SAPE   O2219333   4.994   1.420   7.038 -0.6390 -0.7126  0.2595
  171SAPE   C2219334   4.973   1.188   6.942  0.2425  0.2985 -0.0953
  171SAPE   H2R19335   4.873   1.147   6.967 -0.9339  2.4702 -0.9865
  171SAPE   H2S19336   5.016   1.141   6.850  1.4167 -0.5383  0.8523
  171SAPE    C319337   4.772   1.581   6.829  0.1768  0.1510 -0.6808
  171SAPE    HX19338   4.701   1.527   6.763  1.4842 -3.2233  0.4821
  171SAPE    HY19339   4.769   1.690   6.809 -3.3232  0.4349  0.5763
  171SAPE   O3119340   4.727   1.571   6.972  0.4012  0.0885  0.1495
  171SAPE   C3119341   4.781   1.662   7.049  0.3136 -0.0758  0.1265
  171SAPE   O3219342   4.851   1.753   7.014  0.0166 -0.7305  0.1171
  171SAPE   C3219343   4.725   1.650   7.187 -0.6697  0.4295 -0.2160
  171SAPE   H2X19344   4.705   1.543   7.208  0.8809 -0.1442 -1.4665
  171SAPE   H2Y19345   4.635   1.715   7.179 -1.1736 -0.1719  0.4803
  171SAPE   C2319346   5.069   1.139   7.055  0.1282  0.5449 -0.1155
  171SAPE   H3R19347   5.014   1.150   7.151  0.4138  1.4307 -0.0519
  171SAPE   H3S19348   5.157   1.205   7.067  0.1615  0.3212  0.9753
  171SAPE   C2419349   5.124   0.993   7.028  0.0021  0.5553 -0.5069
  171SAPE   H4R19350   5.192   0.982   7.115 -0.4481  0.5032 -0.1557
  171SAPE   H4S19351   5.187   0.998   6.936  2.6090  0.7057  1.1876
  171SAPE   C2519352   5.023   0.877   7.022 -0.9203  0.2682 -0.2260
  171SAPE   H5R19353   5.028   0.824   6.926 -0.3954  0.0491 -0.0827
  171SAPE   C2619354   4.957   0.824   7.123  0.0210  0.4620  0.6327
  171SAPE   H6R19355   4.881   0.747   7.103  1.4290 -0.8395  0.0785
  171SAPE   C2719356   4.968   0.869   7.267 -0.5074  0.3524  0.1041
  171SAPE   H7R19357   4.866   0.865   7.311 -0.3991 -0.9648  0.2733
  171SAPE   H7S19358   5.004   0.974   7.280  0.0328  0.7463 -3.6379
  171SAPE   C2819359   5.071   0.782   7.341 -0.9231 -0.0093  0.1296
  171SAPE   H8R19360   5.102   0.682   7.307 -3.1196 -1.5412  2.2629
  171SAPE   C2919361   5.122   0.816   7.460  0.4519 -0.6869  0.1574
  171SAPE   H9R19362   5.206   0.758   7.500 -0.1636 -3.1179 -1.8182
  171SAPE  C21019363   5.095   0.937   7.540  0.2141 -0.6493  0.3723
  171SAPE  H10R19364   4.987   0.938   7.568  0.3609  2.0154  1.0696
  171SAPE  H10S19365   5.122   1.024   7.477 -0.4938 -1.5150 -1.2107
  171SAPE  C21119366   5.174   0.953   7.665  0.2937  0.2262 -0.5041
  171SAPE  H11R19367   5.254   1.029   7.656 -0.7546  1.2963 -1.0156
  171SAPE  C21219368   5.152   0.897   7.788  0.1554 -1.2113 -0.2102
  171SAPE  H12R19369   5.226   0.931   7.861 -0.0692  2.8033 -1.5931
  171SAPE  C21319370   5.039   0.809   7.834  0.0394  0.1631  0.3020
  171SAPE  H13R19371   5.083   0.761   7.924 -0.4453 -0.1680  0.3677
  171SAPE  H13S19372   4.999   0.731   7.765 -0.7661  1.4837 -0.7769
  171SAPE  C21419373   4.930   0.905   7.867 -0.3262  0.0209 -0.5617
  171SAPE  H14R19374   4.914   0.981   7.790  0.9849  0.9679  0.0619
  171SAPE  C21519375   4.855   0.904   7.978 -0.8903  0.0079 -0.1635
  171SAPE  H15R19376   4.785   0.989   7.986  1.1035  1.9735 -2.2527
  171SAPE  C21619377   4.861   0.813   8.096  0.4467  1.0544  0.0528
  171SAPE  H16R19378   4.841   0.868   8.190  1.8845  0.9050  0.4639
  171SAPE  H16S19379   4.959   0.763   8.112 -0.5413 -0.4815  1.6861
  171SAPE  C21719380   4.759   0.703   8.091  0.0358  0.4752 -0.5000
  171SAPE  H17R19381   4.655   0.741   8.082 -0.8365 -1.7386 -0.5790
  171SAPE  H17S19382   4.768   0.646   8.186  0.5696 -0.6885 -1.2285
  171SAPE  C21819383   4.766   0.601   7.975 -0.1037 -0.3717  0.2297
  171SAPE  H18R19384   4.873   0.569   7.966  0.3225 -0.3504  3.8889
  171SAPE  H18S19385   4.730   0.652   7.883  1.0424 -2.1996 -1.3244
  171SAPE  C21919386   4.676   0.472   7.980 -0.3800 -0.0597  0.3173
  171SAPE  H19R19387   4.713   0.425   8.074  1.2768 -1.5729 -1.0399
  171SAPE  H19S19388   4.707   0.397   7.904 -0.7115  0.1029  0.0205
  171SAPE  C22019389   4.526   0.498   7.986 -0.2488 -0.4405 -0.9532
  171SAPE  H20R19390   4.473   0.403   8.011  0.6873 -0.5598  0.7352
  171SAPE  H20S19391   4.491   0.536   7.888  1.7211  1.2655 -1.0471
  171SAPE  H20T19392   4.503   0.564   8.072  0.5390 -1.9834  0.5149
  171SAPE   C3319393   4.836   1.690   7.289 -0.0098 -0.7848  0.6546
  171SAPE   H3X19394   4.786   1.683   7.389 -2.4746 -0.6335 -0.4890
  171SAPE   H3Y19395   4.872   1.795   7.280  0.4715 -1.1357 -3.1876
  171SAPE   C3419396   4.955   1.596   7.305  0.2846  0.3065 -0.6180
  171SAPE   H4X19397   5.021   1.605   7.216  0.9612  1.9680  0.0329
  171SAPE   H4Y19398   4.914   1.492   7.308 -2.4874  1.3538  0.5510
  171SAPE   C3519399   5.030   1.604   7.441  0.1912 -0.4287 -0.6714
  171SAPE   H5X19400   5.053   1.498   7.468 -1.4516 -0.2530  1.7161
  171SAPE   H5Y19401   4.958   1.641   7.516  1.0158 -1.8571  0.8901
  171SAPE   C3619402   5.154   1.693   7.433  0.0918 -0.1353 -1.2126
  171SAPE   H6X19403   5.133   1.794   7.393 -2.5306 -0.4176 -0.7011
  171SAPE   H6Y19404   5.226   1.650   7.360 -0.4531 -0.8853 -1.3205
  171SAPE   C3719405   5.229   1.725   7.566 -1.1816 -0.5194  0.3580
  171SAPE   H7X19406   5.316   1.789   7.542 -0.9656 -0.8248  0.3121
  171SAPE   H7Y19407   5.263   1.629   7.611 -0.4186 -0.5162 -0.1927
  171SAPE   C3819408   5.149   1.807   7.677 -0.2347  0.1102  0.1491
  171SAPE   H8X19409   5.061   1.746   7.710 -1.6762  0.9143 -2.0090
  171SAPE   H8Y19410   5.108   1.897   7.627 -1.9906 -1.2982 -1.0986
  171SAPE   C3919411   5.224   1.848   7.799 -1.0353  0.2558 -0.2828
  171SAPE   H9X19412   5.150   1.892   7.868  0.5180  1.2336  0.8342
  171SAPE   H9Y19413   5.291   1.934   7.779 -1.3859  0.8012  0.8220
  171SAPE  C31019414   5.298   1.737   7.875 -0.5624 -0.7752  0.1925
  171SAPE  H10X19415   5.383   1.694   7.817 -0.0784 -0.5678  0.7318
  171SAPE  H10Y19416   5.231   1.650   7.894 -2.6187  0.1732 -2.1627
  171SAPE  C31119417   5.351   1.778   8.013 -0.0292  0.3790 -0.9019
  171SAPE  H11X19418   5.277   1.806   8.091  0.9786  1.2225 -0.2271
  171SAPE  H11Y19419   5.420   1.865   8.014  0.0869  0.2964  0.9201
  171SAPE  C31219420   5.443   1.665   8.069 -0.7113 -0.3786  0.2199
  171SAPE  H12X19421   5.536   1.660   8.008 -0.4871  1.4155  0.3300
  171SAPE  H12Y19422   5.396   1.570   8.037  1.6271 -0.7519 -2.5259
  171SAPE  C31319423   5.486   1.656   8.217 -0.7129  0.0904 -0.1264
  171SAPE  H13X19424   5.556   1.570   8.223 -0.5365  0.2379 -0.0602
  171SAPE  H13Y19425   5.401   1.636   8.286  1.2333 -0.1905  2.3125
  171SAPE  C31419426   5.546   1.783   8.278  0.1307 -0.1346 -0.1048
  171SAPE  H14X19427   5.469   1.862   8.271  0.3648  0.2051  1.0029
  171SAPE  H14Y19428   5.641   1.807   8.226 -0.2484  0.0730 -0.7137
  171SAPE  C31519429   5.584   1.769   8.429  0.3257  0.3664  0.1405
  171SAPE  H15X19430   5.640   1.673   8.433  2.6716  1.5902 -1.3120
  171SAPE  H15Y19431   5.490   1.761   8.488  0.2306  0.3100 -0.0209
  171SAPE  C31619432   5.676   1.880   8.459  0.1150  0.3991  0.3799
  171SAPE  H16X19433   5.629   1.978   8.436 -0.9849  0.4116  2.4341
  171SAPE  H16Y19434   5.767   1.872   8.396 -0.0221  3.9006 -0.5030
  171SAPE  C31719435   5.729   1.885   8.599 -0.3174 -0.4197 -0.1162
  171SAPE  H17X19436   5.791   1.975   8.620 -1.5584  0.1948  1.1425
  171SAPE  H17Y19437   5.798   1.799   8.608 -0.7858 -0.5624  3.6179
  171SAPE  C31819438   5.631   1.843   8.708  0.1089  0.0228  0.5067
  171SAPE  H18X19439   5.569   1.759   8.669 -1.2573  0.5881  1.3578
  171SAPE  H18Y19440   5.558   1.924   8.729 -0.0801  0.1773 -0.6563
  171SAPE  H18Z19441   5.685   1.815   8.800 -1.2042  2.0179  1.9590
  172SAPE     N19442   3.120   5.934   6.414  0.1794 -0.3183 -0.2751
  172SAPE   HN119443   3.055   5.971   6.342  1.0472 -1.4855 -1.7024
  172SAPE   HN219444   3.125   5.830   6.411  2.3167 -0.2803  0.2913
  172SAPE   HN319445   3.084   5.950   6.511 -0.3454 -0.2796 -0.4726
  172SAPE   C1219446   3.260   5.988   6.405  0.3717  1.1378 -0.2729
  172SAPE  H12A19447   3.314   5.948   6.316  0.6942  0.7149  0.1103
  172SAPE  H12B19448   3.312   5.960   6.499  0.7956  0.1319 -0.7865
  172SAPE   C1119449   3.244   6.144   6.392 -0.0468  0.4398 -1.2285
  172SAPE  H11A19450   3.211   6.180   6.492  1.2760  0.0581 -0.6386
  172SAPE  H11B19451   3.162   6.178   6.325 -0.6754  0.3031 -0.5415
  172SAPE     P19452   3.421   6.333   6.371 -0.0089  0.3861 -0.7836
  172SAPE   O1319453   3.556   6.355   6.313  0.1548 -0.4250 -0.3620
  172SAPE   O1419454   3.317   6.438   6.338  0.4258 -0.1717 -0.3746
  172SAPE   O1219455   3.367   6.190   6.338  0.5924 -0.4325 -0.4992
  172SAPE   O1119456   3.447   6.327   6.523  0.6532 -0.6016  0.2097
  172SAPE    C119457   3.504   6.217   6.588  0.8288  0.5338  0.2168
  172SAPE    HA19458   3.441   6.125   6.587  0.7183  0.5857 -1.5909
  172SAPE    HB19459   3.602   6.198   6.540  1.1863  1.7987  0.4200
  172SAPE    C219460   3.534   6.249   6.739 -0.1360 -0.1020  0.8829
  172SAPE    HS19461   3.577   6.159   6.786 -0.8655 -0.0107  1.7624
  172SAPE   O2119462   3.412   6.291   6.801  0.2498  0.2375 -0.0517
  172SAPE   C2119463   3.355   6.201   6.874  0.0008  0.5830  0.6182
  172SAPE   O2219464   3.395   6.086   6.894  0.7914 -0.1933 -0.6053
  172SAPE   C2219465   3.204   6.240   6.897  0.6846  0.1577  0.5039
  172SAPE   H2R19466   3.161   6.290   6.807  0.2390  1.2120  1.2840
  172SAPE   H2S19467   3.154   6.141   6.904  3.9350 -1.8019 -1.7093
  172SAPE    C319468   3.647   6.359   6.745 -0.4052 -0.9029  0.6772
  172SAPE    HX19469   3.613   6.446   6.685  0.5908 -1.0921 -0.1895
  172SAPE    HY19470   3.737   6.325   6.690 -1.0819  1.1717 -1.9317
  172SAPE   O3119471   3.679   6.391   6.881 -0.1596 -0.5189  0.6849
  172SAPE   C3119472   3.614   6.492   6.931  1.0843 -0.0511  0.2203
  172SAPE   O3219473   3.523   6.554   6.874 -0.3159 -0.0538  0.0460
  172SAPE   C3219474   3.654   6.509   7.071  0.3257 -0.2872 -0.0868
  172SAPE   H2X19475   3.739   6.582   7.078  0.7012 -0.8106  0.9791
  172SAPE   H2Y19476   3.689   6.411   7.110  0.9793 -0.0508 -0.0633
  172SAPE   C2319477   3.191   6.346   7.013 -0.0806  0.3800 -0.5483
  172SAPE   H3R19478   3.089   6.384   6.993 -0.4925 -0.2050  0.3971
  172SAPE   H3S19479   3.265   6.429   7.014 -0.3369  0.6516  1.4940
  172SAPE   C2419480   3.193   6.284   7.151 -0.3243  0.0302 -0.3528
  172SAPE   H4R19481   3.296   6.244   7.168 -0.5084 -0.3462 -0.1152
  172SAPE   H4S19482   3.125   6.196   7.152  0.6929 -0.7784  0.1485
  172SAPE   C2519483   3.150   6.376   7.259 -0.5402 -0.3803  0.1037
  172SAPE   H5R19484   3.093   6.464   7.224  1.0106  0.5728 -0.1265
  172SAPE   C2619485   3.186   6.382   7.390 -0.0522 -0.3081 -0.1451
  172SAPE   H6R19486   3.128   6.457   7.446 -0.7967 -1.1014  0.1561
  172SAPE   C2719487   3.281   6.290   7.466  0.3970  0.4298 -0.3624
  172SAPE   H7R19488   3.358   6.241   7.402  1.6910 -1.0256  2.1414
  172SAPE   H7S19489   3.215   6.207   7.499  1.8536 -2.1585 -3.3873
  172SAPE   C2819490   3.357   6.362   7.572  0.3348 -0.3266  0.5437
  172SAPE   H8R19491   3.452   6.407   7.538 -0.0976  1.0290  1.0538
  172SAPE   C2919492   3.321   6.402   7.696  0.4531 -0.6164 -0.5322
  172SAPE   H9R19493   3.394   6.453   7.760 -0.4567  1.3694 -0.9963
  172SAPE  C21019494   3.186   6.375   7.764  1.0588  0.0358  0.0247
  172SAPE  H10R19495   3.129   6.298   7.707  1.1282  0.0771 -0.1012
  172SAPE  H10S19496   3.126   6.468   7.756  0.9347  0.2883  2.8264
  172SAPE  C21119497   3.213   6.334   7.909  0.3515 -0.1625 -0.4990
  172SAPE  H11R19498   3.303   6.374   7.958  1.2096 -0.9801 -1.3741
  172SAPE  C21219499   3.132   6.255   7.988  0.2300 -0.1749  0.1657
  172SAPE  H12R19500   3.167   6.247   8.092  2.1153 -0.9664 -0.4744
  172SAPE  C21319501   2.995   6.200   7.946  0.3513 -1.0612 -0.0631
  172SAPE  H13R19502   2.993   6.143   7.851  0.3882  0.0697 -0.7690
  172SAPE  H13S19503   2.936   6.291   7.922 -0.7497 -0.4346  4.2458
  172SAPE  C21419504   2.929   6.147   8.075 -0.0320  0.1396 -0.7985
  172SAPE  H14R19505   2.947   6.040   8.095  0.6659  0.4798  0.5132
  172SAPE  C21519506   2.850   6.214   8.160  0.4966  0.7075  0.4478
  172SAPE  H15R19507   2.808   6.164   8.249 -0.9345  1.0016 -0.0233
  172SAPE  C21619508   2.797   6.353   8.149 -1.0679 -0.5380  0.3203
  172SAPE  H16R19509   2.687   6.350   8.143 -1.0274 -1.1400 -0.2513
  172SAPE  H16S19510   2.828   6.402   8.054 -1.9666 -0.9814 -0.2136
  172SAPE  C21719511   2.842   6.438   8.269  0.6547 -0.6696 -0.2525
  172SAPE  H17R19512   2.807   6.542   8.254 -0.5024 -0.8652  0.8713
  172SAPE  H17S19513   2.952   6.441   8.279  0.6797 -0.6529 -0.5290
  172SAPE  C21819514   2.784   6.390   8.405  0.1685  0.0914 -0.1648
  172SAPE  H18R19515   2.831   6.295   8.438 -1.2308 -1.1139 -1.5079
  172SAPE  H18S19516   2.679   6.370   8.376  0.0740 -2.1638  1.4477
  172SAPE  C21919517   2.802   6.490   8.518 -0.2482 -0.6227 -0.1932
  172SAPE  H19R19518   2.740   6.582   8.506 -0.5505 -0.9453 -1.2049
  172SAPE  H19S19519   2.909   6.520   8.532 -0.1354 -1.4739  0.9329
  172SAPE  C22019520   2.769   6.431   8.653  0.7837 -0.3515  0.4890
  172SAPE  H20R19521   2.786   6.503   8.736 -0.0455  1.3341 -0.7467
  172SAPE  H20S19522   2.847   6.353   8.659 -0.8379 -2.0555  0.3450
  172SAPE  H20T19523   2.667   6.387   8.655 -0.7455  2.7928 -0.9731
  172SAPE   C3319524   3.527   6.545   7.154  0.5546 -0.1678 -0.1032
  172SAPE   H3X19525   3.459   6.457   7.159 -0.2305  0.4907  1.2606
  172SAPE   H3Y19526   3.469   6.621   7.098  2.2719  0.6238 -0.8798
  172SAPE   C3419527   3.561   6.604   7.286  0.1260 -0.2938 -0.2625
  172SAPE   H4X19528   3.640   6.680   7.269  0.7760 -0.5632  1.3880
  172SAPE   H4Y19529   3.597   6.536   7.367  0.7268  1.1916  0.7671
  172SAPE   C3519530   3.432   6.668   7.349 -0.1991  0.0337 -0.0334
  172SAPE   H5X19531   3.354   6.589   7.358 -0.5567  0.4052  0.1769
  172SAPE   H5Y19532   3.389   6.760   7.303 -1.6488 -0.5581  0.0665
  172SAPE   C3619533   3.460   6.715   7.492  0.2324 -0.1419 -0.0524
  172SAPE   H6X19534   3.529   6.801   7.501  0.2695  0.2511 -3.1569
  172SAPE   H6Y19535   3.506   6.633   7.551  1.6304  0.4062 -0.3614
  172SAPE   C3719536   3.336   6.759   7.572  0.4602  0.5560 -0.3445
  172SAPE   H7X19537   3.258   6.680   7.559  0.4517  0.1317  1.8599
  172SAPE   H7Y19538   3.296   6.851   7.524 -0.0168  1.2368  1.2907
  172SAPE   C3819539   3.363   6.785   7.717  0.2152  0.0801  0.0203
  172SAPE   H8X19540   3.448   6.855   7.734 -0.5656  0.7666  1.2499
  172SAPE   H8Y19541   3.399   6.688   7.757 -1.2392  0.0466  1.3613
  172SAPE   C3919542   3.244   6.846   7.789 -0.1574  1.0627 -0.2282
  172SAPE   H9X19543   3.252   6.823   7.897 -1.0084 -1.1711 -0.6004
  172SAPE   H9Y19544   3.156   6.788   7.757  1.3287 -1.3172 -0.2470
  172SAPE  C31019545   3.217   6.991   7.779  0.2100  0.2639 -0.5036
  172SAPE  H10X19546   3.200   7.016   7.672 -0.5424 -0.1968 -0.4991
  172SAPE  H10Y19547   3.310   7.045   7.805 -0.1631 -0.4093  2.5227
  172SAPE  C31119548   3.087   7.044   7.850 -0.4031  0.2238  0.2488
  172SAPE  H11X19549   2.993   6.992   7.820 -1.8638  3.0671 -0.5299
  172SAPE  H11Y19550   3.084   7.154   7.830 -3.3587  0.2671  0.4885
  172SAPE  C31219551   3.098   7.043   8.004 -0.7261 -0.7402 -0.3606
  172SAPE  H12X19552   3.135   6.943   8.035  0.5727 -0.2737 -0.3630
  172SAPE  H12Y19553   3.006   7.045   8.066 -1.8338  0.6022 -1.9610
  172SAPE  C31319554   3.186   7.160   8.062  0.0081 -1.0018 -0.2820
  172SAPE  H13X19555   3.118   7.246   8.043 -2.0158 -1.6032  3.3223
  172SAPE  H13Y19556   3.286   7.166   8.014 -0.3950  1.8161 -0.9772
  172SAPE  C31419557   3.218   7.131   8.210 -0.7918 -0.1245  0.8246
  172SAPE  H14X19558   3.244   7.024   8.227 -1.6674 -0.2084  1.7112
  172SAPE  H14Y19559   3.132   7.156   8.275 -0.6919  0.9989  0.5370
  172SAPE  C31519560   3.339   7.223   8.256  0.3855 -0.2670 -0.6150
  172SAPE  H15X19561   3.412   7.229   8.172 -0.9413 -1.5922 -1.9358
  172SAPE  H15Y19562   3.386   7.181   8.347 -0.1466  2.1920  0.8608
  172SAPE  C31619563   3.288   7.362   8.299 -0.1672 -0.4188 -0.0517
  172SAPE  H16X19564   3.218   7.401   8.222  1.8848  0.4110 -1.5927
  172SAPE  H16Y19565   3.377   7.429   8.296 -0.0064 -0.4656  2.0067
  172SAPE  C31719566   3.228   7.380   8.433  0.1548 -0.6014 -0.8884
  172SAPE  H17X19567   3.152   7.299   8.438 -0.0496 -0.3821 -0.3711
  172SAPE  H17Y19568   3.169   7.473   8.445  0.0407 -0.6050 -1.3914
  172SAPE  C31819569   3.347   7.372   8.526 -0.1620  0.7090 -0.0812
  172SAPE  H18X19570   3.415   7.456   8.501  1.0614  0.2542  1.5565
  172SAPE  H18Y19571   3.410   7.282   8.518 -0.5743  0.4489 -0.4710
  172SAPE  H18Z19572   3.317   7.396   8.630  0.4525 -0.5900  0.4156
  173SOPE     N19573   5.784   3.713  11.168 -0.1518 -0.8192 -0.1619
  173SOPE   HN119574   5.886   3.712  11.151 -0.2740  0.4093 -1.1620
  173SOPE   HN219575   5.767   3.810  11.202 -1.1956 -1.3369  0.8760
  173SOPE   HN319576   5.756   3.646  11.242 -0.2410 -0.5011  0.0966
  173SOPE   C1219577   5.728   3.684  11.034 -0.8353 -0.1611  0.5108
  173SOPE  H12A19578   5.619   3.704  11.039 -0.5158  1.8300  0.2123
  173SOPE  H12B19579   5.748   3.578  11.007 -0.9398 -0.1124  0.2364
  173SOPE   C1119580   5.786   3.776  10.922 -0.0858 -0.4089  0.6231
  173SOPE  H11A19581   5.744   3.748  10.823  2.8335  2.1463 -1.5600
  173SOPE  H11B19582   5.897   3.772  10.917  0.1556  2.8008  1.3376
  173SOPE     P19583   5.625   3.985  10.911 -0.0892  0.1300  0.2197
  173SOPE   O1319584   5.661   4.126  10.920  0.5816  0.0573  0.3162
  173SOPE   O1419585   5.501   3.944  10.977 -0.8061  0.1435 -0.0623
  173SOPE   O1219586   5.746   3.911  10.967 -0.0754  0.3822  0.3210
  173SOPE   O1119587   5.613   3.941  10.763  0.4946 -0.1746 -0.2933
  173SOPE    C119588   5.612   4.045  10.663 -0.5160  0.8641 -0.7766
  173SOPE    HA19589   5.691   4.121  10.679 -0.1269  0.1460  0.9966
  173SOPE    HB19590   5.516   4.100  10.676 -1.3584 -0.5508 -0.8049
  173SOPE    C219591   5.632   3.984  10.520  0.6732 -0.1931  0.1567
  173SOPE    HS19592   5.607   4.070  10.453 -0.6027 -0.7782 -0.1504
  173SOPE   O2119593   5.540   3.876  10.508  0.3177 -0.6914  0.1481
  173SOPE   C2119594   5.420   3.920  10.480 -0.3839 -0.0557 -0.6650
  173SOPE   O2219595   5.383   4.038  10.483  0.4282  0.5759  0.4362
  173SOPE   C2219596   5.346   3.789  10.435  0.4364 -0.6341 -0.8475
  173SOPE   H2R19597   5.346   3.729  10.528  0.3654  1.2469  0.4148
  173SOPE   H2S19598   5.406   3.734  10.359 -2.2960 -2.7987 -1.6330
  173SOPE    C319599   5.772   3.934  10.478 -0.3266  0.1205  0.0686
  173SOPE    HX19600   5.784   3.832  10.522  0.3997 -0.4765 -1.4422
  173SOPE    HY19601   5.855   3.981  10.536 -0.7655 -0.0770  0.8750
  173SOPE   O3119602   5.794   3.933  10.334 -0.3839 -0.5103  0.3181
  173SOPE   C3119603   5.881   3.848  10.283  0.1265 -0.1313 -0.4848
  173SOPE   O3219604   5.949   3.775  10.352 -0.3318  0.0570  0.1714
  173SOPE   C3219605   5.889   3.863  10.131 -0.7009  0.2483 -0.5941
  173SOPE   H2X19606   5.913   3.968  10.107 -0.7032 -0.2825 -3.2652
  173SOPE   H2Y19607   5.795   3.827  10.083 -1.3990 -0.9879  1.5541
  173SOPE   C2319608   5.205   3.830  10.384  0.2829 -0.6775  0.5971
  173SOPE   H3R19609   5.152   3.908  10.444  0.0031 -1.4964  1.4484
  173SOPE   H3S19610   5.130   3.747  10.390 -0.7512  0.1870 -0.0965
  173SOPE   C2419611   5.206   3.882  10.236  0.2243  0.0535 -0.0531
  173SOPE   H4R19612   5.108   3.930  10.212 -1.0194 -1.1233  2.2660
  173SOPE   H4S19613   5.289   3.955  10.226  1.3171 -1.1991 -0.3015
  173SOPE   C2519614   5.217   3.765  10.137 -0.2136  0.0962  0.6273
  173SOPE   H5R19615   5.320   3.726  10.149 -0.2994 -0.3419  0.0096
  173SOPE   H5S19616   5.139   3.687  10.154 -0.0322 -0.4768 -0.9534
  173SOPE   C2619617   5.210   3.808   9.989 -0.1288 -0.6869 -0.2673
  173SOPE   H6R19618   5.125   3.873   9.958  1.9138  1.8961 -0.7148
  173SOPE   H6S19619   5.289   3.882   9.969 -1.6487  1.2004  0.3905
  173SOPE   C2719620   5.224   3.683   9.899  0.2306  0.3991 -0.2054
  173SOPE   H7R19621   5.321   3.634   9.923  0.0779  0.6679  1.0303
  173SOPE   H7S19622   5.140   3.610   9.903  0.4126  0.2377  0.6974
  173SOPE   C2819623   5.236   3.721   9.748 -0.1146  0.2713  0.1206
  173SOPE   H8R19624   5.156   3.794   9.725 -0.2992 -0.3753 -1.4394
  173SOPE   H8S19625   5.334   3.772   9.736  2.1030 -3.8606 -1.6953
  173SOPE   C2919626   5.229   3.600   9.662  0.3044 -0.4600  0.1540
  173SOPE   H9119627   5.312   3.532   9.684  0.4140 -0.5154 -0.4215
  173SOPE  C21019628   5.141   3.558   9.573  0.7555 -0.4136  0.3095
  173SOPE  H10119629   5.148   3.461   9.521 -0.8488 -0.3412 -0.0801
  173SOPE  C21119630   5.021   3.647   9.531 -0.1447  0.3097 -0.9240
  173SOPE  H11R19631   5.039   3.743   9.583 -1.0826 -0.0430  0.0961
  173SOPE  H11S19632   4.929   3.609   9.581  0.6262  0.1260  0.4178
  173SOPE  C21219633   5.007   3.676   9.385  0.0759  0.6823 -0.1267
  173SOPE  H12R19634   4.927   3.749   9.360 -0.9780 -0.2504  0.4028
  173SOPE  H12S19635   4.981   3.578   9.339  0.5669 -1.7768  4.2852
  173SOPE  C21319636   5.137   3.717   9.313  0.7233  1.2041  0.5389
  173SOPE  H13R19637   5.206   3.633   9.336 -1.2186 -0.8168 -0.6721
  173SOPE  H13S19638   5.166   3.813   9.361  2.9440  0.0500  1.6734
  173SOPE  C21419639   5.129   3.730   9.158 -0.0991 -0.3532  0.1443
  173SOPE  H14R19640   5.064   3.818   9.144  1.4628  0.9419  0.6693
  173SOPE  H14S19641   5.080   3.645   9.106 -0.5458 -0.0362  0.0369
  173SOPE  C21519642   5.268   3.752   9.106 -0.0204  0.0043  0.4325
  173SOPE  H15R19643   5.325   3.658   9.119  1.6723  1.2689  3.1495
  173SOPE  H15S19644   5.317   3.828   9.171  0.0218 -0.8699  1.4576
  173SOPE  C21619645   5.273   3.808   8.963 -0.1940 -0.1698  0.1803
  173SOPE  H16R19646   5.375   3.848   8.942  1.3129 -2.8352  1.8825
  173SOPE  H16S19647   5.199   3.890   8.947  0.2885  0.0455 -1.0366
  173SOPE  C21719648   5.268   3.700   8.852  0.2521  0.2874 -0.8735
  173SOPE  H17R19649   5.172   3.649   8.874 -1.1578  2.7681 -0.8957
  173SOPE  H17S19650   5.346   3.621   8.851  0.1261  0.1620 -0.9349
  173SOPE  C21819651   5.256   3.758   8.709  0.0414  0.2141  0.1085
  173SOPE  H18R19652   5.321   3.844   8.683  0.2008  0.3130  0.8057
  173SOPE  H18S19653   5.150   3.791   8.695 -0.0354 -0.1048 -0.0778
  173SOPE  H18T19654   5.279   3.684   8.629  0.0766  0.2658  0.0710
  173SOPE   C3319655   6.016   3.779  10.082 -0.1123 -0.3873 -0.7592
  173SOPE   H3X19656   6.000   3.670  10.092  0.2499 -0.2241  2.7200
  173SOPE   H3Y19657   6.110   3.810  10.133 -1.3533  2.7805 -0.1264
  173SOPE   C3419658   6.052   3.806   9.934 -0.1487  0.1875  0.6340
  173SOPE   H4X19659   6.096   3.907   9.928 -0.1713  0.2163  0.9091
  173SOPE   H4Y19660   5.958   3.799   9.876  0.3005  1.2946 -0.2547
  173SOPE   C3519661   6.150   3.707   9.874  0.7962 -0.0777 -0.0645
  173SOPE   H5X19662   6.105   3.608   9.897  2.4846 -0.9760 -0.4474
  173SOPE   H5Y19663   6.248   3.714   9.926  0.5929 -1.9300  0.6598
  173SOPE   C3619664   6.161   3.701   9.717 -0.8832 -1.2042  0.3807
  173SOPE   H6X19665   6.161   3.811   9.699 -1.1558 -0.9249  1.9730
  173SOPE   H6Y19666   6.069   3.651   9.680 -0.1748 -1.5733 -0.9190
  173SOPE   C3719667   6.286   3.638   9.672  0.3842 -0.0360  0.0748
  173SOPE   H7X19668   6.288   3.537   9.718  1.9837 -0.2021 -0.2954
  173SOPE   H7Y19669   6.369   3.702   9.709 -0.8688  1.6338  0.1252
  173SOPE   C3819670   6.304   3.626   9.517  0.6516 -0.0626 -0.2066
  173SOPE   H8X19671   6.328   3.734   9.508 -1.0002  0.5370  1.8042
  173SOPE   H8Y19672   6.202   3.614   9.475  0.3989 -0.3139  0.4561
  173SOPE   C3919673   6.416   3.534   9.474  0.5514 -0.3462 -0.0083
  173SOPE   H9X19674   6.371   3.438   9.506 -4.2936  1.6870  0.0627
  173SOPE   H9Y19675   6.507   3.553   9.536  0.0109 -1.2203  1.0758
  173SOPE  C31019676   6.418   3.548   9.319  0.0692 -0.6937  0.4052
  173SOPE  H10X19677   6.433   3.652   9.282 -2.8049  0.1544  1.2887
  173SOPE  H10Y19678   6.318   3.520   9.277 -0.7327  2.4497 -0.0708
  173SOPE  C31119679   6.523   3.457   9.263  0.6409 -0.0474  0.5452
  173SOPE  H11X19680   6.502   3.354   9.298  0.3302  0.0626  0.6753
  173SOPE  H11Y19681   6.605   3.519   9.305 -1.0381  2.3720  0.4267
  173SOPE  C31219682   6.525   3.469   9.109 -0.0256  0.1726  0.5620
  173SOPE  H12X19683   6.518   3.578   9.088 -0.4303  0.2830  1.2368
  173SOPE  H12Y19684   6.431   3.425   9.069  0.4309 -0.4006  0.1089
  173SOPE  C31319685   6.649   3.401   9.042  0.2800  0.2017 -0.8913
  173SOPE  H13X19686   6.643   3.293   9.066 -0.6795  0.4847  0.2067
  173SOPE  H13Y19687   6.739   3.447   9.089 -1.0275  0.1223  1.8175
  173SOPE  C31419688   6.633   3.417   8.888 -0.3354  0.2181 -0.5548
  173SOPE  H14X19689   6.656   3.523   8.864  1.2302 -0.1072 -0.5840
  173SOPE  H14Y19690   6.529   3.397   8.853 -0.5154 -4.6478  1.9201
  173SOPE  C31519691   6.734   3.333   8.812 -0.1735  0.4852  0.1199
  173SOPE  H15X19692   6.838   3.339   8.851  0.1211  1.1107 -0.7302
  173SOPE  H15Y19693   6.743   3.372   8.709  1.4333 -2.5238 -0.9851
  173SOPE  C31619694   6.702   3.183   8.795  0.4315  0.2128  0.2684
  173SOPE  H16X19695   6.672   3.130   8.888  0.0496  0.5944  0.3617
  173SOPE  H16Y19696   6.790   3.130   8.751  0.5233  1.5071 -1.1953
  173SOPE  C31719697   6.596   3.158   8.683  0.1495  0.3745  0.0370
  173SOPE  H17X19698   6.633   3.201   8.588 -2.4186 -1.7667 -2.0819
  173SOPE  H17Y19699   6.507   3.220   8.709  1.1587  1.2759  1.4987
  173SOPE  C31819700   6.562   3.013   8.659  0.0571  0.2152 -0.0341
  173SOPE  H18X19701   6.486   3.011   8.578  0.2105 -0.1314 -0.1706
  173SOPE  H18Y19702   6.507   2.964   8.742  1.6108 -0.7009  0.5113
  173SOPE  H18Z19703   6.654   2.955   8.635  3.3551  4.6247  0.6214
  174SOPE     N19704   5.025   2.285  10.808 -0.4935 -0.9036 -0.2044
  174SOPE   HN119705   4.983   2.231  10.730  1.3647 -1.3503 -0.9678
  174SOPE   HN219706   4.983   2.380  10.806 -1.4591 -1.2538  1.2763
  174SOPE   HN319707   5.128   2.288  10.794 -0.8458  1.3484 -3.3378
  174SOPE   C1219708   4.980   2.223  10.937 -0.2784  0.2385 -0.4756
  174SOPE  H12A19709   4.870   2.209  10.934 -0.2298 -0.1352 -0.4907
  174SOPE  H12B19710   5.010   2.297  11.014 -1.2194 -0.8093  0.9449
  174SOPE   C1119711   5.040   2.085  10.962 -0.0108  0.0728  0.2237
  174SOPE  H11A19712   4.973   2.011  10.914 -0.5959 -0.3598  1.6503
  174SOPE  H11B19713   5.048   2.059  11.070 -0.5733  2.4549  0.9150
  174SOPE     P19714   5.254   1.940  10.899 -0.2440  0.3175  0.1258
  174SOPE   O1319715   5.270   1.875  11.029  0.0336  0.2527 -0.3013
  174SOPE   O1419716   5.380   1.961  10.827 -0.0465  0.2333  0.1954
  174SOPE   O1219717   5.172   2.075  10.915  0.0921  0.8667  0.1437
  174SOPE   O1119718   5.148   1.856  10.827  0.0176  0.1974 -0.4261
  174SOPE    C119719   5.075   1.902  10.711  0.0278  0.2663 -0.5714
  174SOPE    HA19720   5.085   2.011  10.690  1.3279  0.1797 -0.4754
  174SOPE    HB19721   4.969   1.874  10.729  1.2251 -2.5974  3.1473
  174SOPE    C219722   5.122   1.825  10.584  0.1786 -0.2384 -0.3292
  174SOPE    HS19723   5.118   1.719  10.617  0.9304  0.0997  0.8975
  174SOPE   O2119724   5.251   1.869  10.548  0.8912  0.7726 -0.2925
  174SOPE   C2119725   5.338   1.775  10.520  0.3372 -0.0457 -0.5168
  174SOPE   O2219726   5.310   1.655  10.516 -0.1977  0.7714  0.1318
  174SOPE   C2219727   5.477   1.843  10.492  0.1125 -0.6761 -0.5225
  174SOPE   H2R19728   5.557   1.781  10.537  1.0095  1.1145  0.4626
  174SOPE   H2S19729   5.478   1.947  10.532  0.8582 -2.2636  4.3596
  174SOPE    C319730   5.019   1.837  10.466  0.0402 -0.5833  0.5365
  174SOPE    HX19731   5.026   1.945  10.438 -0.1658 -0.6935  0.0614
  174SOPE    HY19732   4.913   1.832  10.498  0.3283  1.5766  2.0816
  174SOPE   O3119733   5.052   1.749  10.348 -0.5328 -0.6428 -0.1970
  174SOPE   C3119734   5.025   1.621  10.376  0.0632 -0.1980  0.0472
  174SOPE   O3219735   4.947   1.583  10.464 -0.2423  0.2100 -0.2364
  174SOPE   C3219736   5.108   1.528  10.276 -0.0422 -0.0331 -0.0044
  174SOPE   H2X19737   5.212   1.528  10.314 -0.0806  1.2040  0.1266
  174SOPE   H2Y19738   5.125   1.573  10.176 -0.4241 -1.6782 -0.8522
  174SOPE   C2319739   5.495   1.852  10.335  0.1936  1.1296  0.1559
  174SOPE   H3R19740   5.575   1.928  10.319  0.7782  0.4989  0.0337
  174SOPE   H3S19741   5.401   1.894  10.293 -1.8071 -1.7906  1.3789
  174SOPE   C2419742   5.544   1.716  10.289 -0.5037 -0.0025 -0.0408
  174SOPE   H4R19743   5.641   1.692  10.338 -0.9282 -1.9571 -0.0911
  174SOPE   H4S19744   5.483   1.631  10.326  1.8924 -1.6258  0.4046
  174SOPE   C2519745   5.572   1.714  10.135 -0.1035 -0.5325 -0.0366
  174SOPE   H5R19746   5.623   1.804  10.095 -0.0642 -0.0752  1.0139
  174SOPE   H5S19747   5.641   1.628  10.119 -0.1018 -0.0821 -2.9297
  174SOPE   C2619748   5.444   1.693  10.056 -0.0856 -0.0271  0.2700
  174SOPE   H6R19749   5.394   1.620  10.124  2.3818 -1.1999  0.9429
  174SOPE   H6S19750   5.386   1.788  10.061  0.0571  0.0353  0.8210
  174SOPE   C2719751   5.455   1.644   9.912 -0.1555 -0.4204  0.5249
  174SOPE   H7R19752   5.512   1.721   9.855  0.9824 -2.0508 -0.6168
  174SOPE   H7S19753   5.538   1.571   9.898  1.1020  0.9661  0.4453
  174SOPE   C2819754   5.327   1.618   9.832 -0.6764  0.2277  0.2898
  174SOPE   H8R19755   5.343   1.562   9.737  1.5172  3.1860 -1.2482
  174SOPE   H8S19756   5.284   1.536   9.894  3.6533 -3.2693 -0.7560
  174SOPE   C2919757   5.250   1.744   9.816 -0.0313  0.1063  0.2930
  174SOPE   H9119758   5.175   1.758   9.895  1.9493  0.3053  2.2193
  174SOPE  C21019759   5.262   1.831   9.716 -0.2668 -0.5031  0.4091
  174SOPE  H10119760   5.186   1.911   9.717 -0.5313 -0.7519  0.3870
  174SOPE  C21119761   5.363   1.822   9.611 -0.2548 -0.1756 -0.1719
  174SOPE  H11R19762   5.409   1.721   9.606 -1.2537 -0.5935 -1.6906
  174SOPE  H11S19763   5.440   1.899   9.629 -1.3666  0.3222  3.2558
  174SOPE  C21219764   5.296   1.849   9.474  0.0732  0.5009 -0.2165
  174SOPE  H12R19765   5.269   1.956   9.463  1.2301  0.7973 -0.2782
  174SOPE  H12S19766   5.206   1.784   9.473 -0.4410  1.1863  0.1586
  174SOPE  C21319767   5.393   1.822   9.356 -0.7714  0.1089 -0.4195
  174SOPE  H13R19768   5.420   1.714   9.365  1.4891  0.6906  0.4805
  174SOPE  H13S19769   5.488   1.877   9.372 -0.1334 -1.2390  0.6161
  174SOPE  C21419770   5.327   1.847   9.222  0.2562 -0.2118  0.8857
  174SOPE  H14R19771   5.414   1.873   9.158  1.1713  1.8830  2.8249
  174SOPE  H14S19772   5.264   1.938   9.224 -3.1329 -2.3464  0.2549
  174SOPE  C21519773   5.233   1.735   9.183  0.2567  0.0332 -0.1124
  174SOPE  H15R19774   5.164   1.701   9.263  2.6113  0.5657  2.3040
  174SOPE  H15S19775   5.299   1.651   9.152 -0.1013  0.0095 -0.8290
  174SOPE  C21619776   5.136   1.780   9.066  0.5688  0.2531  0.8104
  174SOPE  H16R19777   5.087   1.873   9.103  1.1458  1.0520 -0.3658
  174SOPE  H16S19778   5.056   1.704   9.056  1.0093  0.0374 -1.9470
  174SOPE  C21719779   5.210   1.792   8.934  0.3288 -0.2968 -0.2525
  174SOPE  H17R19780   5.240   1.693   8.894  1.1474 -0.0614 -0.2452
  174SOPE  H17S19781   5.297   1.861   8.938 -1.6278  2.6905 -3.9287
  174SOPE  C21819782   5.116   1.852   8.832 -0.3979 -0.6649 -0.0998
  174SOPE  H18R19783   5.163   1.833   8.733  0.5166  1.0976 -0.0373
  174SOPE  H18S19784   5.112   1.961   8.852  0.6488 -0.2943 -1.6604
  174SOPE  H18T19785   5.019   1.799   8.839 -1.3095  1.0643  0.6286
  174SOPE   C3319786   5.060   1.385  10.266  0.2995 -0.0648  0.4201
  174SOPE   H3X19787   4.954   1.368  10.236  0.1787  2.5587 -0.9481
  174SOPE   H3Y19788   5.079   1.334  10.363  0.2412  1.6579  1.3763
  174SOPE   C3419789   5.152   1.311  10.159  0.5558 -0.6641 -0.6542
  174SOPE   H4X19790   5.154   1.203  10.183  1.2089 -0.3348  0.8933
  174SOPE   H4Y19791   5.248   1.367  10.154 -0.9787  2.0671 -2.9314
  174SOPE   C3519792   5.102   1.326  10.015  0.1323  0.2728 -0.4206
  174SOPE   H5X19793   5.090   1.434   9.995  1.3256  0.7175  1.0612
  174SOPE   H5Y19794   4.997   1.292  10.007 -0.5722  2.4535 -0.9112
  174SOPE   C3619795   5.196   1.272   9.908  0.0196  0.0870 -0.1698
  174SOPE   H6X19796   5.208   1.162   9.915  1.5607  0.1889 -0.8477
  174SOPE   H6Y19797   5.296   1.321   9.920  0.5472 -1.2194  1.0559
  174SOPE   C3719798   5.143   1.311   9.757  0.1222 -0.3341  0.1812
  174SOPE   H7X19799   5.127   1.421   9.753 -1.1813 -0.5135 -0.0175
  174SOPE   H7Y19800   5.037   1.277   9.753 -0.1496  0.5687 -1.5137
  174SOPE   C3819801   5.232   1.256   9.649 -0.9083  0.4259  0.6835
  174SOPE   H8X19802   5.253   1.153   9.685  1.8366  0.5696 -0.2338
  174SOPE   H8Y19803   5.330   1.308   9.656 -1.0041  0.5651  1.0365
  174SOPE   C3919804   5.164   1.243   9.509 -1.1088  0.4132  0.4868
  174SOPE   H9X19805   5.062   1.203   9.522 -0.7962  0.4428  4.8231
  174SOPE   H9Y19806   5.225   1.179   9.441 -3.8055 -0.9091 -0.8064
  174SOPE  C31019807   5.153   1.376   9.428  0.3116  0.0679 -0.1886
  174SOPE  H10X19808   5.255   1.414   9.404  0.6903 -2.0054 -2.1438
  174SOPE  H10Y19809   5.100   1.448   9.494  0.7066 -2.2878  2.9270
  174SOPE  C31119810   5.081   1.356   9.291 -0.4978 -0.0401  0.4808
  174SOPE  H11X19811   5.060   1.456   9.246  1.9973  0.5313  0.4434
  174SOPE  H11Y19812   4.987   1.297   9.302 -0.3849  0.0574  2.2533
  174SOPE  C31219813   5.160   1.275   9.192  0.1295  0.1804 -0.5536
  174SOPE  H12X19814   5.161   1.167   9.217 -2.2515  0.0715 -0.6884
  174SOPE  H12Y19815   5.260   1.319   9.170  0.8993 -1.0893  0.2479
  174SOPE  C31319816   5.082   1.299   9.058 -0.0475  0.1175 -0.0393
  174SOPE  H13X19817   5.073   1.410   9.055 -1.4000  0.1321  2.3795
  174SOPE  H13Y19818   4.983   1.254   9.078  1.2320 -2.4740  0.8434
  174SOPE  C31419819   5.154   1.245   8.932 -0.0139  0.0987  0.7181
  174SOPE  H14X19820   5.206   1.151   8.960  2.2704  1.1498  0.2255
  174SOPE  H14Y19821   5.232   1.311   8.888 -2.4898  1.9787 -1.1948
  174SOPE  C31519822   5.052   1.213   8.812  0.5742  0.1018  0.5549
  174SOPE  H15X19823   5.022   1.300   8.749  0.2023  1.5414  2.6337
  174SOPE  H15Y19824   4.959   1.174   8.858 -0.7887  1.6197 -0.7915
  174SOPE  C31619825   5.117   1.105   8.723  0.0216  0.0915  0.0806
  174SOPE  H16X19826   5.045   1.057   8.653  0.0110  1.8288 -1.1556
  174SOPE  H16Y19827   5.138   1.023   8.795  5.2619 -1.0074 -2.1962
  174SOPE  C31719828   5.246   1.150   8.648  0.5402  0.6727 -0.3633
  174SOPE  H17X19829   5.302   1.059   8.618 -2.2049 -1.3609  0.2437
  174SOPE  H17Y19830   5.318   1.215   8.704 -0.4929  0.3645  1.4158
  174SOPE  C31819831   5.212   1.227   8.524 -0.2611 -0.0889 -0.2890
  174SOPE  H18X19832   5.160   1.160   8.452  1.0827 -1.7242  0.1975
  174SOPE  H18Y19833   5.306   1.265   8.479 -0.4821  0.4353 -0.3161
  174SOPE  H18Z19834   5.137   1.306   8.548 -0.9214 -0.4398 -1.1341
  175SOPE     N19835   1.416   2.370  11.074  0.2190  0.7556  0.0852
  175SOPE   HN119836   1.343   2.436  11.109  1.2540  3.9754 -3.1612
  175SOPE   HN219837   1.384   2.271  11.071  0.1029  0.8114 -0.8807
  175SOPE   HN319838   1.503   2.388  11.128  0.6495 -1.9639  0.4389
  175SOPE   C1219839   1.441   2.414  10.936 -0.8383  0.1890  0.2249
  175SOPE  H12A19840   1.505   2.504  10.952  1.1923 -1.0263 -0.6027
  175SOPE  H12B19841   1.343   2.450  10.898  0.9254  2.9833 -2.1890
  175SOPE   C1119842   1.492   2.304  10.844  0.0594  0.3253 -0.0884
  175SOPE  H11A19843   1.516   2.343  10.743 -0.8158  0.6827 -0.1695
  175SOPE  H11B19844   1.403   2.239  10.837 -1.0752  1.6439  1.2621
  175SOPE     P19845   1.757   2.271  10.879  0.3041  0.0696 -0.1259
  175SOPE   O1319846   1.848   2.165  10.937 -0.4633 -0.9696  0.1397
  175SOPE   O1419847   1.781   2.412  10.923 -0.5303  0.0275  0.3873
  175SOPE   O1219848   1.601   2.230  10.906  0.3658  0.3011  0.3806
  175SOPE   O1119849   1.769   2.270  10.720  0.0947 -0.1201 -0.6508
  175SOPE    C119850   1.754   2.156  10.638  0.5118  0.5406  0.0402
  175SOPE    HA19851   1.646   2.131  10.642  0.5005  0.3461 -1.1698
  175SOPE    HB19852   1.814   2.067  10.669 -2.3620 -1.6342 -0.1402
  175SOPE    C219853   1.786   2.170  10.486  0.9200 -0.3686  0.0030
  175SOPE    HS19854   1.738   2.083  10.437  0.1185 -0.5895  1.1209
  175SOPE   O2119855   1.930   2.170  10.462 -0.2425 -0.7211 -0.9679
  175SOPE   C2119856   1.976   2.121  10.346  0.4828  0.6066 -0.4559
  175SOPE   O2219857   1.906   2.065  10.263 -0.1447  0.4295 -0.4688
  175SOPE   C2219858   2.131   2.156  10.340  0.4671 -0.0729 -0.2547
  175SOPE   H2R19859   2.175   2.126  10.437  0.9966  0.1973 -0.4053
  175SOPE   H2S19860   2.131   2.267  10.327 -2.4986 -0.1400 -1.8894
  175SOPE    C319861   1.706   2.289  10.430  0.3422  0.6537 -0.0968
  175SOPE    HX19862   1.742   2.379  10.483  0.9610  0.5541 -0.3424
  175SOPE    HY19863   1.600   2.268  10.459  0.3200 -0.0850 -0.6777
  175SOPE   O3119864   1.729   2.305  10.290 -0.5247 -0.1347 -0.6372
  175SOPE   C3119865   1.653   2.255  10.190 -0.0109 -0.4508 -0.6869
  175SOPE   O3219866   1.552   2.189  10.200  0.0251  0.0813  0.1433
  175SOPE   C3219867   1.711   2.319  10.056  0.2856  0.6554  0.2012
  175SOPE   H2X19868   1.821   2.328  10.067  0.5936 -2.0493  0.0790
  175SOPE   H2Y19869   1.660   2.417  10.049 -1.3787 -0.1721  0.2059
  175SOPE   C2319870   2.194   2.089  10.217  0.4164 -0.2402 -0.1187
  175SOPE   H3R19871   2.201   1.979  10.235 -2.5086 -0.5706 -0.4825
  175SOPE   H3S19872   2.294   2.134  10.203 -0.5269  1.9726 -0.1652
  175SOPE   C2419873   2.127   2.127  10.084 -0.5463 -0.0841 -0.5287
  175SOPE   H4R19874   2.034   2.067  10.076 -0.2863 -0.5737  0.0583
  175SOPE   H4S19875   2.097   2.234  10.082  0.9509  0.4128  1.1076
  175SOPE   C2519876   2.226   2.085   9.970  0.1178  0.1892  0.2601
  175SOPE   H5R19877   2.324   2.134   9.986  0.6500 -1.7323  3.9361
  175SOPE   H5S19878   2.238   1.975   9.983  0.2018  0.1247 -0.3320
  175SOPE   C2619879   2.161   2.124   9.840  0.7443  0.0157  0.4733
  175SOPE   H6R19880   2.066   2.068   9.825 -0.3501  1.4894  1.6459
  175SOPE   H6S19881   2.137   2.231   9.827 -0.0691 -0.4157 -1.9929
  175SOPE   C2719882   2.237   2.088   9.719 -0.2152 -0.3031  0.6792
  175SOPE   H7R19883   2.330   2.145   9.698 -0.1439 -0.3010  1.0008
  175SOPE   H7S19884   2.262   1.980   9.722  0.2386 -0.1772  1.9388
  175SOPE   C2819885   2.169   2.107   9.581 -0.3374  0.3241 -0.3951
  175SOPE   H8R19886   2.068   2.060   9.586 -0.2784  0.1648 -0.6437
  175SOPE   H8S19887   2.156   2.216   9.561  0.0217 -0.0663 -3.1647
  175SOPE   C2919888   2.249   2.042   9.466 -0.3033 -0.8448 -0.2185
  175SOPE   H9119889   2.337   1.990   9.508 -1.0803 -1.0462  1.2387
  175SOPE  C21019890   2.223   2.029   9.337 -0.1821  0.1933  0.7682
  175SOPE  H10119891   2.304   1.992   9.272  2.1678  3.5751  1.5569
  175SOPE  C21119892   2.103   2.071   9.260  0.3927  0.0550 -0.8640
  175SOPE  H11R19893   2.148   2.150   9.196  0.0366  2.4637  1.6459
  175SOPE  H11S19894   2.028   2.113   9.331  0.1395 -3.5922  1.2754
  175SOPE  C21219895   2.040   1.952   9.176 -0.2958 -0.0476  0.0035
  175SOPE  H12R19896   2.021   1.856   9.228 -1.7951 -1.6420 -3.1559
  175SOPE  H12S19897   2.097   1.946   9.080 -0.5046 -2.4668 -0.0339
  175SOPE  C21319898   1.906   2.002   9.132 -0.2778  0.6245 -0.0825
  175SOPE  H13R19899   1.923   2.111   9.119  0.3830  0.3762 -1.4504
  175SOPE  H13S19900   1.827   1.978   9.207  1.4919 -1.1858  1.3248
  175SOPE  C21419901   1.872   1.946   8.992 -0.6062  0.0940 -0.1493
  175SOPE  H14R19902   1.872   1.836   9.005  0.1543  0.3467  2.6432
  175SOPE  H14S19903   1.956   1.971   8.924  0.1706  0.2102  0.8329
  175SOPE  C21519904   1.738   1.985   8.932 -0.3640 -0.5902  0.3574
  175SOPE  H15R19905   1.753   2.095   8.941  1.3317 -0.8024  0.4262
  175SOPE  H15S19906   1.668   1.959   9.014 -0.5746 -0.2694  0.2833
  175SOPE  C21619907   1.690   1.944   8.794 -0.0573  0.6368 -0.6665
  175SOPE  H16R19908   1.673   1.835   8.781  2.7482  0.3502 -3.2520
  175SOPE  H16S19909   1.783   1.954   8.733  0.9779 -2.6881  0.1245
  175SOPE  C21719910   1.585   2.037   8.745  0.1017 -0.8381 -0.4933
  175SOPE  H17R19911   1.608   2.140   8.780  1.5624 -1.6320  1.0452
  175SOPE  H17S19912   1.487   2.007   8.786 -0.0043 -2.1530 -1.6629
  175SOPE  C21819913   1.571   2.029   8.594 -0.2932  0.0208  1.0624
  175SOPE  H18R19914   1.495   1.959   8.554 -0.6367  1.1160 -0.2789
  175SOPE  H18S19915   1.664   2.019   8.535  1.1773  2.7763  2.6637
  175SOPE  H18T19916   1.541   2.127   8.550  2.2194 -0.9710 -3.5028
  175SOPE   C3319917   1.671   2.243   9.932  0.4160  0.0078  0.1363
  175SOPE   H3X19918   1.562   2.233   9.913  0.6456 -3.2013 -0.0765
  175SOPE   H3Y19919   1.700   2.139   9.954  0.0740 -0.2069 -0.3913
  175SOPE   C3419920   1.744   2.284   9.802  0.1376 -0.1197 -0.1468
  175SOPE   H4X19921   1.853   2.273   9.822  0.2462  1.4630  0.2791
  175SOPE   H4Y19922   1.726   2.392   9.783  0.6497  0.0415  0.2394
  175SOPE   C3519923   1.694   2.210   9.679 -0.0640  0.0057  0.5157
  175SOPE   H5X19924   1.587   2.229   9.655  0.0730  0.4654  0.2548
  175SOPE   H5Y19925   1.717   2.101   9.681  2.2128  0.2899 -2.5891
  175SOPE   C3619926   1.763   2.274   9.560 -0.8640 -0.1450  0.3375
  175SOPE   H6X19927   1.872   2.281   9.580 -0.9174 -1.2549  1.1335
  175SOPE   H6Y19928   1.736   2.381   9.550 -0.1614 -0.0153 -0.1797
  175SOPE   C3719929   1.730   2.199   9.430 -0.6153 -0.0241 -0.1613
  175SOPE   H7X19930   1.752   2.092   9.447  2.8982  0.6027  0.0962
  175SOPE   H7Y19931   1.809   2.227   9.357 -0.7893 -1.1537 -0.8058
  175SOPE   C3819932   1.596   2.231   9.369  0.3179 -0.3613 -1.1822
  175SOPE   H8X19933   1.579   2.341   9.362 -0.0542 -0.2921  0.4868
  175SOPE   H8Y19934   1.521   2.199   9.444  1.8121  1.3182  1.1657
  175SOPE   C3919935   1.586   2.163   9.231 -0.0987  0.6168  0.0364
  175SOPE   H9X19936   1.588   2.052   9.246  0.3463  0.2983 -2.1062
  175SOPE   H9Y19937   1.666   2.195   9.161  0.3828  0.6233  0.5835
  175SOPE  C31019938   1.454   2.197   9.169  0.4584 -0.0686 -1.1949
  175SOPE  H10X19939   1.427   2.305   9.176  0.2999 -0.1928  0.3956
  175SOPE  H10Y19940   1.380   2.142   9.230  0.0803  0.9697 -0.6879
  175SOPE  C31119941   1.451   2.160   9.016 -0.2812  0.1290 -0.5036
  175SOPE  H11X19942   1.463   2.051   9.000 -1.0821 -0.0078 -0.2204
  175SOPE  H11Y19943   1.533   2.225   8.981 -0.2492  0.4073  0.0822
  175SOPE  C31219944   1.323   2.211   8.951 -0.3757 -0.2949 -0.2146
  175SOPE  H12X19945   1.351   2.205   8.843 -0.6304  0.5918 -0.3397
  175SOPE  H12Y19946   1.310   2.320   8.968 -0.1747 -0.6331  2.3895
  175SOPE  C31319947   1.191   2.133   8.968  0.3634  0.1327  0.0190
  175SOPE  H13X19948   1.138   2.180   9.053  0.5716  0.2392  0.0900
  175SOPE  H13Y19949   1.220   2.029   8.994  0.0015  0.0099 -0.0599
  175SOPE  C31419950   1.100   2.128   8.844  0.3409  0.2485  0.2146
  175SOPE  H14X19951   1.146   2.062   8.767  0.9197  0.9261 -0.0379
  175SOPE  H14Y19952   1.094   2.234   8.810 -1.9646  0.1127  0.0497
  175SOPE  C31519953   0.957   2.074   8.869  0.2212 -0.0078  0.4720
  175SOPE  H15X19954   0.902   2.152   8.925  0.1908 -0.1267  0.6075
  175SOPE  H15Y19955   0.952   1.984   8.934 -1.8207  1.0223  1.8666
  175SOPE  C31619956   0.880   2.046   8.740  0.4472  0.5091  1.1045
  175SOPE  H16X19957   0.876   2.131   8.668  0.5183 -0.4655 -0.0853
  175SOPE  H16Y19958   0.775   2.038   8.774  0.5468 -0.7348  1.1651
  175SOPE  C31719959   0.923   1.918   8.656  0.8124  0.2687 -0.0382
  175SOPE  H17X19960   0.913   1.818   8.704 -0.6501 -0.3352 -1.5045
  175SOPE  H17Y19961   1.030   1.929   8.627  0.7838 -1.5955 -0.9580
  175SOPE  C31819962   0.830   1.914   8.537  0.1970 -0.4165  0.6051
  175SOPE  H18X19963   0.726   1.899   8.573 -0.0471 -0.4721 -0.0993
  175SOPE  H18Y19964   0.863   1.830   8.471 -1.4923  0.9840 -2.2371
  175SOPE  H18Z19965   0.833   2.014   8.488  0.8867  1.6563  4.4741
  176SOPE     N19966   0.757   2.054  11.149  0.3764  0.0839  0.6603
  176SOPE   HN119967   0.654   2.047  11.140  0.2998  1.7342 -0.1273
  176SOPE   HN219968   0.789   2.030  11.245  1.9638  1.9580  0.6643
  176SOPE   HN319969   0.802   2.147  11.135  1.6554 -0.8112 -1.6349
  176SOPE   C1219970   0.827   1.964  11.057 -0.0123 -0.2764 -0.3164
  176SOPE  H12A19971   0.785   1.968  10.955 -0.6059  1.7683 -0.0454
  176SOPE  H12B19972   0.826   1.857  11.086 -0.0981 -0.3285 -0.5163
  176SOPE   C1119973   0.973   2.010  11.047  0.1185  0.4491  0.3517
  176SOPE  H11A19974   1.028   1.921  11.008 -0.4298 -0.1901  1.0205
  176SOPE  H11B19975   1.012   2.027  11.150  0.5254 -2.0745  0.6845
  176SOPE     P19976   1.136   2.154  10.905  0.0094 -0.0972 -0.2154
  176SOPE   O1319977   1.170   2.057  10.802 -0.0552  0.1976  0.1574
  176SOPE   O1419978   1.226   2.160  11.022 -0.3441 -0.1419  0.4745
  176SOPE   O1219979   0.993   2.120  10.960 -0.1044  0.0802  0.5286
  176SOPE   O1119980   1.142   2.294  10.843  0.2370 -0.0781  0.6078
  176SOPE    C119981   1.021   2.356  10.801  0.1060  0.4801  0.1566
  176SOPE    HA19982   1.022   2.461  10.837  0.8768  2.1177 -4.0135
  176SOPE    HB19983   0.926   2.312  10.839 -0.5040  1.9650  0.4009
  176SOPE    C219984   1.024   2.369  10.648 -0.1029  0.4838  0.5805
  176SOPE    HS19985   0.947   2.438  10.607  0.2719  0.2628 -0.5347
  176SOPE   O2119986   1.003   2.242  10.584 -0.0419 -0.3362  0.3332
  176SOPE   C2119987   0.885   2.186  10.607 -0.2357 -0.3723  0.8129
  176SOPE   O2219988   0.780   2.241  10.621  0.0843 -0.5285 -0.3304
  176SOPE   C2219989   0.896   2.034  10.612 -0.1848  0.0328  0.2504
  176SOPE   H2R19990   0.891   2.008  10.720  0.6774  0.5049  0.4135
  176SOPE   H2S19991   1.003   2.014  10.590 -0.7010 -1.9216 -0.6622
  176SOPE    C319992   1.163   2.425  10.597  0.4136  0.3436  0.2000
  176SOPE    HX19993   1.238   2.346  10.619  0.9344  0.3227 -1.5420
  176SOPE    HY19994   1.176   2.518  10.656 -2.5486  1.3278 -0.5025
  176SOPE   O3119995   1.154   2.471  10.465  0.5561 -0.5215 -0.8650
  176SOPE   C3119996   1.192   2.393  10.372  0.3854 -0.6348  0.9208
  176SOPE   O3219997   1.237   2.282  10.390 -0.7113  0.1410  0.0169
  176SOPE   C3219998   1.173   2.458  10.230 -0.3526  0.5767 -0.5106
  176SOPE   H2X19999   1.257   2.530  10.232  0.5102 -0.4250  0.7582
  176SOPE   H2Y20000   1.077   2.514  10.217 -0.6928  0.0647 -0.2326
  176SOPE   C2320001   0.803   1.951  10.526  0.4227 -0.0127 -0.5376
  176SOPE   H3R20002   0.695   1.978  10.526  0.5723  1.5420 -5.1924
  176SOPE   H3S20003   0.805   1.852  10.577 -0.5300  1.2571  2.1255
  176SOPE   C2420004   0.862   1.931  10.385 -0.1157  0.7881 -0.4469
  176SOPE   H4R20005   0.973   1.935  10.389 -0.1464  0.5319  1.7774
  176SOPE   H4S20006   0.824   1.830  10.357  0.7437  0.1020  0.7499
  176SOPE   C2520007   0.823   2.035  10.283  0.2417  0.1281  0.8023
  176SOPE   H5R20008   0.714   2.044  10.266 -0.2531 -5.4474 -1.2290
  176SOPE   H5S20009   0.858   2.133  10.322  0.7168  0.4851 -0.4665
  176SOPE   C2620010   0.895   2.008  10.154 -0.3902 -0.1986  0.2007
  176SOPE   H6R20011   1.004   2.022  10.171  0.1561 -3.2598 -0.2119
  176SOPE   H6S20012   0.888   1.899  10.131 -0.8104 -0.1316  0.0057
  176SOPE   C2720013   0.840   2.091  10.033 -0.5361  0.6977 -0.5492
  176SOPE   H7R20014   0.738   2.055  10.008 -0.7130  0.3692  0.5740
  176SOPE   H7S20015   0.824   2.197  10.065 -0.4971  0.0460  1.7992
  176SOPE   C2820016   0.928   2.076   9.907 -0.0403 -0.2708 -0.2117
  176SOPE   H8R20017   0.896   2.150   9.830  2.6978  1.6079  0.3423
  176SOPE   H8S20018   1.027   2.111   9.943 -1.4908  3.1656  0.8901
  176SOPE   C2920019   0.933   1.941   9.853 -0.7066  0.0899  0.2186
  176SOPE   H9120020   1.015   1.875   9.886  0.5551  0.7924 -1.3836
  176SOPE  C21020021   0.866   1.911   9.733  0.3562  0.2986 -0.0453
  176SOPE  H10120022   0.882   1.812   9.687  0.2322 -0.3059  1.1776
  176SOPE  C21120023   0.766   1.995   9.649  0.2413  0.1336 -0.0466
  176SOPE  H11R20024   0.708   2.054   9.724 -0.4694 -1.5862  0.8347
  176SOPE  H11S20025   0.691   1.927   9.604 -0.9037  0.8710  0.6687
  176SOPE  C21220026   0.846   2.080   9.555  0.5035  0.3330 -1.2056
  176SOPE  H12R20027   0.931   2.019   9.518  1.2441  0.3353  0.3768
  176SOPE  H12S20028   0.902   2.153   9.618 -0.1466  0.7735 -1.1263
  176SOPE  C21320029   0.769   2.155   9.446 -0.0360  0.2156 -0.1089
  176SOPE  H13R20030   0.834   2.228   9.394 -1.3688  1.0449 -0.6752
  176SOPE  H13S20031   0.685   2.209   9.495 -0.7596 -0.6430 -0.3819
  176SOPE  C21420032   0.702   2.061   9.333 -0.6540  0.0425 -0.6180
  176SOPE  H14R20033   0.629   2.003   9.392 -0.0035 -1.3131 -1.1080
  176SOPE  H14S20034   0.779   1.993   9.291 -1.7007 -0.0689 -2.4542
  176SOPE  C21520035   0.649   2.136   9.211  0.5149  0.3579 -0.3792
  176SOPE  H15R20036   0.732   2.199   9.173  1.3709  0.0047  0.8585
  176SOPE  H15S20037   0.565   2.200   9.246 -0.1475 -0.6737 -0.0104
  176SOPE  C21620038   0.596   2.040   9.106 -0.1089  0.0329  0.5791
  176SOPE  H16R20039   0.534   1.960   9.150  0.9167 -0.6649  0.8015
  176SOPE  H16S20040   0.671   1.982   9.048  0.5934 -1.4070  2.7741
  176SOPE  C21720041   0.501   2.111   9.000 -0.1319 -0.0649 -0.2685
  176SOPE  H17R20042   0.569   2.165   8.932  1.3610 -0.1081  1.1377
  176SOPE  H17S20043   0.431   2.181   9.051 -2.8995 -1.6301 -1.6507
  176SOPE  C21820044   0.420   2.001   8.928  0.4378 -0.3309  0.1595
  176SOPE  H18R20045   0.348   2.037   8.852  1.2274  0.1479 -0.3737
  176SOPE  H18S20046   0.366   1.944   9.007  0.1580  0.1812  0.3439
  176SOPE  H18T20047   0.486   1.925   8.881 -2.0479 -2.1020 -0.6727
  176SOPE   C3320048   1.201   2.364  10.111  0.1672 -0.2320  0.2049
  176SOPE   H3X20049   1.142   2.271  10.127 -0.3233 -0.3028 -1.8125
  176SOPE   H3Y20050   1.309   2.342  10.126  0.2658  1.2548  2.0311
  176SOPE   C3420051   1.189   2.429   9.973 -0.0615  0.0623  0.3226
  176SOPE   H4X20052   1.242   2.524   9.953 -1.5129  0.3994 -2.4835
  176SOPE   H4Y20053   1.084   2.436   9.938  0.3604 -1.8003 -1.5023
  176SOPE   C3520054   1.238   2.325   9.863  0.2378 -0.0354  0.0141
  176SOPE   H5X20055   1.176   2.234   9.871  1.8571 -1.1149  0.7675
  176SOPE   H5Y20056   1.342   2.301   9.894  0.7082 -1.0336 -2.1539
  176SOPE   C3620057   1.219   2.381   9.719 -0.1559 -0.2557  0.2747
  176SOPE   H6X20058   1.277   2.475   9.705 -0.7627 -0.0530 -1.0350
  176SOPE   H6Y20059   1.110   2.398   9.709 -0.1190 -0.4193 -0.4487
  176SOPE   C3720060   1.261   2.285   9.613 -0.5046 -0.8741 -0.0776
  176SOPE   H7X20061   1.216   2.184   9.623 -0.0537 -1.0043  0.7295
  176SOPE   H7Y20062   1.371   2.269   9.612 -0.5694 -1.7031 -2.7245
  176SOPE   C3820063   1.230   2.321   9.466  0.3930  0.2232  0.2065
  176SOPE   H8X20064   1.134   2.278   9.431  1.2009 -3.1812  1.7746
  176SOPE   H8Y20065   1.293   2.252   9.406  1.2579 -0.6216  2.0056
  176SOPE   C3920066   1.255   2.463   9.416 -0.3783 -0.2619  0.2942
  176SOPE   H9X20067   1.366   2.475   9.415 -0.2929 -1.0481  0.1813
  176SOPE   H9Y20068   1.214   2.541   9.484 -0.0302  0.8502 -0.7336
  176SOPE  C31020069   1.199   2.474   9.271  0.3478 -0.0863  0.2735
  176SOPE  H10X20070   1.090   2.483   9.286  0.5632  2.1165  0.8894
  176SOPE  H10Y20071   1.208   2.382   9.210 -0.8852  0.2465 -0.4217
  176SOPE  C31120072   1.258   2.592   9.181  0.4351  1.3850 -0.4097
  176SOPE  H11X20073   1.368   2.581   9.165  0.1979  1.5677 -2.3863
  176SOPE  H11Y20074   1.242   2.693   9.223  0.2251  1.1788  0.0110
  176SOPE  C31220075   1.180   2.585   9.054  0.0936  0.5110  0.6924
  176SOPE  H12X20076   1.083   2.636   9.066  0.0962  0.2424  2.0518
  176SOPE  H12Y20077   1.157   2.482   9.019  1.1028  0.5925 -0.2652
  176SOPE  C31320078   1.263   2.659   8.943 -0.1659  0.0418 -0.0327
  176SOPE  H13X20079   1.343   2.588   8.914  0.4290  1.8116 -3.1610
  176SOPE  H13Y20080   1.304   2.747   8.997  0.3771 -0.0423 -0.3015
  176SOPE  C31420081   1.189   2.705   8.813 -0.0539  0.4841  0.3335
  176SOPE  H14X20082   1.182   2.816   8.809 -1.1475  0.3922 -2.5726
  176SOPE  H14Y20083   1.084   2.669   8.819  0.2106 -0.2636  0.5970
  176SOPE  C31520084   1.263   2.647   8.687 -0.7718  0.1382  0.2124
  176SOPE  H15X20085   1.370   2.677   8.693 -0.8154  0.3682 -0.0892
  176SOPE  H15Y20086   1.228   2.692   8.591  2.7311  0.3427 -1.1035
  176SOPE  C31620087   1.247   2.495   8.673 -0.6039 -0.4902 -0.0468
  176SOPE  H16X20088   1.138   2.477   8.678 -0.7175  0.4304  1.2723
  176SOPE  H16Y20089   1.288   2.440   8.760  1.0729  0.3918 -0.2297
  176SOPE  C31720090   1.313   2.445   8.553 -0.5524  0.6157  0.0130
  176SOPE  H17X20091   1.419   2.480   8.557 -1.0931  2.3457 -0.0334
  176SOPE  H17Y20092   1.277   2.493   8.460 -0.9110  2.0798  0.8751
  176SOPE  C31820093   1.313   2.294   8.532 -0.2058 -0.2455  0.0963
  176SOPE  H18X20094   1.220   2.239   8.503 -0.2856  0.1530 -0.4166
  176SOPE  H18Y20095   1.356   2.240   8.620  0.1165 -0.9386 -0.4793
  176SOPE  H18Z20096   1.377   2.264   8.447  0.3341  3.0422 -0.7768
  177SOPE     N20097   0.043   1.148  11.176 -0.4146 -0.5598 -0.1287
  177SOPE   HN120098  -0.026   1.087  11.129 -1.2516 -1.3050  1.9496
  177SOPE   HN220099   0.032   1.181  11.275  1.9969  3.0020 -0.8522
  177SOPE   HN320100   0.035   1.233  11.117  1.3062  0.3680  0.8801
  177SOPE   C1220101   0.180   1.092  11.143  0.5027 -0.0368  0.4430
  177SOPE  H12A20102   0.202   1.027  11.231 -1.2570 -0.0818  0.8829
  177SOPE  H12B20103   0.253   1.174  11.124  1.1923 -1.0842 -1.9099
  177SOPE   C1120104   0.176   1.009  11.009  0.0948 -0.7785 -0.3608
  177SOPE  H11A20105   0.279   0.966  11.003 -0.2018 -2.5009  3.6048
  177SOPE  H11B20106   0.145   1.061  10.916 -0.1748 -0.9548 -0.3700
  177SOPE     P20107   0.091   0.751  10.960  0.2189 -0.1751  0.0127
  177SOPE   O1320108  -0.052   0.728  10.933 -0.3713 -0.2093 -0.0328
  177SOPE   O1420109   0.159   0.650  11.046 -0.0489  0.9867 -0.3113
  177SOPE   O1220110   0.092   0.898  11.032 -0.1060 -0.0855 -0.1114
  177SOPE   O1120111   0.171   0.758  10.828  0.7915  0.0239  0.2777
  177SOPE    C120112   0.164   0.855  10.724 -0.5816  0.0498  0.1518
  177SOPE    HA20113   0.253   0.921  10.733  0.6395 -1.6529  1.1695
  177SOPE    HB20114   0.076   0.922  10.726 -0.2269  0.5762 -0.9691
  177SOPE    C220115   0.167   0.781  10.590  0.2231  0.2010 -0.0771
  177SOPE    HS20116   0.156   0.852  10.506  0.7467 -0.3169 -0.5878
  177SOPE   O2120117   0.062   0.682  10.580 -0.2329  0.4781  0.1585
  177SOPE   C2120118  -0.062   0.728  10.574  0.6293  0.0199 -0.3981
  177SOPE   O2220119  -0.088   0.849  10.558  0.3876 -0.1480 -0.2447
  177SOPE   C2220120  -0.160   0.613  10.590  0.1292 -0.0044  0.0426
  177SOPE   H2R20121  -0.171   0.589  10.697 -3.6851 -0.6622 -0.3553
  177SOPE   H2S20122  -0.121   0.523  10.538 -1.6177 -1.4721  1.1705
  177SOPE    C320123   0.303   0.709  10.578  0.6197  0.2679  0.0590
  177SOPE    HX20124   0.322   0.657  10.674 -0.4928  2.1068  1.3352
  177SOPE    HY20125   0.380   0.789  10.579  0.8443  0.0536  1.1286
  177SOPE   O3120126   0.308   0.630  10.460  0.0791  0.3134  0.0019
  177SOPE   C3120127   0.371   0.517  10.463  0.4337 -0.3869 -0.0905
  177SOPE   O3220128   0.428   0.472  10.563  0.1628  0.3594  0.7380
  177SOPE   C3220129   0.364   0.451  10.328 -0.1393  0.0886 -0.2640
  177SOPE   H2X20130   0.328   0.346  10.320 -2.8357  1.0279 -1.7998
  177SOPE   H2Y20131   0.468   0.448  10.288  0.9222  1.2625  2.2286
  177SOPE   C2320132  -0.301   0.639  10.536  0.0077 -0.3904  0.0357
  177SOPE   H3R20133  -0.362   0.710  10.596 -1.0826 -0.1324 -1.3261
  177SOPE   H3S20134  -0.350   0.542  10.555 -2.2245  0.6653  0.0083
  177SOPE   C2420135  -0.326   0.666  10.382  0.6008  1.0584  0.2903
  177SOPE   H4R20136  -0.432   0.685  10.357  1.0220  1.7709 -1.0777
  177SOPE   H4S20137  -0.271   0.760  10.355 -0.5143  1.4779 -0.5937
  177SOPE   C2520138  -0.290   0.554  10.293 -0.3490  0.3932 -0.2956
  177SOPE   H5R20139  -0.183   0.533  10.313 -0.5640 -0.4604 -0.0111
  177SOPE   H5S20140  -0.354   0.468  10.320 -0.0580  1.1611  3.3507
  177SOPE   C2620141  -0.300   0.579  10.147 -0.5289  0.0522 -0.0288
  177SOPE   H6R20142  -0.269   0.482  10.102  0.0742  0.2884 -0.1386
  177SOPE   H6S20143  -0.406   0.592  10.117 -0.3278 -1.3074 -1.4770
  177SOPE   C2720144  -0.224   0.702  10.085 -0.3820 -0.1195 -0.4340
  177SOPE   H7R20145  -0.292   0.789  10.097  0.5656  0.7956 -1.3363
  177SOPE   H7S20146  -0.134   0.725  10.146 -0.5363 -3.2935  1.1783
  177SOPE   C2820147  -0.179   0.679   9.939  0.1373  0.6210  0.1938
  177SOPE   H8R20148  -0.107   0.759   9.912  0.2225  1.0882  1.7416
  177SOPE   H8S20149  -0.128   0.581   9.933  0.0731  0.6757 -2.2560
  177SOPE   C2920150  -0.301   0.669   9.848 -0.0182  0.1353 -0.2860
  177SOPE   H9120151  -0.399   0.697   9.887  1.0557  3.7229  0.2270
  177SOPE  C21020152  -0.299   0.632   9.721 -1.2799 -0.5541 -0.0348
  177SOPE  H10120153  -0.394   0.622   9.667 -0.9079 -1.3888 -0.5542
  177SOPE  C21120154  -0.169   0.602   9.652  0.2339  0.6420 -0.7770
  177SOPE  H11R20155  -0.121   0.514   9.700 -1.6438 -0.4275 -0.7381
  177SOPE  H11S20156  -0.092   0.681   9.667  0.3162  0.6987 -1.4681
  177SOPE  C21220157  -0.186   0.556   9.507 -0.0395 -0.9233 -0.3844
  177SOPE  H12R20158  -0.222   0.451   9.494 -1.9266 -0.7013  2.2333
  177SOPE  H12S20159  -0.083   0.557   9.464  0.8699  0.0329  1.6526
  177SOPE  C21320160  -0.268   0.646   9.417 -0.1661  0.4551  0.0433
  177SOPE  H13R20161  -0.247   0.750   9.448 -0.4741  0.8242 -0.9377
  177SOPE  H13S20162  -0.374   0.622   9.440 -0.1672  0.7135  0.3049
  177SOPE  C21420163  -0.240   0.624   9.264 -0.4187  0.1670  0.4802
  177SOPE  H14R20164  -0.267   0.518   9.243  2.0001 -0.8432  2.0513
  177SOPE  H14S20165  -0.134   0.642   9.236 -1.0711  0.2522 -2.2148
  177SOPE  C21520166  -0.320   0.721   9.170  0.1389  0.6599  0.1647
  177SOPE  H15R20167  -0.273   0.822   9.171 -2.1703  1.8151  0.2748
  177SOPE  H15S20168  -0.422   0.736   9.212  0.0255  3.0062 -0.7790
  177SOPE  C21620169  -0.320   0.666   9.028  0.3431  0.1765 -0.2451
  177SOPE  H16R20170  -0.360   0.563   9.018  2.2033 -0.3769 -3.7377
  177SOPE  H16S20171  -0.214   0.656   8.996 -0.1427  0.4588 -2.0652
  177SOPE  C21720172  -0.396   0.754   8.929  0.1217 -0.0506 -0.8344
  177SOPE  H17R20173  -0.379   0.863   8.943 -1.3104 -0.0416  1.3869
  177SOPE  H17S20174  -0.504   0.735   8.948 -0.4880  0.6335 -3.2440
  177SOPE  C21820175  -0.360   0.706   8.788  0.1685  0.2710 -0.0024
  177SOPE  H18R20176  -0.401   0.784   8.721  3.5445  1.9003 -0.3863
  177SOPE  H18S20177  -0.397   0.603   8.772 -1.0714  0.5765  0.7520
  177SOPE  H18T20178  -0.249   0.703   8.780  0.0983  0.3062 -1.0399
  177SOPE   C3320179   0.277   0.526  10.216 -0.4496  0.1389 -0.8846
  177SOPE   H3X20180   0.318   0.629  10.212  2.9114 -1.0908 -0.9898
  177SOPE   H3Y20181   0.167   0.524  10.233 -0.4026 -2.5230 -0.4810
  177SOPE   C3420182   0.312   0.468  10.082  0.4973 -0.0761  0.6011
  177SOPE   H4X20183   0.260   0.372  10.063  0.8479 -0.1884  0.2089
  177SOPE   H4Y20184   0.418   0.440  10.070  0.2984 -0.7125  0.3090
  177SOPE   C3520185   0.259   0.566   9.965  0.4157  0.2104  0.2300
  177SOPE   H5X20186   0.327   0.654   9.963  0.9777 -0.2277 -0.5897
  177SOPE   H5Y20187   0.156   0.603   9.984  0.2611 -0.5975  1.0646
  177SOPE   C3620188   0.267   0.498   9.831 -0.6681 -0.1897 -0.0342
  177SOPE   H6X20189   0.213   0.402   9.841 -2.0921  0.6731  0.8992
  177SOPE   H6Y20190   0.371   0.461   9.815 -0.6736  0.1732 -0.9825
  177SOPE   C3720191   0.227   0.590   9.709 -0.3027  0.0942 -0.5895
  177SOPE   H7X20192   0.297   0.676   9.707  0.3729 -0.4435 -0.4172
  177SOPE   H7Y20193   0.129   0.640   9.718  0.0237  0.5183  0.7696
  177SOPE   C3820194   0.241   0.504   9.585  0.1744  0.0813  0.1332
  177SOPE   H8X20195   0.166   0.422   9.584 -0.6134  0.7803 -0.0814
  177SOPE   H8Y20196   0.335   0.446   9.583  0.4690  0.3613  2.8478
  177SOPE   C3920197   0.230   0.597   9.459 -0.4318  1.1639  1.0753
  177SOPE   H9X20198   0.313   0.666   9.436  0.7725 -0.5370  0.0871
  177SOPE   H9Y20199   0.135   0.655   9.463  0.7472  3.3026 -0.2785
  177SOPE  C31020200   0.218   0.503   9.338 -0.0038  0.1875  0.5249
  177SOPE  H10X20201   0.136   0.431   9.359  0.3277  0.1086  1.6339
  177SOPE  H10Y20202   0.307   0.437   9.325  0.2320  0.7939 -1.0577
  177SOPE  C31120203   0.194   0.573   9.208 -0.1547  0.4821 -0.3126
  177SOPE  H11X20204   0.266   0.657   9.195  0.7954 -0.4567 -1.3373
  177SOPE  H11Y20205   0.087   0.601   9.199 -0.8353 -1.8806 -0.3135
  177SOPE  C31220206   0.207   0.479   9.082  0.3636  0.2510 -0.0165
  177SOPE  H12X20207   0.147   0.386   9.092 -1.9314  1.3975 -2.0243
  177SOPE  H12Y20208   0.314   0.453   9.067  0.7417  0.8591  1.4553
  177SOPE  C31320209   0.156   0.559   8.961 -0.4049  0.1202  0.0927
  177SOPE  H13X20210   0.210   0.656   8.969  0.8794 -0.6681  1.4989
  177SOPE  H13Y20211   0.046   0.555   8.975 -0.6503 -1.0033 -1.7805
  177SOPE  C31420212   0.191   0.498   8.826 -0.7552 -0.4180 -0.1531
  177SOPE  H14X20213   0.119   0.414   8.813 -0.4807 -0.4666 -1.4381
  177SOPE  H14Y20214   0.293   0.455   8.833  0.2856  2.1093  1.1063
  177SOPE  C31520215   0.177   0.581   8.703 -0.0386 -0.1720 -0.1560
  177SOPE  H15X20216   0.079   0.631   8.692  0.2728  0.8107  1.2818
  177SOPE  H15Y20217   0.191   0.517   8.613 -0.0091  0.0566 -0.3177
  177SOPE  C31620218   0.278   0.689   8.692 -0.4970 -0.9855  0.1140
  177SOPE  H16X20219   0.379   0.650   8.716 -0.0870 -0.1930 -0.2659
  177SOPE  H16Y20220   0.257   0.770   8.766 -0.7781 -1.5394  0.6482
  177SOPE  C31720221   0.294   0.768   8.559  0.1026 -0.2597 -0.0125
  177SOPE  H17X20222   0.220   0.850   8.547  0.0079 -0.1756  1.0303
  177SOPE  H17Y20223   0.265   0.695   8.480  0.0072 -0.0191 -0.2020
  177SOPE  C31820224   0.432   0.820   8.544 -0.0086  0.9331 -0.2856
  177SOPE  H18X20225   0.506   0.740   8.566 -1.4693 -0.5816 -0.6495
  177SOPE  H18Y20226   0.456   0.896   8.621  0.4492 -0.3282  0.8643
  177SOPE  H18Z20227   0.461   0.860   8.445 -0.8148 -0.7119 -1.2336
  178SOPE     N20228   3.903   6.111  10.743  0.3598  0.0576 -0.0943
  178SOPE   HN120229   3.851   6.173  10.677  1.1765 -0.6949 -1.4803
  178SOPE   HN220230   3.833   6.063  10.803 -0.0869 -0.1018 -0.7389
  178SOPE   HN320231   3.964   6.169  10.804 -0.7706  0.8477  0.3210
  178SOPE   C1220232   3.973   6.012  10.654 -0.1903  0.2760 -0.0986
  178SOPE  H12A20233   4.066   6.056  10.613 -0.2575 -0.2185 -0.8078
  178SOPE  H12B20234   3.913   5.983  10.565  0.9044 -0.1996 -0.7039
  178SOPE   C1120235   4.001   5.889  10.731  0.3201 -0.2146 -0.2846
  178SOPE  H11A20236   4.059   5.914  10.822 -0.8691 -1.3476  0.8358
  178SOPE  H11B20237   4.065   5.820  10.671  0.0981 -0.9340  0.2857
  178SOPE     P20238   3.892   5.685  10.851  0.1975  0.1472 -0.4752
  178SOPE   O1320239   3.763   5.650  10.914  0.0052 -0.2682 -0.5422
  178SOPE   O1420240   4.013   5.686  10.939  0.2868 -0.5815 -0.4959
  178SOPE   O1220241   3.884   5.820  10.774 -0.4147 -0.0093  0.1783
  178SOPE   O1120242   3.918   5.574  10.735 -0.0482 -0.0332  0.5119
  178SOPE    C120243   3.824   5.558  10.628  0.9561 -0.0689 -0.0920
  178SOPE    HA20244   3.721   5.569  10.668  0.7485 -0.0217 -0.6428
  178SOPE    HB20245   3.821   5.457  10.584  0.2213  0.6125 -1.6864
  178SOPE    C220246   3.855   5.648  10.503 -0.0263  0.4121 -0.1167
  178SOPE    HS20247   3.838   5.755  10.530  0.8392  0.1331  1.6389
  178SOPE   O2120248   3.771   5.603  10.397 -0.5063 -0.3968  0.4047
  178SOPE   C2120249   3.660   5.666  10.389  0.2648  0.6221  0.1096
  178SOPE   O2220250   3.612   5.746  10.469 -1.1400  0.7975 -0.3811
  178SOPE   C2220251   3.589   5.618  10.257  0.4524  0.1722 -0.7010
  178SOPE   H2R20252   3.500   5.561  10.291  1.5134 -1.8220 -1.1178
  178SOPE   H2S20253   3.646   5.539  10.203  0.9161  0.7636 -1.0867
  178SOPE    C320254   4.000   5.629  10.455 -0.4928 -0.4762 -0.0415
  178SOPE    HX20255   4.018   5.520  10.450 -0.4184 -0.4310 -2.9568
  178SOPE    HY20256   4.074   5.680  10.520 -0.2539 -0.2590 -0.4746
  178SOPE   O3120257   4.031   5.667  10.313 -0.1354  0.0855  0.3942
  178SOPE   C3120258   4.023   5.794  10.288  0.4386 -0.2172 -0.1271
  178SOPE   O3220259   4.009   5.877  10.375 -0.1220 -0.4519 -0.0472
  178SOPE   C3220260   4.050   5.815  10.136 -0.5029 -0.0649  0.4699
  178SOPE   H2X20261   4.124   5.897  10.126 -1.5050  1.0575  1.8872
  178SOPE   H2Y20262   3.959   5.860  10.089  0.7861  1.4479 -0.7091
  178SOPE   C2320263   3.580   5.737  10.160 -0.4067  0.0441  0.6479
  178SOPE   H3R20264   3.677   5.778  10.124 -0.4294  1.1244  1.7169
  178SOPE   H3S20265   3.540   5.828  10.210  0.8192  2.2647 -2.1391
  178SOPE   C2420266   3.485   5.698  10.043  0.4342  0.5541 -0.0251
  178SOPE   H4R20267   3.390   5.674  10.095  1.3212 -1.1869  0.8504
  178SOPE   H4S20268   3.472   5.778   9.966  0.4458  2.2852  1.6860
  178SOPE   C2520269   3.533   5.584   9.952  0.0189  0.4382 -0.0307
  178SOPE   H5R20270   3.630   5.605   9.903  0.8902  0.5320  1.6696
  178SOPE   H5S20271   3.546   5.488  10.007  0.4217 -0.6587 -1.9158
  178SOPE   C2620272   3.424   5.559   9.844  0.3583 -0.2960  0.4812
  178SOPE   H6R20273   3.396   5.654   9.794 -0.0365 -0.5269  0.2601
  178SOPE   H6S20274   3.457   5.499   9.756  0.2485  1.4497 -0.8008
  178SOPE   C2720275   3.297   5.495   9.911  0.1341  0.0452  0.7663
  178SOPE   H7R20276   3.326   5.393   9.943 -1.7713 -0.4960  0.8791
  178SOPE   H7S20277   3.262   5.555   9.997 -1.5712 -0.7482  0.6600
  178SOPE   C2820278   3.180   5.481   9.805 -0.5608  0.5604 -0.3517
  178SOPE   H8R20279   3.084   5.460   9.857 -0.2352 -3.0996 -0.9255
  178SOPE   H8S20280   3.178   5.572   9.741 -0.2236  2.2147  1.8610
  178SOPE   C2920281   3.198   5.359   9.709 -0.4836  0.3442 -0.1158
  178SOPE   H9120282   3.201   5.262   9.761 -2.1998 -1.9601 -3.9275
  178SOPE  C21020283   3.212   5.352   9.578  0.5005  0.0499  0.4197
  178SOPE  H10120284   3.221   5.254   9.530 -2.0832  1.4557 -3.4029
  178SOPE  C21120285   3.215   5.468   9.491  0.0439  0.2168 -0.3147
  178SOPE  H11R20286   3.322   5.473   9.462 -0.3288 -1.7745 -2.3311
  178SOPE  H11S20287   3.183   5.563   9.539  1.0185  1.0220 -1.1795
  178SOPE  C21220288   3.138   5.451   9.362  0.0163 -0.1461  0.3035
  178SOPE  H12R20289   3.105   5.551   9.325 -1.4962  0.5284  3.1419
  178SOPE  H12S20290   3.041   5.408   9.395  0.1348  0.3324  1.3300
  178SOPE  C21320291   3.211   5.370   9.265 -0.1933  0.6472  0.1638
  178SOPE  H13R20292   3.206   5.260   9.280  1.8743  0.2148 -1.8050
  178SOPE  H13S20293   3.318   5.396   9.254  0.0973 -0.6282 -0.1259
  178SOPE  C21420294   3.153   5.399   9.128  0.0613  0.5737  0.3970
  178SOPE  H14R20295   3.152   5.505   9.097  2.8482  0.4499 -0.3358
  178SOPE  H14S20296   3.047   5.365   9.139  0.6938 -0.7818  3.2202
  178SOPE  C21520297   3.212   5.315   9.017 -0.4777  0.4387 -0.3316
  178SOPE  H15R20298   3.226   5.211   9.051 -1.5742  0.0664 -0.9666
  178SOPE  H15S20299   3.315   5.355   8.999 -1.3706  3.1687  0.1377
  178SOPE  C21620300   3.135   5.324   8.884 -0.6432  0.5019 -0.1079
  178SOPE  H16R20301   3.116   5.430   8.856 -0.2602  0.9404  1.2360
  178SOPE  H16S20302   3.043   5.262   8.886  1.6940 -3.2558  2.1156
  178SOPE  C21720303   3.218   5.247   8.771  0.5173 -0.8410 -0.4684
  178SOPE  H17R20304   3.308   5.309   8.749  0.6119  0.0035  1.9357
  178SOPE  H17S20305   3.156   5.254   8.680 -0.0781  1.4848  0.0293
  178SOPE  C21820306   3.261   5.103   8.794  0.0070  0.3916  0.2463
  178SOPE  H18R20307   3.320   5.068   8.707  0.2527  0.2236  0.4794
  178SOPE  H18S20308   3.169   5.043   8.806 -1.6524  3.1248  2.5618
  178SOPE  H18T20309   3.336   5.096   8.876 -1.9447 -0.3778  2.0600
  178SOPE   C3320310   4.095   5.685  10.069 -0.1558 -0.5082  0.5353
  178SOPE   H3X20311   4.011   5.613  10.074 -2.2429  1.8066  1.0541
  178SOPE   H3Y20312   4.182   5.653  10.130  0.7799 -2.0462 -1.4878
  178SOPE   C3420313   4.124   5.705   9.912  0.0186 -0.3591  0.1536
  178SOPE   H4X20314   4.184   5.797   9.894  0.2201 -0.6798 -0.8732
  178SOPE   H4Y20315   4.026   5.713   9.859  0.0672  1.0299  0.2227
  178SOPE   C3520316   4.203   5.586   9.862  0.4345  0.2676 -0.5923
  178SOPE   H5X20317   4.145   5.491   9.866 -0.1701  0.6457 -0.1949
  178SOPE   H5Y20318   4.291   5.576   9.930 -0.5525  1.4001  0.9157
  178SOPE   C3620319   4.264   5.607   9.724 -0.1656  0.0403  0.1380
  178SOPE   H6X20320   4.357   5.547   9.718  0.8206  1.4298  1.0793
  178SOPE   H6Y20321   4.293   5.714   9.721 -0.9341  0.2469 -0.0680
  178SOPE   C3720322   4.163   5.568   9.623  0.5403  0.5194 -0.3858
  178SOPE   H7X20323   4.071   5.627   9.639  0.5236  0.2471  0.6311
  178SOPE   H7Y20324   4.145   5.460   9.644  1.5171  0.3852 -0.1726
  178SOPE   C3820325   4.212   5.574   9.474 -0.1600 -0.6993 -0.0513
  178SOPE   H8X20326   4.306   5.515   9.477  0.2823 -0.1274 -1.6751
  178SOPE   H8Y20327   4.233   5.677   9.439  2.9595 -2.0278 -2.5691
  178SOPE   C3920328   4.119   5.506   9.376 -0.3530 -0.3604 -0.6356
  178SOPE   H9X20329   4.017   5.499   9.421 -0.3692  0.9739 -0.4391
  178SOPE   H9Y20330   4.168   5.409   9.351  0.1792  0.2062 -1.8537
  178SOPE  C31020331   4.084   5.585   9.248 -0.4714 -0.3794  0.3699
  178SOPE  H10X20332   4.174   5.593   9.184 -0.4077 -0.3248  0.4658
  178SOPE  H10Y20333   4.041   5.684   9.276  1.0525  1.0403 -1.9819
  178SOPE  C31120334   3.966   5.519   9.177 -0.2175  0.0957 -0.3462
  178SOPE  H11X20335   3.945   5.568   9.080 -1.2098  0.8598  0.2439
  178SOPE  H11Y20336   3.877   5.543   9.239  0.6590  1.2639  0.5099
  178SOPE  C31220337   3.975   5.370   9.170  0.2122 -0.1307  0.2556
  178SOPE  H12X20338   3.938   5.318   9.261 -2.4749  2.3865  0.7665
  178SOPE  H12Y20339   4.080   5.337   9.158  0.2873 -0.3517  1.4040
  178SOPE  C31320340   3.892   5.300   9.061  0.4042  0.1760 -0.4487
  178SOPE  H13X20341   3.907   5.191   9.073  1.2763  0.4440  1.1655
  178SOPE  H13Y20342   3.933   5.321   8.960  0.2949 -1.5694 -0.8899
  178SOPE  C31420343   3.737   5.335   9.065  0.0838 -0.3503  1.0883
  178SOPE  H14X20344   3.733   5.443   9.041  0.9892 -0.4577  0.3908
  178SOPE  H14Y20345   3.712   5.320   9.172 -2.0149 -0.1529  0.6713
  178SOPE  C31520346   3.652   5.254   8.972 -0.2628 -0.2176 -0.3970
  178SOPE  H15X20347   3.556   5.311   8.972 -0.6329 -0.7275  2.2380
  178SOPE  H15Y20348   3.631   5.151   9.007 -0.2685 -0.7787 -1.9510
  178SOPE  C31620349   3.712   5.241   8.834  0.0606 -0.5694  0.0051
  178SOPE  H16X20350   3.779   5.154   8.847  1.0656  0.2297  0.2818
  178SOPE  H16Y20351   3.779   5.320   8.793  2.6915 -1.2077  2.7339
  178SOPE  C31720352   3.594   5.224   8.743  0.1220 -0.1124 -0.1360
  178SOPE  H17X20353   3.538   5.317   8.720 -0.4121  0.0262  1.5632
  178SOPE  H17Y20354   3.524   5.146   8.778 -0.4029  0.6613  0.5664
  178SOPE  C31820355   3.641   5.176   8.603 -0.2274  0.7711 -0.1431
  178SOPE  H18X20356   3.559   5.116   8.557  0.9789 -1.4248  0.4166
  178SOPE  H18Y20357   3.716   5.094   8.609 -0.4659  0.5713  0.1172
  178SOPE  H18Z20358   3.676   5.249   8.527 -1.1527  0.6778 -0.6710
  179SOPE     N20359   4.518   3.406   6.501  0.2842 -0.4250  0.2742
  179SOPE   HN120360   4.548   3.478   6.432  1.9383  1.7569  3.0538
  179SOPE   HN220361   4.581   3.324   6.492  0.9123  0.0324  0.4641
  179SOPE   HN320362   4.419   3.376   6.493  0.5375 -1.7140  1.6147
  179SOPE   C1220363   4.550   3.461   6.632  0.2777  0.2169 -0.0065
  179SOPE  H12A20364   4.499   3.559   6.639 -0.7981 -0.2374 -1.2080
  179SOPE  H12B20365   4.661   3.465   6.643  0.2972  1.2585 -0.4639
  179SOPE   C1120366   4.514   3.358   6.745 -0.4600 -0.7583 -0.5833
  179SOPE  H11A20367   4.524   3.396   6.849 -0.0303 -0.8509 -0.5853
  179SOPE  H11B20368   4.593   3.280   6.734  1.5196  1.1670 -0.6539
  179SOPE     P20369   4.248   3.367   6.743 -0.0249  0.2777  0.6688
  179SOPE   O1320370   4.150   3.294   6.656 -0.2355  0.0834  0.3304
  179SOPE   O1420371   4.261   3.515   6.726 -0.3213  0.6717  0.3150
  179SOPE   O1220372   4.387   3.302   6.715 -0.2169  0.4218 -0.3456
  179SOPE   O1120373   4.222   3.342   6.905 -0.0949  0.4841  0.1004
  179SOPE    C120374   4.233   3.207   6.963 -0.1010 -0.4299 -0.4054
  179SOPE    HA20375   4.233   3.217   7.074 -0.8009 -2.2555 -0.2201
  179SOPE    HB20376   4.323   3.147   6.939 -1.0830 -2.4669  0.7948
  179SOPE    C220377   4.104   3.122   6.942  0.1318  0.4819  0.0323
  179SOPE    HS20378   4.094   3.117   6.832  1.7966  0.0999 -0.1295
  179SOPE   O2120379   3.990   3.196   7.000 -0.3032 -0.7000  0.2803
  179SOPE   C2120380   3.879   3.162   6.954  0.1618  0.9044  0.3303
  179SOPE   O2220381   3.856   3.076   6.870 -0.4319  0.0950  0.0189
  179SOPE   C2220382   3.775   3.265   6.994  0.6796 -0.2367 -0.1779
  179SOPE   H2R20383   3.758   3.315   6.897  1.8155 -0.6710 -0.6171
  179SOPE   H2S20384   3.800   3.337   7.075 -0.7125 -0.5001  0.5177
  179SOPE    C320385   4.113   2.973   6.994 -0.8275 -0.0088 -0.5049
  179SOPE    HX20386   4.203   2.926   6.949  0.9428  2.7503 -0.1187
  179SOPE    HY20387   4.022   2.918   6.963 -0.2817 -0.6773 -0.9458
  179SOPE   O3120388   4.133   2.967   7.138  0.8913 -0.3458  0.0138
  179SOPE   C3120389   4.024   2.948   7.209 -0.3953 -0.9223 -0.0317
  179SOPE   O3220390   3.909   2.961   7.167 -0.3220 -0.0818  0.2195
  179SOPE   C3220391   4.050   2.901   7.346 -0.2877  0.6501 -0.6459
  179SOPE   H2X20392   4.159   2.904   7.368 -0.7790  1.8359  1.9338
  179SOPE   H2Y20393   4.006   2.799   7.358 -1.0903  1.2978  3.6373
  179SOPE   C2320394   3.636   3.212   7.041  0.3767  0.4388  0.2989
  179SOPE   H3R20395   3.601   3.129   6.975 -1.1669  0.1970  1.3768
  179SOPE   H3S20396   3.561   3.293   7.029  0.6872  0.6561 -0.2539
  179SOPE   C2420397   3.617   3.164   7.188 -0.8218  0.0895 -0.3701
  179SOPE   H4R20398   3.671   3.067   7.197  0.9506  1.0548 -0.2410
  179SOPE   H4S20399   3.670   3.236   7.253  0.7561  0.2413 -1.7568
  179SOPE   C2520400   3.467   3.149   7.223  0.3110  0.0372 -0.1505
  179SOPE   H5R20401   3.411   3.245   7.217 -2.2014 -1.1579  1.9515
  179SOPE   H5S20402   3.432   3.091   7.135  0.6915 -0.9360  0.3235
  179SOPE   C2620403   3.425   3.094   7.357 -0.2756  0.0789  0.6778
  179SOPE   H6R20404   3.467   2.992   7.372  2.7270  0.8583 -1.5106
  179SOPE   H6S20405   3.459   3.158   7.441 -1.1620  0.0594  1.0619
  179SOPE   C2720406   3.276   3.075   7.358  0.0283  0.3583  0.5374
  179SOPE   H7R20407   3.228   3.167   7.318 -0.6699 -0.6176 -1.0161
  179SOPE   H7S20408   3.246   2.999   7.282  0.6686 -0.9488  1.5521
  179SOPE   C2820409   3.198   3.049   7.485  0.1038 -0.6884  0.2085
  179SOPE   H8R20410   3.091   3.068   7.462 -0.1328 -1.0141  1.0046
  179SOPE   H8S20411   3.210   2.944   7.519  2.0537 -0.8086 -0.7287
  179SOPE   C2920412   3.238   3.148   7.588 -0.3841  0.4854 -1.4229
  179SOPE   H9120413   3.248   3.251   7.552  3.5120 -0.3606 -3.2449
  179SOPE  C21020414   3.284   3.120   7.711  0.2850  0.1907 -0.2507
  179SOPE  H10120415   3.321   3.204   7.770  1.6462 -0.5236 -0.0483
  179SOPE  C21120416   3.305   2.982   7.783 -0.2530 -0.1507 -0.1603
  179SOPE  H11R20417   3.246   2.905   7.728  2.2097 -2.2947  0.0306
  179SOPE  H11S20418   3.252   3.002   7.879 -0.3483  1.5205 -0.5314
  179SOPE  C21220419   3.449   2.922   7.814 -0.7418 -0.2582  0.3686
  179SOPE  H12R20420   3.507   2.948   7.722 -1.9101  0.5311 -0.1745
  179SOPE  H12S20421   3.432   2.812   7.819  1.6272 -0.6217  3.6887
  179SOPE  C21320422   3.536   2.955   7.933  0.1976  0.0894 -0.1196
  179SOPE  H13R20423   3.569   3.061   7.924 -2.0339  0.7050 -1.5926
  179SOPE  H13S20424   3.630   2.896   7.935 -0.3392 -0.7643  0.7511
  179SOPE  C21420425   3.463   2.941   8.075 -0.8584 -0.1915 -0.1039
  179SOPE  H14R20426   3.405   2.847   8.064 -1.9086  0.1883  1.9053
  179SOPE  H14S20427   3.392   3.027   8.075 -1.6370 -0.8265  0.3229
  179SOPE  C21520428   3.559   2.937   8.195  0.2852 -0.0628  0.1838
  179SOPE  H15R20429   3.628   3.023   8.197  3.3076 -2.3169  1.6334
  179SOPE  H15S20430   3.625   2.848   8.188 -1.9920 -1.7628 -0.9092
  179SOPE  C21620431   3.480   2.926   8.329  0.0736 -0.5371  0.6098
  179SOPE  H16R20432   3.556   2.905   8.408  0.0989 -2.5701  0.1185
  179SOPE  H16S20433   3.418   2.834   8.328 -0.2744 -0.3941 -2.8992
  179SOPE  C21720434   3.409   3.054   8.372 -0.9356  0.1241  0.2839
  179SOPE  H17R20435   3.309   3.061   8.325 -1.0550 -2.0395  0.0990
  179SOPE  H17S20436   3.474   3.141   8.346  0.2835 -1.5457 -2.8689
  179SOPE  C21820437   3.388   3.055   8.523  0.1280  0.4506  0.6613
  179SOPE  H18R20438   3.327   3.135   8.569 -0.2909 -0.5464  1.8796
  179SOPE  H18S20439   3.485   3.055   8.577 -0.8245  2.4275  2.5292
  179SOPE  H18T20440   3.331   2.970   8.564  1.3518  0.4137  2.3842
  179SOPE   C3320441   3.990   2.979   7.462  0.4519 -0.2783 -0.6201
  179SOPE   H3X20442   3.879   2.979   7.465  0.4068 -0.4549 -1.9198
  179SOPE   H3Y20443   4.025   3.083   7.442 -0.2637  0.2646  0.7664
  179SOPE   C3420444   4.021   2.937   7.611  0.7409  0.0942  0.1844
  179SOPE   H4X20445   4.128   2.909   7.620  0.8478 -0.3201 -1.9101
  179SOPE   H4Y20446   3.947   2.857   7.632 -1.3874  1.9889  0.1926
  179SOPE   C3520447   3.987   3.051   7.704  0.1374  0.1542  0.0337
  179SOPE   H5X20448   3.881   3.084   7.692 -0.4100 -0.1239  3.1842
  179SOPE   H5Y20449   4.043   3.143   7.679 -2.4879  2.3529  1.6785
  179SOPE   C3620450   4.004   3.031   7.858  0.4899  0.1123  0.2343
  179SOPE   H6X20451   4.107   3.013   7.893  0.8109 -0.5636 -0.9726
  179SOPE   H6Y20452   3.941   2.940   7.871 -1.7292  0.9911 -2.9700
  179SOPE   C3720453   3.937   3.146   7.941  0.3302  0.5005 -0.0161
  179SOPE   H7X20454   3.833   3.165   7.907  0.6865  0.3886 -1.2067
  179SOPE   H7Y20455   3.992   3.240   7.920 -0.3088  0.2722 -3.2161
  179SOPE   C3820456   3.932   3.106   8.096  0.0906  0.0115 -0.4443
  179SOPE   H8X20457   4.032   3.091   8.141 -0.0566 -1.9720 -0.7079
  179SOPE   H8Y20458   3.871   3.013   8.100 -1.4729  1.0147  0.5118
  179SOPE   C3920459   3.871   3.214   8.187  0.3439 -0.4166  0.8367
  179SOPE   H9X20460   3.770   3.224   8.143  1.1754 -1.7513 -1.5923
  179SOPE   H9Y20461   3.906   3.319   8.175 -2.8466  0.4646 -2.8513
  179SOPE  C31020462   3.875   3.171   8.336 -0.0258  0.0374  0.2918
  179SOPE  H10X20463   3.979   3.162   8.375  0.2880  3.1410  0.4568
  179SOPE  H10Y20464   3.835   3.069   8.352  2.6776 -1.1023  0.3622
  179SOPE  C31120465   3.805   3.255   8.446 -1.1243  0.1584  0.0852
  179SOPE  H11X20466   3.703   3.274   8.408 -1.6375 -1.5233  0.5377
  179SOPE  H11Y20467   3.858   3.352   8.459 -1.4317  0.3238  0.1019
  179SOPE  C31220468   3.795   3.179   8.580 -0.1003  0.4874 -1.0158
  179SOPE  H12X20469   3.893   3.192   8.630 -1.0244 -0.3039  1.1000
  179SOPE  H12Y20470   3.786   3.070   8.563  1.1024  0.6330 -2.8630
  179SOPE  C31320471   3.684   3.231   8.675  0.2781 -0.5955  0.3715
  179SOPE  H13X20472   3.685   3.172   8.769 -0.2126 -2.8238 -0.9516
  179SOPE  H13Y20473   3.584   3.216   8.628  0.9656  0.2885 -1.5134
  179SOPE  C31420474   3.688   3.385   8.713  0.7922 -0.1267  0.7958
  179SOPE  H14X20475   3.609   3.393   8.791 -0.6132  0.2658 -0.5987
  179SOPE  H14Y20476   3.671   3.450   8.624  2.8882  0.9196  1.0947
  179SOPE  C31520477   3.827   3.431   8.764  0.3210  0.0659 -0.2628
  179SOPE  H15X20478   3.842   3.539   8.744 -1.1491  0.2444 -0.5565
  179SOPE  H15Y20479   3.912   3.378   8.716  1.6549  1.3086  0.6628
  179SOPE  C31620480   3.849   3.401   8.913 -0.0846  0.3722 -0.2070
  179SOPE  H16X20481   3.952   3.422   8.948 -1.3052  0.0295  4.1728
  179SOPE  H16Y20482   3.832   3.294   8.937  0.6862  0.0603 -1.0137
  179SOPE  C31720483   3.772   3.485   9.014 -0.2071 -0.5414  0.2851
  179SOPE  H17X20484   3.681   3.425   9.038  0.0045 -0.8190  0.3939
  179SOPE  H17Y20485   3.737   3.579   8.964  2.3884 -0.3288 -1.3049
  179SOPE  C31820486   3.845   3.501   9.144 -0.1770 -0.2340 -0.1711
  179SOPE  H18X20487   3.785   3.550   9.223  2.0555  0.0112  1.4880
  179SOPE  H18Y20488   3.933   3.560   9.109  0.0344  0.5051  1.4859
  179SOPE  H18Z20489   3.876   3.399   9.178  1.3154  0.1690 -0.2559
  180SOPE     N20490   0.739   2.414   6.400  0.4819  0.4937 -0.0244
  180SOPE   HN120491   0.640   2.427   6.428  0.2783  0.7291 -0.8241
  180SOPE   HN220492   0.800   2.381   6.477  0.2549 -0.4598 -0.2358
  180SOPE   HN320493   0.770   2.507   6.367 -1.8592  1.6333  0.8073
  180SOPE   C1220494   0.752   2.328   6.273 -0.1995  0.9899  0.0423
  180SOPE  H12A20495   0.687   2.360   6.189 -0.0318 -0.8414 -0.8250
  180SOPE  H12B20496   0.716   2.229   6.309 -0.4150  1.4473  1.1482
  180SOPE   C1120497   0.896   2.316   6.223  0.5822 -0.3473 -0.0845
  180SOPE  H11A20498   0.919   2.414   6.176  0.0250 -0.9426 -1.6908
  180SOPE  H11B20499   0.904   2.241   6.140 -2.5915 -2.7699  1.5640
  180SOPE     P20500   1.086   2.182   6.351 -0.3314 -0.1699  0.2691
  180SOPE   O1320501   1.160   2.199   6.479 -0.4246  0.2467  0.5299
  180SOPE   O1420502   1.164   2.183   6.226 -0.2730  0.1350  0.7241
  180SOPE   O1220503   0.981   2.292   6.337  0.7266 -0.8239 -0.1449
  180SOPE   O1120504   1.007   2.047   6.345  0.6983 -0.3037 -0.4880
  180SOPE    C120505   0.921   2.011   6.457  0.7842 -0.4483 -0.1398
  180SOPE    HA20506   0.824   1.975   6.416 -0.0722  1.5807 -0.0379
  180SOPE    HB20507   0.892   2.097   6.521 -0.4211 -2.4969  2.2713
  180SOPE    C220508   0.974   1.903   6.560 -0.2820 -0.0335 -0.8982
  180SOPE    HS20509   0.887   1.860   6.613 -1.3101 -0.6785 -2.9911
  180SOPE   O2120510   1.085   1.954   6.640  0.2201 -0.5931  0.0373
  180SOPE   C2120511   1.046   2.039   6.729  0.5521 -0.2812 -0.3999
  180SOPE   O2220512   0.932   2.079   6.754  0.0410 -0.7481 -0.4737
  180SOPE   C2220513   1.166   2.052   6.824 -0.5828 -0.0992 -0.3650
  180SOPE   H2R20514   1.243   2.108   6.767 -0.5968  0.8331  0.5004
  180SOPE   H2S20515   1.204   1.950   6.846 -2.8132 -0.8998 -0.0441
  180SOPE    C320516   1.036   1.785   6.477 -0.3207 -0.3748 -0.3714
  180SOPE    HX20517   1.102   1.817   6.393  0.7174 -0.6522  0.3386
  180SOPE    HY20518   0.944   1.750   6.424 -0.0229 -1.0875 -0.4151
  180SOPE   O3120519   1.091   1.674   6.559 -0.1768  0.5009 -0.1466
  180SOPE   C3120520   1.217   1.681   6.575  0.1422 -0.3919  0.0801
  180SOPE   O3220521   1.287   1.759   6.512 -0.4434  0.2362 -0.2984
  180SOPE   C3220522   1.268   1.566   6.676  0.5611 -0.1903  0.3878
  180SOPE   H2X20523   1.377   1.563   6.658  0.6047  0.7276  0.4460
  180SOPE   H2Y20524   1.213   1.472   6.652  0.1429 -0.3029  1.7142
  180SOPE   C2320525   1.125   2.109   6.957 -0.1903 -0.0653 -0.4677
  180SOPE   H3R20526   1.035   2.171   6.946  0.8404  1.6078  0.1555
  180SOPE   H3S20527   1.206   2.178   6.987  0.8049 -0.8382 -1.2713
  180SOPE   C2420528   1.094   2.008   7.063  0.3930  0.1338  0.7208
  180SOPE   H4R20529   1.005   1.947   7.036  0.1421 -0.3281  2.4544
  180SOPE   H4S20530   1.182   1.940   7.069 -0.3489 -0.7665  1.8274
  180SOPE   C2520531   1.053   2.068   7.204 -0.6437 -0.0250  0.3063
  180SOPE   H5R20532   1.135   2.142   7.218  0.7598 -1.7971  1.8995
  180SOPE   H5S20533   0.958   2.125   7.190 -0.7855 -0.3221  0.0371
  180SOPE   C2620534   1.041   1.975   7.320 -0.1329 -0.0998  0.2868
  180SOPE   H6R20535   0.989   2.034   7.399  0.3958  1.1420 -0.2595
  180SOPE   H6S20536   0.978   1.888   7.295 -0.5065  0.5560 -1.1327
  180SOPE   C2720537   1.187   1.936   7.363  0.0141 -0.6038 -0.1246
  180SOPE   H7R20538   1.237   1.879   7.282 -1.2799 -1.7109 -0.1761
  180SOPE   H7S20539   1.240   2.033   7.373 -0.7511 -0.1859 -0.0139
  180SOPE   C2820540   1.204   1.857   7.496  0.7229 -0.4089  1.0366
  180SOPE   H8R20541   1.148   1.761   7.484 -0.2649  0.2916 -0.1057
  180SOPE   H8S20542   1.311   1.828   7.494  0.6757 -0.6249 -2.0402
  180SOPE   C2920543   1.155   1.929   7.622 -0.7887 -0.1221 -0.6581
  180SOPE   H9120544   1.073   2.000   7.604  0.2251  1.0171 -0.9166
  180SOPE  C21020545   1.207   1.907   7.745  0.1816  0.8961  0.5030
  180SOPE  H10120546   1.161   1.981   7.811 -3.0719  1.0087 -1.7019
  180SOPE  C21120547   1.314   1.814   7.796 -0.1913  0.7125 -0.8017
  180SOPE  H11R20548   1.391   1.881   7.839 -0.8149  1.4383 -0.7783
  180SOPE  H11S20549   1.359   1.758   7.711  1.8848  1.9168 -0.5550
  180SOPE  C21220550   1.256   1.705   7.894  0.1367 -0.3020  0.2398
  180SOPE  H12R20551   1.213   1.749   7.986 -3.2358 -2.3341 -0.1844
  180SOPE  H12S20552   1.341   1.637   7.915  0.1317 -0.6858 -0.9172
  180SOPE  C21320553   1.144   1.618   7.829  0.0888 -0.0841  0.3576
  180SOPE  H13R20554   1.191   1.583   7.734  1.4666  0.8928  0.6385
  180SOPE  H13S20555   1.058   1.686   7.808  1.2411  1.4213  0.3167
  180SOPE  C21420556   1.094   1.496   7.912 -0.4551  0.2375 -0.0312
  180SOPE  H14R20557   1.157   1.408   7.887 -0.1277  0.8582 -1.4890
  180SOPE  H14S20558   0.995   1.486   7.862 -0.9773  2.6968  0.3673
  180SOPE  C21520559   1.086   1.517   8.064 -0.6066 -0.6365  0.6836
  180SOPE  H15R20560   1.007   1.588   8.099  0.6268  1.3999 -0.4968
  180SOPE  H15S20561   1.189   1.550   8.088 -0.8069  0.5856 -0.0398
  180SOPE  C21620562   1.065   1.385   8.154  0.0141  0.5853 -0.3569
  180SOPE  H16R20563   1.148   1.315   8.128 -0.9381 -0.3510 -0.9318
  180SOPE  H16S20564   0.965   1.341   8.134 -0.1550  0.0059  1.5454
  180SOPE  C21720565   1.066   1.435   8.303  0.4574  0.1785  0.2022
  180SOPE  H17R20566   1.039   1.348   8.367 -0.0411 -0.7316 -1.2002
  180SOPE  H17S20567   0.984   1.510   8.316 -1.4178 -1.7543  0.0337
  180SOPE  C21820568   1.197   1.504   8.342  0.2469 -0.5283  0.1861
  180SOPE  H18R20569   1.285   1.441   8.319  0.5228  0.7436 -2.7252
  180SOPE  H18S20570   1.191   1.552   8.442 -0.6671  1.2666 -0.6703
  180SOPE  H18T20571   1.209   1.597   8.283 -0.7972  0.2012  1.0720
  180SOPE   C3320572   1.282   1.597   6.829  0.4826  0.1747  0.1725
  180SOPE   H3X20573   1.331   1.695   6.846 -0.7103  1.0729 -1.2335
  180SOPE   H3Y20574   1.342   1.515   6.872 -0.8800 -0.5080  0.8583
  180SOPE   C3420575   1.149   1.603   6.899  0.6463  0.0202 -0.3410
  180SOPE   H4X20576   1.089   1.513   6.874 -2.2345  1.8175 -0.4791
  180SOPE   H4Y20577   1.084   1.684   6.857  1.4827 -0.1614 -2.0337
  180SOPE   C3520578   1.161   1.626   7.051 -1.0474  0.7580  0.0302
  180SOPE   H5X20579   1.063   1.671   7.076 -1.0040  0.2292  1.2183
  180SOPE   H5Y20580   1.248   1.690   7.079  0.2721 -0.0041 -2.0896
  180SOPE   C3620581   1.169   1.492   7.119 -0.0174 -0.0232  0.2312
  180SOPE   H6X20582   1.261   1.433   7.098 -0.4681 -0.8535  0.5602
  180SOPE   H6Y20583   1.091   1.427   7.075  1.9793 -2.4649  0.0934
  180SOPE   C3720584   1.144   1.496   7.273 -0.0983 -0.3092  0.1553
  180SOPE   H7X20585   1.041   1.527   7.298 -1.0229 -0.4114 -3.0393
  180SOPE   H7Y20586   1.221   1.565   7.315  0.6885 -0.9122 -0.2621
  180SOPE   C3820587   1.161   1.354   7.336 -0.0835 -0.4240 -0.2294
  180SOPE   H8X20588   1.253   1.303   7.299  1.8262 -1.1991  4.7179
  180SOPE   H8Y20589   1.073   1.296   7.302  0.3984 -0.0393 -2.2521
  180SOPE   C3920590   1.150   1.332   7.494  0.0535  0.0025 -0.1140
  180SOPE   H9X20591   1.047   1.366   7.516 -0.8317 -2.1745 -0.7031
  180SOPE   H9Y20592   1.227   1.382   7.557 -0.3069  0.7418 -0.2508
  180SOPE  C31020593   1.157   1.186   7.539 -0.2828  0.3355 -0.1246
  180SOPE  H10X20594   1.261   1.154   7.518 -0.0599  0.0805  1.3105
  180SOPE  H10Y20595   1.091   1.124   7.474  0.1301 -0.5312  0.2733
  180SOPE  C31120596   1.114   1.151   7.688  0.3398 -0.3674  0.4976
  180SOPE  H11X20597   1.018   1.202   7.711  0.7696  0.2670  0.9384
  180SOPE  H11Y20598   1.182   1.190   7.767  1.4475  0.3410 -0.7656
  180SOPE  C31220599   1.097   0.998   7.704  0.7697 -0.3446 -0.1740
  180SOPE  H12X20600   1.184   0.939   7.668  1.0622 -0.3465  0.5257
  180SOPE  H12Y20601   1.029   0.954   7.628 -0.5706  1.7128 -0.2222
  180SOPE  C31320602   1.070   0.949   7.849 -0.4086  0.1749 -0.6334
  180SOPE  H13X20603   1.166   0.964   7.903 -1.0622  1.8706  0.1172
  180SOPE  H13Y20604   1.054   0.839   7.847  0.9681 -0.0882  0.9169
  180SOPE  C31420605   0.961   1.020   7.934 -0.5159 -0.7341  0.4913
  180SOPE  H14X20606   0.870   1.021   7.870  2.9263  0.2196 -5.1570
  180SOPE  H14Y20607   0.985   1.127   7.948 -0.8625 -0.7728  1.4096
  180SOPE  C31520608   0.941   0.966   8.076  0.0228  0.6507 -0.1484
  180SOPE  H15X20609   1.040   0.996   8.116  0.8699  0.2902 -1.8562
  180SOPE  H15Y20610   0.920   0.859   8.092  1.1489  0.4579  0.1197
  180SOPE  C31620611   0.819   1.038   8.145  0.0371 -0.2437 -0.4128
  180SOPE  H16X20612   0.737   0.985   8.092 -0.5855 -1.1485  1.3854
  180SOPE  H16Y20613   0.813   1.145   8.114  1.5843 -0.0623 -0.1747
  180SOPE  C31720614   0.804   0.996   8.291 -0.2410 -0.1446  0.2434
  180SOPE  H17X20615   0.812   0.885   8.286 -0.9955 -0.1475 -1.6950
  180SOPE  H17Y20616   0.699   1.008   8.324 -0.2868  0.1013  0.0065
  180SOPE  C31820617   0.902   1.064   8.388 -0.7960  0.3592 -0.1844
  180SOPE  H18X20618   0.892   1.173   8.371  2.3598  0.7175 -0.3434
  180SOPE  H18Y20619   1.006   1.034   8.361 -1.9679 -2.7909 -1.7784
  180SOPE  H18Z20620   0.884   1.030   8.492 -1.9149 -1.7686 -1.0228
  181SOPE     N20621   6.126   1.491   5.910  0.6613  0.1318  0.1706
  181SOPE   HN120622   6.188   1.413   5.942 -0.2627 -0.9005 -0.5072
  181SOPE   HN220623   6.029   1.460   5.931  1.8139 -4.3108 -0.0141
  181SOPE   HN320624   6.151   1.497   5.809  1.2774  0.6822  0.3430
  181SOPE   C1220625   6.162   1.620   5.991 -0.3671 -0.0032  0.1724
  181SOPE  H12A20626   6.153   1.590   6.098  0.7121 -0.9144  0.0261
  181SOPE  H12B20627   6.085   1.695   5.962 -0.0978 -0.2903 -1.3446
  181SOPE   C1120628   6.313   1.653   5.978 -0.1990  1.1782 -0.4531
  181SOPE  H11A20629   6.335   1.750   6.027 -0.3969  1.5894 -1.1500
  181SOPE  H11B20630   6.341   1.666   5.871  0.9601 -1.8502 -0.5988
  181SOPE     P20631   6.460   1.549   6.176  0.2675  0.1848  0.1427
  181SOPE   O1320632   6.559   1.656   6.200 -0.0382  0.5722  0.5103
  181SOPE   O1420633   6.495   1.409   6.203 -0.0065  0.1120 -0.1360
  181SOPE   O1220634   6.407   1.551   6.025 -0.1928  0.3658 -0.1950
  181SOPE   O1120635   6.324   1.575   6.254  0.2266 -0.1713  0.8927
  181SOPE    C120636   6.302   1.697   6.324  0.0279  0.1843 -0.7258
  181SOPE    HA20637   6.192   1.713   6.327  0.1118  0.6880  0.6636
  181SOPE    HB20638   6.344   1.786   6.272  2.2192 -0.8049 -0.7488
  181SOPE    C220639   6.339   1.691   6.473 -0.5178 -0.1772  0.2759
  181SOPE    HS20640   6.283   1.765   6.534  1.0111  1.3857 -0.1345
  181SOPE   O2120641   6.478   1.713   6.498  0.2208  0.8317 -0.0211
  181SOPE   C2120642   6.528   1.832   6.462 -0.4732 -0.0306  0.5257
  181SOPE   O2220643   6.465   1.933   6.430 -0.5875 -0.0856  0.3061
  181SOPE   C2220644   6.674   1.828   6.500  0.4758  0.2009  0.6367
  181SOPE   H2R20645   6.732   1.866   6.413 -1.4000  2.7532  0.3700
  181SOPE   H2S20646   6.702   1.721   6.509  1.3626  0.3961  0.2929
  181SOPE    C320647   6.308   1.550   6.528 -0.2434  0.7269 -0.4282
  181SOPE    HX20648   6.372   1.475   6.478 -0.9368  0.6910 -1.3046
  181SOPE    HY20649   6.205   1.533   6.488  1.1946 -3.5083 -2.9541
  181SOPE   O3120650   6.310   1.547   6.673 -0.2084 -0.2657 -0.2946
  181SOPE   C3120651   6.422   1.491   6.731 -0.6327 -0.3161 -0.1083
  181SOPE   O3220652   6.521   1.460   6.666  0.0011 -0.2443 -0.3913
  181SOPE   C3220653   6.425   1.508   6.883  0.5007  0.1352  0.5287
  181SOPE   H2X20654   6.326   1.529   6.928  1.5147 -0.2607  3.1280
  181SOPE   H2Y20655   6.497   1.590   6.904  2.0360 -1.1266  0.3694
  181SOPE   C2320656   6.719   1.911   6.620 -0.2941  0.3238  0.8562
  181SOPE   H3R20657   6.652   1.891   6.707 -0.2816  3.6780  1.7552
  181SOPE   H3S20658   6.704   2.020   6.604  0.2800  0.3427  0.4407
  181SOPE   C2420659   6.862   1.868   6.660  0.4658  0.5456  0.1332
  181SOPE   H4R20660   6.928   1.864   6.571 -0.1323 -3.4089 -0.2992
  181SOPE   H4S20661   6.889   1.951   6.730 -1.0028  1.6369 -0.5433
  181SOPE   C2520662   6.871   1.730   6.728  0.4968  0.3672 -0.2880
  181SOPE   H5R20663   6.867   1.650   6.651 -2.0388  0.1314  0.0078
  181SOPE   H5S20664   6.972   1.734   6.775  0.6976  2.3709 -0.8227
  181SOPE   C2620665   6.772   1.699   6.849  0.5204  0.3746  0.8961
  181SOPE   H6R20666   6.671   1.691   6.804  0.5834  0.4637  0.7392
  181SOPE   H6S20667   6.808   1.609   6.902 -0.1424  0.4560  1.5008
  181SOPE   C2720668   6.777   1.817   6.955 -0.0586 -0.3013 -0.2070
  181SOPE   H7R20669   6.766   1.913   6.899 -0.8653  1.0754  2.1595
  181SOPE   H7S20670   6.687   1.816   7.021 -0.5160  1.4963 -0.7454
  181SOPE   C2820671   6.909   1.821   7.031  0.0822  0.1123 -0.4633
  181SOPE   H8R20672   6.998   1.825   6.965 -0.1882  1.8900 -0.7700
  181SOPE   H8S20673   6.900   1.922   7.078 -0.5653  0.1257 -0.6052
  181SOPE   C2920674   6.933   1.712   7.131 -0.7219 -0.6527 -0.5258
  181SOPE   H9120675   6.945   1.614   7.084  0.4935  0.7841 -3.4872
  181SOPE  C21020676   6.947   1.740   7.261 -0.2463 -0.1237  0.3979
  181SOPE  H10120677   6.977   1.657   7.327 -0.4619 -0.5607 -0.0503
  181SOPE  C21120678   6.942   1.865   7.340  0.2258 -0.1864 -0.1931
  181SOPE  H11R20679   6.838   1.900   7.325  0.5960  1.9050  1.5861
  181SOPE  H11S20680   7.021   1.929   7.295  1.1608 -2.5584 -2.1786
  181SOPE  C21220681   6.960   1.832   7.487  0.1397 -0.1706 -0.9335
  181SOPE  H12R20682   7.069   1.809   7.490 -0.0898 -1.2761  1.2039
  181SOPE  H12S20683   6.892   1.751   7.520  0.3303  0.2915  0.7005
  181SOPE  C21320684   6.943   1.945   7.599 -0.8844  0.2169  0.0381
  181SOPE  H13R20685   6.841   1.987   7.587 -0.2356  1.4034 -1.6999
  181SOPE  H13S20686   7.015   2.023   7.567 -0.0287 -0.1668  0.9593
  181SOPE  C21420687   6.983   1.896   7.733 -0.2384  0.7044 -0.2330
  181SOPE  H14R20688   7.083   1.849   7.718  0.3455  1.5030  1.0209
  181SOPE  H14S20689   6.906   1.829   7.778  0.7553  0.2242  0.8022
  181SOPE  C21520690   7.008   2.012   7.825  0.1864  0.7797 -0.1291
  181SOPE  H15R20691   6.920   2.079   7.827 -0.9129 -0.6116 -0.6842
  181SOPE  H15S20692   7.097   2.074   7.799  1.2616 -1.1668 -1.2700
  181SOPE  C21620693   7.034   1.962   7.971  0.1104 -0.5929 -0.0311
  181SOPE  H16R20694   6.936   1.923   8.006 -0.5176 -0.7675 -1.8479
  181SOPE  H16S20695   7.058   2.049   8.036  2.6815 -0.8956 -0.4631
  181SOPE  C21720696   7.136   1.844   7.983  0.2481 -0.0954 -0.2167
  181SOPE  H17R20697   7.224   1.876   7.923 -0.1996 -0.6140 -1.1722
  181SOPE  H17S20698   7.093   1.750   7.942 -2.6606  0.1402  1.9995
  181SOPE  C21820699   7.180   1.823   8.125 -0.4413  0.6076 -0.6628
  181SOPE  H18R20700   7.255   1.903   8.147 -1.1604  0.5619  2.4646
  181SOPE  H18S20701   7.231   1.724   8.127  1.3702  1.3315 -4.1469
  181SOPE  H18T20702   7.094   1.831   8.195 -0.3716  3.7934 -0.8006
  181SOPE   C3320703   6.472   1.380   6.956 -0.1929  0.6093 -0.2905
  181SOPE   H3X20704   6.561   1.352   6.896  1.2242 -0.5149  2.1864
  181SOPE   H3Y20705   6.392   1.304   6.951 -3.2119  3.5776 -1.0347
  181SOPE   C3420706   6.524   1.417   7.092 -0.3102  0.0826  0.3045
  181SOPE   H4X20707   6.440   1.466   7.147 -1.7018 -2.6969  0.8301
  181SOPE   H4Y20708   6.613   1.484   7.086  0.6145 -1.2138 -0.9096
  181SOPE   C3520709   6.555   1.302   7.195  0.2533 -0.5901  0.2062
  181SOPE   H5X20710   6.650   1.252   7.166 -0.8860 -2.2079 -0.9253
  181SOPE   H5Y20711   6.485   1.217   7.184  1.3497 -1.3225 -1.7156
  181SOPE   C3620712   6.579   1.356   7.336  0.3138 -0.7037 -0.0806
  181SOPE   H6X20713   6.652   1.439   7.327 -0.7558  0.1576 -1.0868
  181SOPE   H6Y20714   6.625   1.272   7.393  2.0905  0.2943  0.0329
  181SOPE   C3720715   6.452   1.401   7.411 -0.0925 -0.0182  0.1945
  181SOPE   H7X20716   6.371   1.330   7.386 -1.1134  1.2594 -0.2320
  181SOPE   H7Y20717   6.405   1.495   7.374 -0.7349 -1.5170 -3.1518
  181SOPE   C3820718   6.489   1.404   7.557  0.8406  0.2198  0.0107
  181SOPE   H8X20719   6.546   1.496   7.583  1.8428 -0.1145 -0.9385
  181SOPE   H8Y20720   6.555   1.317   7.578  0.7076  0.0013 -0.4651
  181SOPE   C3920721   6.373   1.395   7.655  0.3264 -0.4384  0.1318
  181SOPE   H9X20722   6.299   1.327   7.609  0.4060 -0.8993  0.6722
  181SOPE   H9Y20723   6.320   1.492   7.655 -0.3021 -0.5396 -5.1397
  181SOPE  C31020724   6.404   1.359   7.803 -0.2370  1.0328 -0.3315
  181SOPE  H10X20725   6.435   1.252   7.808 -2.5770  0.3651  1.7616
  181SOPE  H10Y20726   6.311   1.361   7.863 -0.4430 -0.7736 -0.5274
  181SOPE  C31120727   6.507   1.461   7.861  0.0536  0.0488  0.8420
  181SOPE  H11X20728   6.465   1.561   7.836  0.7130 -0.0245 -0.6203
  181SOPE  H11Y20729   6.592   1.443   7.792 -0.4147  2.1453 -0.3920
  181SOPE  C31220730   6.550   1.443   8.007  0.3646  0.5343 -0.4198
  181SOPE  H12X20731   6.630   1.519   8.025 -0.6098  1.7829 -1.2291
  181SOPE  H12Y20732   6.602   1.345   8.019  1.4829  1.3658  2.4461
  181SOPE  C31320733   6.442   1.464   8.114  0.2157 -0.2970  0.5812
  181SOPE  H13X20734   6.354   1.401   8.093 -0.9339  1.8756 -1.7014
  181SOPE  H13Y20735   6.416   1.571   8.095  1.1280 -0.3199 -1.0569
  181SOPE  C31420736   6.487   1.440   8.262  0.0261  0.2325 -0.0615
  181SOPE  H14X20737   6.528   1.337   8.272 -1.8018 -0.4855  0.3690
  181SOPE  H14Y20738   6.403   1.463   8.331  0.1807 -0.2965  0.3109
  181SOPE  C31520739   6.599   1.536   8.294  0.5435  0.9244 -0.5829
  181SOPE  H15X20740   6.547   1.631   8.319 -0.8209 -0.4102  2.0530
  181SOPE  H15Y20741   6.676   1.550   8.215  1.0450 -2.3317 -0.8136
  181SOPE  C31620742   6.674   1.478   8.407 -0.7005 -0.5463  0.1706
  181SOPE  H16X20743   6.729   1.396   8.355  2.7207  1.8162 -0.3052
  181SOPE  H16Y20744   6.616   1.440   8.493  1.4162  0.4892  2.1616
  181SOPE  C31720745   6.792   1.566   8.462 -0.5012 -0.4919  0.1294
  181SOPE  H17X20746   6.748   1.653   8.515 -2.5782  0.4890 -2.9519
  181SOPE  H17Y20747   6.851   1.593   8.372 -0.8290 -2.2526 -0.6476
  181SOPE  C31820748   6.888   1.490   8.552 -1.2238  0.2513  0.1110
  181SOPE  H18X20749   6.938   1.414   8.489 -0.5309 -0.2738  1.2732
  181SOPE  H18Y20750   6.842   1.425   8.630 -0.7755  0.1028  0.2513
  181SOPE  H18Z20751   6.961   1.559   8.600 -1.5933  0.0335  1.0122
  182SOPE     N20752   0.829   1.334   6.026 -0.6220 -0.1079 -0.8484
  182SOPE   HN120753   0.806   1.280   6.112 -2.8551  0.2966 -1.1330
  182SOPE   HN220754   0.844   1.434   6.052 -0.2359 -0.5116  0.5445
  182SOPE   HN320755   0.748   1.327   5.962 -0.2383  0.6164 -1.4302
  182SOPE   C1220756   0.957   1.301   5.956  0.0977  0.5462  0.0526
  182SOPE  H12A20757   0.981   1.382   5.884 -2.8818 -0.5067 -2.3760
  182SOPE  H12B20758   0.932   1.214   5.892 -1.2515  1.8454 -1.3019
  182SOPE   C1120759   1.071   1.257   6.055 -0.2428 -0.3601  0.0799
  182SOPE  H11A20760   1.102   1.343   6.119  0.7676 -0.3550 -0.3969
  182SOPE  H11B20761   1.160   1.238   5.991  0.4247  1.2455  0.4813
  182SOPE     P20762   1.147   1.037   6.179 -0.1975 -0.1726  0.0021
  182SOPE   O1320763   1.276   1.105   6.204 -0.0849 -0.2107  0.6165
  182SOPE   O1420764   1.153   0.935   6.071 -0.0529 -0.2495 -0.2008
  182SOPE   O1220765   1.034   1.146   6.141  0.6381 -0.2430 -0.0367
  182SOPE   O1120766   1.098   0.971   6.314 -0.0956 -0.2648 -0.1116
  182SOPE    C120767   0.956   0.962   6.339  0.5521 -0.2120 -0.9214
  182SOPE    HA20768   0.905   0.905   6.258  0.6158  0.0054 -1.1162
  182SOPE    HB20769   0.912   1.064   6.341 -3.1777 -1.6791 -0.5247
  182SOPE    C220770   0.926   0.894   6.477 -0.6220 -0.2974 -0.3702
  182SOPE    HS20771   0.819   0.904   6.503 -0.7552 -1.2872 -0.4962
  182SOPE   O2120772   1.007   0.969   6.573 -0.8971 -0.6982  0.4463
  182SOPE   C2120773   0.957   1.061   6.641 -0.7712  0.0209 -0.3914
  182SOPE   O2220774   0.843   1.103   6.643  0.0538  0.1099  0.1496
  182SOPE   C2220775   1.079   1.103   6.729  1.0189  0.3644  0.6232
  182SOPE   H2R20776   1.152   1.148   6.658  1.5837 -1.1790  0.1701
  182SOPE   H2S20777   1.127   1.011   6.769  1.7891  1.2567  1.7974
  182SOPE    C320778   0.968   0.741   6.479 -0.0677  0.1518 -0.3104
  182SOPE    HX20779   1.064   0.728   6.424 -1.4861 -0.2878 -2.7882
  182SOPE    HY20780   0.895   0.689   6.413  0.5578  0.8387 -1.5644
  182SOPE   O3120781   0.984   0.684   6.616  0.2262 -0.4306 -0.1044
  182SOPE   C3120782   0.864   0.659   6.662 -1.1766 -0.0633 -0.0393
  182SOPE   O3220783   0.757   0.673   6.605 -0.7541  0.0361  0.4236
  182SOPE   C3220784   0.879   0.624   6.807  0.4420  0.1079 -0.3498
  182SOPE   H2X20785   0.934   0.695   6.873  0.8256 -1.5080  1.1658
  182SOPE   H2Y20786   0.935   0.528   6.809  2.2703  1.1117  1.9318
  182SOPE   C2320787   1.045   1.195   6.845  0.1520 -0.5532  0.2429
  182SOPE   H3R20788   1.002   1.290   6.805  0.9614 -0.4145 -0.3151
  182SOPE   H3S20789   1.128   1.220   6.915  1.1728 -2.6158 -0.1685
  182SOPE   C2420790   0.928   1.152   6.940  0.3522  0.3590 -0.3033
  182SOPE   H4R20791   0.909   1.238   7.008  2.3817  0.9323 -0.3952
  182SOPE   H4S20792   0.834   1.125   6.887 -0.8632 -0.2160  2.0035
  182SOPE   C2520793   0.976   1.029   7.017  0.2060 -0.3040 -0.4647
  182SOPE   H5R20794   0.983   0.938   6.954 -0.8050 -0.2127 -0.7248
  182SOPE   H5S20795   1.076   1.044   7.065  0.0013  0.6851 -0.3131
  182SOPE   C2620796   0.884   1.005   7.135 -0.4102  0.4223 -0.5601
  182SOPE   H6R20797   0.910   1.087   7.205  5.2969 -2.0160  0.7496
  182SOPE   H6S20798   0.781   1.002   7.094 -0.6871  1.3691  0.0376
  182SOPE   C2720799   0.917   0.866   7.201 -0.0978  0.4278  0.5409
  182SOPE   H7R20800   0.836   0.791   7.186  1.9401 -1.6157 -0.9052
  182SOPE   H7S20801   1.004   0.823   7.148 -1.4323 -1.3208 -0.3464
  182SOPE   C2820802   0.939   0.881   7.351 -0.1750 -0.3606 -0.1294
  182SOPE   H8R20803   0.956   0.780   7.394  2.1914  0.2017  0.4201
  182SOPE   H8S20804   1.037   0.930   7.374 -1.2551  0.9169  2.1063
  182SOPE   C2920805   0.818   0.935   7.415 -0.1560  0.5144  0.5944
  182SOPE   H9120806   0.793   1.034   7.375  0.6233  0.1784 -0.7738
  182SOPE  C21020807   0.739   0.877   7.505  0.0228 -0.6132 -0.5776
  182SOPE  H10120808   0.649   0.930   7.541  0.8886  0.6243 -0.1681
  182SOPE  C21120809   0.758   0.741   7.572  0.2111 -0.2564 -0.2526
  182SOPE  H11R20810   0.839   0.675   7.535  1.4053 -0.2609  2.1469
  182SOPE  H11S20811   0.671   0.675   7.553  1.1756 -1.4760 -0.5242
  182SOPE  C21220812   0.775   0.744   7.725 -0.1820 -0.0210  0.2648
  182SOPE  H12R20813   0.688   0.783   7.782 -0.1358 -1.6738  1.5323
  182SOPE  H12S20814   0.868   0.789   7.765  1.7617 -1.1300 -2.6452
  182SOPE  C21320815   0.788   0.600   7.772 -0.1609  0.1201 -0.4791
  182SOPE  H13R20816   0.859   0.553   7.701 -1.5104 -0.9298 -1.1942
  182SOPE  H13S20817   0.690   0.552   7.747  0.4980 -0.0177 -3.1446
  182SOPE  C21420818   0.819   0.571   7.920 -0.1510 -0.7485  0.1025
  182SOPE  H14R20819   0.908   0.629   7.951  0.3541 -0.1829 -2.2157
  182SOPE  H14S20820   0.845   0.464   7.931  0.7825 -0.7614 -1.8193
  182SOPE  C21520821   0.707   0.611   8.016  0.3349  0.0162  0.7131
  182SOPE  H15R20822   0.617   0.563   7.971  0.7296 -0.1758  0.1174
  182SOPE  H15S20823   0.691   0.721   8.009 -0.6642 -0.1995 -1.7907
  182SOPE  C21620824   0.726   0.554   8.156 -0.2806 -0.1971 -0.8031
  182SOPE  H16R20825   0.820   0.598   8.198 -0.6048  0.2145 -0.4939
  182SOPE  H16S20826   0.746   0.445   8.154  0.6467 -0.0695  0.2341
  182SOPE  C21720827   0.615   0.594   8.256 -0.8586  0.6217 -0.3849
  182SOPE  H17R20828   0.626   0.702   8.275  0.2102  0.4607 -0.0304
  182SOPE  H17S20829   0.635   0.541   8.351  0.0138 -0.2083 -1.0068
  182SOPE  C21820830   0.472   0.553   8.210 -0.3000 -0.5150  0.4826
  182SOPE  H18R20831   0.399   0.595   8.282 -0.0027 -0.7292  0.9126
  182SOPE  H18S20832   0.454   0.443   8.210 -0.9582 -0.4246  1.7569
  182SOPE  H18T20833   0.438   0.582   8.109  1.4950 -4.5347 -1.5263
  182SOPE   C3320834   0.737   0.599   6.866 -0.0525 -0.0549 -1.1952
  182SOPE   H3X20835   0.671   0.529   6.810 -2.0919  2.1167 -1.6911
  182SOPE   H3Y20836   0.683   0.696   6.877  0.0668 -0.1160  0.0650
  182SOPE   C3420837   0.740   0.551   7.011  0.3143 -0.1384  0.0268
  182SOPE   H4X20838   0.833   0.595   7.054  1.6467  1.1570 -3.7431
  182SOPE   H4Y20839   0.741   0.440   7.007  1.1419 -0.1288 -3.9923
  182SOPE   C3520840   0.610   0.596   7.082  0.5566  0.1807 -0.2180
  182SOPE   H5X20841   0.519   0.544   7.045 -0.0915  0.6631  0.6800
  182SOPE   H5Y20842   0.601   0.705   7.067 -0.1640 -0.0972 -2.0178
  182SOPE   C3620843   0.595   0.563   7.227  0.2404 -0.3303 -0.8153
  182SOPE   H6X20844   0.613   0.657   7.283  1.7914 -1.3314  0.4878
  182SOPE   H6Y20845   0.672   0.487   7.254 -0.3187  0.0177  2.0362
  182SOPE   C3720846   0.460   0.508   7.267  0.3133 -0.8515 -0.3045
  182SOPE   H7X20847   0.437   0.414   7.212  0.4952 -0.4903 -0.9971
  182SOPE   H7Y20848   0.389   0.590   7.243 -0.8902 -1.5716  0.6378
  182SOPE   C3820849   0.461   0.483   7.415 -0.3615  0.7687 -0.8109
  182SOPE   H8X20850   0.481   0.579   7.468  3.8493 -1.3480  2.0595
  182SOPE   H8Y20851   0.536   0.407   7.445  0.5974  1.8957 -0.2919
  182SOPE   C3920852   0.318   0.438   7.476 -0.1761  0.2846  0.9053
  182SOPE   H9X20853   0.292   0.336   7.439 -1.2928 -0.4589  3.5112
  182SOPE   H9Y20854   0.254   0.524   7.447  0.7378  0.3602 -1.0436
  182SOPE  C31020855   0.318   0.433   7.632 -0.0305  0.2899 -0.2640
  182SOPE  H10X20856   0.390   0.506   7.674 -1.5874  0.4666  2.2967
  182SOPE  H10Y20857   0.345   0.333   7.670 -3.0282 -1.6785 -2.7425
  182SOPE  C31120858   0.178   0.470   7.681 -0.7668  0.3219 -0.4873
  182SOPE  H11X20859   0.111   0.385   7.654 -0.7560  0.2317 -0.2296
  182SOPE  H11Y20860   0.154   0.560   7.621  1.6255  1.2525 -0.1420
  182SOPE  C31220861   0.173   0.483   7.835  0.4553 -0.1032  0.3654
  182SOPE  H12X20862   0.264   0.540   7.864 -0.7422  3.4467 -2.1065
  182SOPE  H12Y20863   0.154   0.393   7.897 -1.6888  1.4771  2.1916
  182SOPE  C31320864   0.058   0.586   7.876  0.1379  0.5183 -0.7821
  182SOPE  H13X20865  -0.041   0.545   7.850 -1.2601  0.9823  3.1248
  182SOPE  H13Y20866   0.056   0.680   7.817 -0.2694  1.2762  0.3955
  182SOPE  C31420867   0.063   0.629   8.027  0.1203 -0.0581 -0.0591
  182SOPE  H14X20868   0.170   0.643   8.051  0.0879 -1.5957  1.1467
  182SOPE  H14Y20869   0.025   0.547   8.092 -0.5263 -0.6234 -1.1156
  182SOPE  C31520870  -0.016   0.763   8.049  0.7939  0.3390  0.8565
  182SOPE  H15X20871  -0.123   0.738   8.035  0.4404  2.8468 -1.8363
  182SOPE  H15Y20872   0.017   0.838   7.973 -3.6879  1.4143 -0.3110
  182SOPE  C31620873   0.010   0.835   8.187 -0.2897 -0.4828 -0.4362
  182SOPE  H16X20874  -0.033   0.937   8.195  1.6991  0.8253 -3.9362
  182SOPE  H16Y20875   0.120   0.854   8.192 -0.5820  2.1711 -2.0215
  182SOPE  C31720876  -0.014   0.740   8.307 -0.2687 -0.1773  0.1103
  182SOPE  H17X20877   0.010   0.791   8.402 -3.5973  0.5680  0.6830
  182SOPE  H17Y20878   0.058   0.656   8.295  0.1974  0.3386 -0.7679
  182SOPE  C31820879  -0.155   0.690   8.311  0.3805 -0.1007  0.0774
  182SOPE  H18X20880  -0.199   0.737   8.401  0.4002  1.6714 -0.8024
  182SOPE  H18Y20881  -0.160   0.579   8.317  3.5819 -0.2832  0.6785
  182SOPE  H18Z20882  -0.227   0.717   8.231 -2.4732 -3.5650  1.1863
  183SOPE     N20883   3.804   6.224   6.315 -0.4686 -0.3252  0.1432
  183SOPE   HN120884   3.715   6.277   6.330  0.2568  0.2206  3.4096
  183SOPE   HN220885   3.834   6.182   6.405 -0.2210 -1.0548 -0.2714
  183SOPE   HN320886   3.872   6.292   6.275  0.1662  0.4508  2.3877
  183SOPE   C1220887   3.780   6.122   6.203 -0.3863  0.4136  0.2704
  183SOPE  H12A20888   3.879   6.077   6.178 -0.5319  0.5313 -0.5397
  183SOPE  H12B20889   3.737   6.175   6.115  0.0569 -1.7081 -1.3267
  183SOPE   C1120890   3.691   6.013   6.255  0.4544  0.5225 -0.1343
  183SOPE  H11A20891   3.672   5.944   6.170  2.0355  1.5148 -1.3447
  183SOPE  H11B20892   3.595   6.061   6.285  0.5879  1.2344 -0.8278
  183SOPE     P20893   3.815   5.812   6.367  0.0351 -0.3320 -0.0610
  183SOPE   O1320894   3.858   5.791   6.228 -0.3312 -0.4301  0.0493
  183SOPE   O1420895   3.710   5.712   6.411  0.2305 -0.3169 -0.2425
  183SOPE   O1220896   3.751   5.956   6.376 -0.5727 -0.2284 -0.3805
  183SOPE   O1120897   3.940   5.809   6.467  0.4838 -0.4922 -0.6067
  183SOPE    C120898   3.923   5.787   6.607  0.1050  0.1758 -0.5133
  183SOPE    HA20899   4.020   5.762   6.654  0.4665  1.1567 -0.7241
  183SOPE    HB20900   3.859   5.698   6.627  1.3721 -0.5227  0.5476
  183SOPE    C220901   3.863   5.915   6.683 -0.4309 -0.0315 -0.6287
  183SOPE    HS20902   3.794   5.960   6.608 -0.9066  0.4888  0.1150
  183SOPE   O2120903   3.976   5.991   6.726  0.4429  0.4777  0.6947
  183SOPE   C2120904   3.983   6.118   6.671 -0.0168  1.1397  0.0844
  183SOPE   O2220905   3.922   6.147   6.573 -0.4558 -0.6322  0.0223
  183SOPE   C2220906   4.082   6.201   6.751 -0.5574 -0.0231 -0.1620
  183SOPE   H2R20907   4.020   6.285   6.787  0.0516  0.9328 -1.2873
  183SOPE   H2S20908   4.156   6.239   6.677 -1.1700 -0.9339 -1.2575
  183SOPE    C320909   3.775   5.865   6.805 -0.3339  0.0489  0.5093
  183SOPE    HX20910   3.826   5.783   6.859  0.6914 -0.3458 -1.0100
  183SOPE    HY20911   3.693   5.808   6.757  0.5501  0.1645 -1.2388
  183SOPE   O3120912   3.736   5.981   6.871  0.1017 -0.3084 -0.5163
  183SOPE   C3120913   3.716   5.964   6.999 -0.2196 -0.8609 -0.7435
  183SOPE   O3220914   3.742   5.866   7.063 -0.3130 -0.4770  0.0782
  183SOPE   C3220915   3.658   6.096   7.059 -0.1647  0.1899 -0.5094
  183SOPE   H2X20916   3.594   6.145   6.983 -1.1901 -0.1859  0.0932
  183SOPE   H2Y20917   3.746   6.162   7.071  1.3373 -1.3467 -2.2840
  183SOPE   C2320918   4.154   6.133   6.874 -0.8550 -0.4872  0.4302
  183SOPE   H3R20919   4.237   6.201   6.901 -2.0852  1.2577  0.0287
  183SOPE   H3S20920   4.211   6.045   6.838  2.3382  1.4737  0.3713
  183SOPE   C2420921   4.060   6.093   6.985  0.9962  0.2466 -0.0487
  183SOPE   H4R20922   4.002   6.183   7.016  0.7826 -0.1208  0.6484
  183SOPE   H4S20923   3.986   6.013   6.961 -0.4275  1.2026  0.9293
  183SOPE   C2520924   4.136   6.033   7.098  0.4041 -0.0918  0.4209
  183SOPE   H5R20925   4.184   5.940   7.060  0.2073 -0.1903  0.4119
  183SOPE   H5S20926   4.203   6.105   7.150 -1.3900  1.5185  0.6118
  183SOPE   C2620927   4.050   5.976   7.211 -0.4503 -0.0518  0.2247
  183SOPE   H6R20928   3.980   6.058   7.238  0.8177  1.6519 -1.3965
  183SOPE   H6S20929   4.001   5.883   7.175  1.0915 -1.0342  0.5975
  183SOPE   C2720930   4.138   5.936   7.330 -0.2632  0.1440 -0.2191
  183SOPE   H7R20931   4.175   5.833   7.315 -1.2033 -0.3120  0.4317
  183SOPE   H7S20932   4.231   5.996   7.337  0.3223 -0.9496  2.7497
  183SOPE   C2820933   4.075   5.925   7.479  0.1736 -0.0314 -0.6309
  183SOPE   H8R20934   3.985   5.990   7.485  0.6982  0.6108  0.6430
  183SOPE   H8S20935   4.028   5.825   7.487 -1.5970  0.8732  1.8311
  183SOPE   C2920936   4.164   5.934   7.598  0.3567 -0.0442 -0.0781
  183SOPE   H9120937   4.263   5.892   7.577 -0.0141 -0.6614 -0.6410
  183SOPE  C21020938   4.123   5.970   7.723  0.0196 -0.5741  0.4774
  183SOPE  H10120939   4.204   5.988   7.796  0.8835  1.4972 -0.8700
  183SOPE  C21120940   3.981   6.018   7.762 -0.3252 -0.0828  0.6706
  183SOPE  H11R20941   3.911   5.936   7.736 -0.9626  0.2169  1.3916
  183SOPE  H11S20942   3.944   6.103   7.701  1.8275  1.2184  1.1055
  183SOPE  C21220943   3.954   6.060   7.914  0.3376 -1.0414  0.2010
  183SOPE  H12R20944   3.976   5.976   7.983  1.0187  0.7446  2.2643
  183SOPE  H12S20945   3.850   6.094   7.933  0.3116 -1.6498  1.1935
  183SOPE  C21320946   4.051   6.169   7.965  0.4474 -0.7318  0.2108
  183SOPE  H13R20947   4.064   6.242   7.882  1.8766 -0.1499  0.8951
  183SOPE  H13S20948   4.153   6.125   7.970  0.8173 -0.7780 -3.9194
  183SOPE  C21420949   4.019   6.244   8.098  0.8191  0.1912  0.0768
  183SOPE  H14R20950   4.016   6.165   8.176  1.4287 -0.9840 -1.0507
  183SOPE  H14S20951   3.916   6.283   8.083  1.1800  0.0861 -3.8784
  183SOPE  C21520952   4.109   6.362   8.132 -0.3282  0.1561 -0.3260
  183SOPE  H15R20953   4.099   6.435   8.049  1.4654  2.9392  1.7474
  183SOPE  H15S20954   4.211   6.320   8.134 -0.0500  0.8233  2.3070
  183SOPE  C21620955   4.068   6.424   8.260  0.3402  0.3381 -0.1594
  183SOPE  H16R20956   4.101   6.363   8.346  0.8575 -1.0849 -1.3260
  183SOPE  H16S20957   3.957   6.425   8.254  0.2898  0.6428  0.6627
  183SOPE  C21720958   4.120   6.570   8.287 -0.3390  0.2185  1.4430
  183SOPE  H17R20959   4.094   6.635   8.201  0.2977 -2.6869 -1.1291
  183SOPE  H17S20960   4.230   6.554   8.289 -0.2750 -0.2789 -1.5487
  183SOPE  C21820961   4.064   6.629   8.412 -0.3203  0.0133 -0.3939
  183SOPE  H18R20962   4.098   6.572   8.502  0.8520 -0.0583 -0.8783
  183SOPE  H18S20963   3.953   6.638   8.418 -0.1351  2.1716  0.6312
  183SOPE  H18T20964   4.105   6.729   8.436 -0.9902  0.5228 -1.3153
  183SOPE   C3320965   3.577   6.074   7.189  0.5518  0.2210  0.8570
  183SOPE   H3X20966   3.492   6.007   7.164  0.0304  1.3532 -0.5848
  183SOPE   H3Y20967   3.530   6.175   7.200 -0.3125 -0.3032  2.1228
  183SOPE   C3420968   3.658   6.040   7.313  0.2812 -0.4152  0.9286
  183SOPE   H4X20969   3.745   6.109   7.317  0.5083 -0.6834  0.6583
  183SOPE   H4Y20970   3.691   5.934   7.301  0.2521 -0.5081  1.6525
  183SOPE   C3520971   3.576   6.059   7.443  0.3559  0.2036 -0.0249
  183SOPE   H5X20972   3.489   5.991   7.434  1.8344 -1.6242 -1.1656
  183SOPE   H5Y20973   3.546   6.166   7.442 -1.6624 -0.3250 -0.7292
  183SOPE   C3620974   3.656   6.016   7.568 -0.7199 -0.1496  0.6571
  183SOPE   H6X20975   3.736   6.090   7.590 -2.0290  1.3978  0.3963
  183SOPE   H6Y20976   3.688   5.910   7.556  0.5960  0.1159  1.5427
  183SOPE   C3720977   3.550   6.025   7.679  0.3697  0.1700  0.1546
  183SOPE   H7X20978   3.477   5.949   7.643  2.6245 -1.6629 -0.7892
  183SOPE   H7Y20979   3.495   6.121   7.668 -0.0866 -0.0115  0.7994
  183SOPE   C3820980   3.604   6.014   7.817 -0.5228 -0.0156 -1.1971
  183SOPE   H8X20981   3.656   6.106   7.851 -2.2686  0.3644  0.6290
  183SOPE   H8Y20982   3.665   5.921   7.815 -1.2999 -0.5271 -1.7439
  183SOPE   C3920983   3.491   6.006   7.924 -1.3010 -0.6643 -0.3745
  183SOPE   H9X20984   3.429   5.917   7.898  0.5261 -2.4156  0.9411
  183SOPE   H9Y20985   3.435   6.101   7.908  1.4652  1.1581  0.2115
  183SOPE  C31020986   3.535   6.004   8.071 -0.0030 -0.1648  0.5947
  183SOPE  H10X20987   3.598   6.094   8.090 -0.8079  0.6462 -0.4315
  183SOPE  H10Y20988   3.603   5.917   8.081 -2.1020 -1.5883  4.7727
  183SOPE  C31120989   3.420   5.990   8.165  0.5734  0.2748 -0.9126
  183SOPE  H11X20990   3.370   5.893   8.142 -0.0734  0.1011  1.0966
  183SOPE  H11Y20991   3.354   6.072   8.131  0.1652  0.4723  0.3351
  183SOPE  C31220992   3.464   5.987   8.312  0.2947  0.2059 -0.3095
  183SOPE  H12X20993   3.537   6.071   8.325 -1.5410  2.0006 -1.0474
  183SOPE  H12Y20994   3.509   5.889   8.339 -1.3922  0.0668  2.2892
  183SOPE  C31320995   3.349   6.020   8.416 -0.9650  0.5596  0.9221
  183SOPE  H13X20996   3.282   5.933   8.434 -2.7251  1.6175 -0.3051
  183SOPE  H13Y20997   3.283   6.096   8.370 -0.5566 -1.1419 -2.8178
  183SOPE  C31420998   3.398   6.066   8.546  0.1250  0.5294 -0.0776
  183SOPE  H14X20999   3.437   6.168   8.526 -0.0809  0.5528 -0.3622
  183SOPE  H14Y21000   3.480   6.001   8.583 -1.8162 -0.6883  2.3945
  183SOPE  C31521001   3.287   6.059   8.648  0.0416 -0.0078  0.0365
  183SOPE  H15X21002   3.322   6.104   8.743 -0.4805  6.1806 -2.2674
  183SOPE  H15Y21003   3.256   5.953   8.658 -0.6042  0.2619  1.0407
  183SOPE  C31621004   3.168   6.147   8.609 -0.3800  0.0169 -0.5775
  183SOPE  H16X21005   3.080   6.121   8.671 -0.2577  0.9325  0.0042
  183SOPE  H16Y21006   3.147   6.146   8.500  3.1487  3.3133 -1.4982
  183SOPE  C31721007   3.190   6.294   8.653 -0.3805 -0.0662 -0.8879
  183SOPE  H17X21008   3.130   6.365   8.591 -0.4752  1.6713  1.0596
  183SOPE  H17Y21009   3.296   6.310   8.623 -0.1085  1.0812  0.5624
  183SOPE  C31821010   3.176   6.318   8.802  0.4422  0.4243 -0.2856
  183SOPE  H18X21011   3.161   6.427   8.815 -1.9274  0.3180 -1.4978
  183SOPE  H18Y21012   3.265   6.292   8.863  0.8385  2.5306  0.1277
  183SOPE  H18Z21013   3.086   6.264   8.839 -1.0905  1.7711 -1.8870
  184SOPE     N21014   1.497   6.049   6.123 -0.1102 -0.1355  0.4388
  184SOPE   HN121015   1.488   6.072   6.022 -1.8283  0.2080  0.6502
  184SOPE   HN221016   1.417   5.986   6.146  0.3529 -1.5838 -1.5721
  184SOPE   HN321017   1.475   6.142   6.163  0.0949 -0.2806  0.8979
  184SOPE   C1221018   1.632   5.994   6.166  0.7410 -0.4727  0.1505
  184SOPE  H12A21019   1.705   6.030   6.090 -0.9552  0.3568 -1.1477
  184SOPE  H12B21020   1.618   5.883   6.167  1.3813 -0.5625  1.3687
  184SOPE   C1121021   1.661   6.036   6.312 -0.4066  0.4769  0.1043
  184SOPE  H11A21022   1.743   5.972   6.352  0.2621  0.4444 -1.2638
  184SOPE  H11B21023   1.575   6.005   6.375 -0.7344 -1.3639 -1.1621
  184SOPE     P21024   1.773   6.243   6.420 -0.3892  0.0755 -0.3055
  184SOPE   O1321025   1.733   6.385   6.422  0.1324 -0.1749 -0.2036
  184SOPE   O1421026   1.911   6.203   6.402 -0.4154 -0.0757 -0.2782
  184SOPE   O1221027   1.681   6.179   6.310  0.1266  0.3842 -0.2941
  184SOPE   O1121028   1.715   6.179   6.551  0.0959 -0.5050  0.1193
  184SOPE    C121029   1.591   6.209   6.606 -0.0268 -0.1213 -0.1618
  184SOPE    HA21030   1.503   6.159   6.561 -0.8592  1.2205 -0.0813
  184SOPE    HB21031   1.567   6.317   6.593 -0.4849 -0.0305  1.2793
  184SOPE    C221032   1.593   6.190   6.758 -0.3511  0.0620 -0.2348
  184SOPE    HS21033   1.696   6.208   6.794  0.2187 -2.0942 -0.6444
  184SOPE   O2121034   1.558   6.055   6.779  0.2356  0.6229  0.2942
  184SOPE   C2121035   1.639   5.984   6.861 -0.5639  0.0960  0.3612
  184SOPE   O2221036   1.732   6.031   6.921 -0.4384  0.4013  0.0964
  184SOPE   C2221037   1.588   5.840   6.862  0.5286  0.2468  0.4717
  184SOPE   H2R21038   1.638   5.782   6.943  0.1041  1.0384  1.3244
  184SOPE   H2S21039   1.632   5.797   6.769 -0.7172 -0.6750  0.2885
  184SOPE    C321040   1.495   6.278   6.838 -0.2888 -0.1009  0.6708
  184SOPE    HX21041   1.397   6.261   6.788  1.0537 -1.4175 -1.7041
  184SOPE    HY21042   1.524   6.385   6.831  0.2717 -0.2769  0.2365
  184SOPE   O3121043   1.489   6.233   6.977 -0.4155  0.1357 -0.2779
  184SOPE   C3121044   1.571   6.298   7.060  0.2257 -0.1177 -0.2052
  184SOPE   O3221045   1.640   6.395   7.022  0.0536 -0.6718 -0.7401
  184SOPE   C3221046   1.578   6.224   7.193  0.2309  0.1218 -0.3578
  184SOPE   H2X21047   1.604   6.117   7.178  1.7831  0.0167  2.3843
  184SOPE   H2Y21048   1.479   6.237   7.241  0.6707  0.0872  0.5857
  184SOPE   C2321049   1.433   5.830   6.858 -0.0212 -0.2033 -0.3921
  184SOPE   H3R21050   1.395   5.726   6.846 -2.3220  0.7448 -2.1896
  184SOPE   H3S21051   1.381   5.865   6.766  1.0181  0.0242 -0.9078
  184SOPE   C2421052   1.363   5.880   6.984  0.0688  0.1153  0.0807
  184SOPE   H4R21053   1.372   5.991   6.980  0.2060  0.1115  0.2900
  184SOPE   H4S21054   1.257   5.850   6.977  0.4472 -0.9827 -1.3190
  184SOPE   C2521055   1.441   5.841   7.108  0.5731  0.6678 -0.4571
  184SOPE   H5R21056   1.467   5.733   7.105  1.9654  0.9859 -0.3493
  184SOPE   H5S21057   1.526   5.911   7.118  1.1194 -0.0691  0.1398
  184SOPE   C2621058   1.365   5.843   7.239  0.0699  0.0966  0.0094
  184SOPE   H6R21059   1.453   5.840   7.307 -0.3897  0.7924  0.6526
  184SOPE   H6S21060   1.310   5.938   7.258  1.1306  0.3257  2.3451
  184SOPE   C2721061   1.269   5.730   7.277  0.2466 -0.3858  0.1055
  184SOPE   H7R21062   1.170   5.727   7.228  0.0883 -0.7205  0.4410
  184SOPE   H7S21063   1.320   5.632   7.265 -0.6916 -0.8913  0.2062
  184SOPE   C2821064   1.241   5.734   7.433 -0.6478 -0.1656  0.3815
  184SOPE   H8R21065   1.195   5.635   7.456  0.2044 -0.7033 -0.1703
  184SOPE   H8S21066   1.343   5.722   7.475 -0.0132  0.2168 -1.0004
  184SOPE   C2921067   1.179   5.858   7.490 -0.6292 -0.0552 -0.8531
  184SOPE   H9121068   1.239   5.949   7.479 -1.2096  0.6842  1.5652
  184SOPE  C21021069   1.054   5.861   7.543  0.0355  0.4359 -0.4698
  184SOPE  H10121070   1.004   5.951   7.581 -0.0481  0.3736 -0.4335
  184SOPE  C21121071   0.963   5.741   7.561 -0.0572 -0.3601 -0.8569
  184SOPE  H11R21072   0.989   5.663   7.487  2.5684 -3.0125  2.5785
  184SOPE  H11S21073   0.865   5.775   7.521  1.4175  3.0602 -1.9839
  184SOPE  C21221074   0.948   5.691   7.704  0.2271  0.1260 -0.5035
  184SOPE  H12R21075   0.863   5.620   7.699  0.5466 -0.2326 -0.9135
  184SOPE  H12S21076   0.910   5.774   7.768  0.1480  0.0369 -0.4344
  184SOPE  C21321077   1.075   5.629   7.767 -0.3289 -0.6637  0.1968
  184SOPE  H13R21078   1.156   5.705   7.763  0.3918 -1.3514  1.3613
  184SOPE  H13S21079   1.100   5.554   7.689 -1.0737  0.0454 -0.7545
  184SOPE  C21421080   1.065   5.563   7.909 -1.1078  0.2258  0.8250
  184SOPE  H14R21081   1.077   5.648   7.980  2.2948 -0.9960  1.9366
  184SOPE  H14S21082   1.151   5.494   7.918 -1.3465 -0.3182 -0.7524
  184SOPE  C21521083   0.948   5.476   7.936 -0.4962  0.7133  0.0380
  184SOPE  H15R21084   0.950   5.379   7.883 -0.9284 -0.1035  1.4672
  184SOPE  H15S21085   0.858   5.531   7.901 -0.5019  0.7765  0.1501
  184SOPE  C21621086   0.922   5.434   8.083  0.8887 -0.1675  0.0788
  184SOPE  H16R21087   0.968   5.501   8.158  1.3216  1.2762 -1.4218
  184SOPE  H16S21088   0.951   5.327   8.097 -0.8639 -0.4132  2.2757
  184SOPE  C21721089   0.770   5.434   8.110  0.8331  0.0033  0.1389
  184SOPE  H17R21090   0.726   5.374   8.028  1.5295  2.6339 -2.3453
  184SOPE  H17S21091   0.738   5.539   8.093  0.0464 -0.7161 -3.5974
  184SOPE  C21821092   0.722   5.370   8.248 -0.2495  0.5401  0.4117
  184SOPE  H18R21093   0.762   5.422   8.337  1.1453  0.2452 -0.0078
  184SOPE  H18S21094   0.751   5.263   8.241  1.9542  1.1951 -2.0485
  184SOPE  H18T21095   0.612   5.360   8.257 -0.2600 -0.1962 -0.3809
  184SOPE   C3321096   1.688   6.288   7.287  0.8835  0.1906 -0.4907
  184SOPE   H3X21097   1.672   6.394   7.317  0.0882 -0.7651  2.9524
  184SOPE   H3Y21098   1.782   6.269   7.231 -0.5419 -2.0007 -2.2962
  184SOPE   C3421099   1.698   6.207   7.418  0.6923 -0.1876 -0.1498
  184SOPE   H4X21100   1.805   6.206   7.447  0.2991  2.2815  1.7366
  184SOPE   H4Y21101   1.673   6.102   7.390 -2.6372  1.2914 -3.7273
  184SOPE   C3521102   1.622   6.268   7.544 -0.2826 -0.3249  0.8526
  184SOPE   H5X21103   1.513   6.259   7.527  0.1479 -0.8195 -2.1945
  184SOPE   H5Y21104   1.645   6.377   7.551 -0.7543  0.2435 -3.5768
  184SOPE   C3621105   1.655   6.200   7.678 -0.3962 -0.2473  0.4669
  184SOPE   H6X21106   1.590   6.247   7.755 -1.6204 -1.0093 -0.0656
  184SOPE   H6Y21107   1.762   6.228   7.691 -0.2120 -1.0601  0.7673
  184SOPE   C3721108   1.640   6.054   7.685  0.2893 -0.5167  0.0569
  184SOPE   H7X21109   1.673   6.014   7.783 -1.5192 -2.2412  0.0434
  184SOPE   H7Y21110   1.702   6.007   7.606 -0.9801 -0.6385 -0.9084
  184SOPE   C3821111   1.495   6.004   7.662 -0.6238 -0.0611 -0.5109
  184SOPE   H8X21112   1.496   5.895   7.680  0.4730 -0.0371 -0.3551
  184SOPE   H8Y21113   1.469   6.018   7.555  2.5784  1.3261 -1.2488
  184SOPE   C3921114   1.381   6.060   7.747 -0.6559  0.1470 -0.3966
  184SOPE   H9X21115   1.285   6.049   7.692 -0.2974 -0.9938 -0.8234
  184SOPE   H9Y21116   1.384   6.170   7.763 -0.6063 -0.0357  0.9285
  184SOPE  C31021117   1.365   5.991   7.882 -0.0905 -0.1741 -0.0039
  184SOPE  H10X21118   1.448   6.018   7.951  0.1994  0.5100 -0.6014
  184SOPE  H10Y21119   1.367   5.880   7.877  1.6713 -0.1624 -0.2889
  184SOPE  C31121120   1.234   6.030   7.953  0.6186  0.0127  0.2391
  184SOPE  H11X21121   1.146   6.002   7.891 -0.0202  0.8797  0.7345
  184SOPE  H11Y21122   1.221   6.141   7.959 -0.3723 -0.1285  0.9282
  184SOPE  C31221123   1.213   5.960   8.090  0.0819 -0.2711  0.6940
  184SOPE  H12X21124   1.301   5.982   8.153 -0.7366  0.2043  1.7007
  184SOPE  H12Y21125   1.221   5.849   8.080 -0.6097 -0.5169  2.4815
  184SOPE  C31321126   1.081   6.009   8.145  0.8739 -0.0691 -0.4256
  184SOPE  H13X21127   0.993   6.006   8.078  0.5044 -4.4075 -0.0507
  184SOPE  H13Y21128   1.092   6.108   8.194 -1.3331 -1.0190  2.2769
  184SOPE  C31421129   1.027   5.932   8.269 -0.1076  0.0938  0.0137
  184SOPE  H14X21130   0.984   5.843   8.219  1.3133 -0.4484 -0.2608
  184SOPE  H14Y21131   0.959   5.996   8.331  1.5047  2.1874 -0.2604
  184SOPE  C31521132   1.135   5.901   8.371 -0.3172 -0.6053 -0.0481
  184SOPE  H15X21133   1.207   5.985   8.380 -1.0516  0.2471 -1.6578
  184SOPE  H15Y21134   1.197   5.817   8.331 -0.6505  0.0667 -2.1081
  184SOPE  C31621135   1.092   5.859   8.520 -0.3558  0.2547  0.5087
  184SOPE  H16X21136   1.029   5.940   8.564  0.2120  1.0294 -0.0660
  184SOPE  H16Y21137   1.180   5.846   8.586 -0.8990  0.6166  1.3203
  184SOPE  C31721138   1.019   5.725   8.513 -0.0154 -0.0661 -0.5292
  184SOPE  H17X21139   0.925   5.747   8.458 -2.1670 -1.0539  2.4944
  184SOPE  H17Y21140   0.979   5.705   8.615  0.3245  0.0769 -0.3637
  184SOPE  C31821141   1.096   5.605   8.453 -0.0241 -0.0347 -0.3951
  184SOPE  H18X21142   1.037   5.512   8.471  0.6047  0.0345  2.4641
  184SOPE  H18Y21143   1.194   5.587   8.503  1.0604  2.9633 -1.2385
  184SOPE  H18Z21144   1.111   5.623   8.344 -0.5941 -0.2762 -0.5179
  185SAPI   C1221145   6.415   1.662  11.072  0.3638  0.2987 -0.4757
  185SAPI    H221146   6.431   1.742  10.997  0.2697  2.2153  1.4625
  185SAPI    O221147   6.286   1.670  11.129  0.2873 -0.4845 -0.5095
  185SAPI   HO221148   6.277   1.755  11.172  1.5214 -0.4912 -0.2060
  185SAPI   C1321149   6.436   1.530  11.008 -0.3963 -0.0460  0.2749
  185SAPI    H321150   6.538   1.528  10.966  0.3089 -2.0056  1.9093
  185SAPI    O321151   6.345   1.510  10.895 -0.4803  0.5899  0.0861
  185SAPI   HO321152   6.255   1.534  10.919 -0.4622  1.3428 -0.5774
  185SAPI   C1421153   6.416   1.417  11.115 -0.2112  0.8830  0.2860
  185SAPI    H421154   6.310   1.412  11.148  0.4056 -3.3844  2.4565
  185SAPI    O421155   6.425   1.282  11.061 -0.2072  0.3466 -0.0165
  185SAPI   HO421156   6.374   1.276  10.980  2.9104  1.5464 -2.2194
  185SAPI   C1521157   6.515   1.435  11.220  0.8253 -1.0611 -0.4128
  185SAPI    H521158   6.621   1.422  11.190  1.5023  1.1094  0.8433
  185SAPI    O521159   6.508   1.329  11.319  0.1914 -0.1988 -0.3390
  185SAPI   HO521160   6.589   1.320  11.370 -2.0305 -0.2192  3.6351
  185SAPI   C1621161   6.505   1.573  11.291 -0.3213 -0.2309 -0.0551
  185SAPI    H621162   6.403   1.577  11.333 -0.5825  2.9521 -0.7502
  185SAPI    O621163   6.604   1.582  11.391  0.1548 -0.9371  0.3725
  185SAPI   HO621164   6.593   1.668  11.432  4.2533 -0.5039  0.9631
  185SAPI   C1121165   6.519   1.680  11.184 -0.0698 -0.1243 -0.1151
  185SAPI    H121166   6.620   1.674  11.138 -0.5158 -1.4044 -0.9896
  185SAPI     P21167   6.573   1.948  11.172  0.1565  0.6960 -0.2434
  185SAPI   O1321168   6.694   1.912  11.099 -0.2565  0.3804 -0.4938
  185SAPI   O1421169   6.586   2.045  11.282 -0.6423  0.3059  0.0285
  185SAPI   O1221170   6.506   1.812  11.243  0.0081  0.1404 -0.6448
  185SAPI   O1121171   6.455   1.995  11.078 -0.9042 -0.2237 -0.0499
  185SAPI    C121172   6.473   2.084  10.976 -0.0179 -0.3225  0.7147
  185SAPI    HA21173   6.493   2.186  11.016 -4.0163 -0.2059  2.9281
  185SAPI    HB21174   6.549   2.056  10.901  0.8542 -1.1571  1.8792
  185SAPI    C221175   6.333   2.103  10.917  0.2233  0.4017  0.1448
  185SAPI    HS21176   6.262   2.107  11.003  1.2149 -1.7820  1.1710
  185SAPI   O2121177   6.314   1.981  10.844 -0.1729 -0.5411 -0.2611
  185SAPI   C2121178   6.188   1.933  10.835 -0.1772  0.6650 -0.0663
  185SAPI   O2221179   6.085   1.988  10.867  0.0886  0.5045 -0.2663
  185SAPI   C2221180   6.199   1.795  10.768  0.4415 -0.4229 -1.2510
  185SAPI   H2R21181   6.306   1.771  10.779  0.4444  0.3897  0.8564
  185SAPI   H2S21182   6.129   1.731  10.826  1.3131  0.1053  0.4305
  185SAPI    C321183   6.325   2.237  10.840 -0.5494 -0.9045  0.1205
  185SAPI    HX21184   6.331   2.324  10.910 -1.7150 -1.5542  1.0644
  185SAPI    HY21185   6.230   2.255  10.785  0.3348  0.5804 -0.9822
  185SAPI   O3121186   6.439   2.243  10.750  0.0471  0.0959  0.0648
  185SAPI   C3121187   6.408   2.206  10.623 -0.2620  0.5985  0.4915
  185SAPI   O3221188   6.295   2.185  10.582  0.3070  0.3216 -0.1280
  185SAPI   C3221189   6.530   2.227  10.531 -0.0239 -0.5317 -0.0130
  185SAPI   H2X21190   6.624   2.196  10.583  0.7816  2.6311  0.5966
  185SAPI   H2Y21191   6.530   2.334  10.502 -0.8367 -0.3295  0.7284
  185SAPI   C2321192   6.172   1.795  10.620 -0.0966  0.2015  0.0591
  185SAPI   H3R21193   6.214   1.884  10.569  0.1004  0.2497  0.3039
  185SAPI   H3S21194   6.062   1.805  10.603  0.0553  1.2556 -0.3818
  185SAPI   C2421195   6.215   1.659  10.560 -1.5494 -0.3079  0.9170
  185SAPI   H4R21196   6.323   1.653  10.585 -1.5306  2.1712  1.7044
  185SAPI   H4S21197   6.207   1.675  10.450 -0.8933 -0.3451  0.8640
  185SAPI   C2521198   6.134   1.538  10.598  0.0133  0.0981 -0.5195
  185SAPI   H5R21199   6.093   1.528  10.700 -0.7160 -1.1646 -0.9081
  185SAPI   C2621200   6.087   1.439  10.517 -0.2082  0.0141 -0.1812
  185SAPI   H6R21201   6.016   1.371  10.567  1.5117 -1.1901  0.7718
  185SAPI   C2721202   6.108   1.419  10.368  0.5197 -0.4390  0.8212
  185SAPI   H7R21203   6.163   1.324  10.352  0.5654 -0.6390  2.0816
  185SAPI   H7S21204   6.173   1.499  10.328 -0.0376 -0.6367 -0.5479
  185SAPI   C2821205   5.978   1.413  10.292  0.3025  0.0854 -0.6012
  185SAPI   H8R21206   5.900   1.359  10.348 -0.9184  0.6405 -1.7026
  185SAPI   C2921207   5.949   1.466  10.171 -0.0553 -0.4441  0.1602
  185SAPI   H9R21208   5.848   1.448  10.130  0.0786 -0.0031 -0.3626
  185SAPI  C21021209   6.036   1.536  10.073  0.0680 -0.6452  0.6566
  185SAPI  H10R21210   6.128   1.561  10.131  1.0948 -0.4062 -1.0148
  185SAPI  H10S21211   5.983   1.628  10.040  0.7349 -0.7215 -0.6792
  185SAPI  C21121212   6.067   1.439   9.960  0.4341 -0.0024  0.0084
  185SAPI  H11R21213   6.161   1.384   9.980  0.9535  0.5653 -0.8069
  185SAPI  C21221214   5.999   1.404   9.852  0.4477  0.2471  0.2697
  185SAPI  H12R21215   6.018   1.303   9.813 -0.4107 -0.1883  0.9206
  185SAPI  C21321216   5.861   1.447   9.802  0.0286 -0.4592  0.2036
  185SAPI  H13R21217   5.787   1.421   9.881 -0.4243 -1.9317 -0.6556
  185SAPI  H13S21218   5.815   1.389   9.719  1.9980 -0.5529 -0.8927
  185SAPI  C21421219   5.856   1.590   9.757  0.5432  0.3840 -0.8396
  185SAPI  H14R21220   5.808   1.651   9.835  1.8509 -1.0315  1.1653
  185SAPI  C21521221   5.900   1.645   9.640  0.3846 -0.4312 -0.4452
  185SAPI  H15R21222   5.885   1.753   9.624 -1.9121 -0.4359  1.1475
  185SAPI  C21621223   5.977   1.569   9.533  0.2701  0.1176 -0.2496
  185SAPI  H16R21224   6.008   1.467   9.563  4.2759  0.5509 -2.2695
  185SAPI  H16S21225   6.066   1.634   9.519  1.5267 -1.1132  1.6453
  185SAPI  C21721226   5.898   1.569   9.405  0.3909  0.2968 -0.1879
  185SAPI  H17R21227   5.806   1.508   9.420  0.5232  0.1474  0.0154
  185SAPI  H17S21228   5.960   1.508   9.336 -3.3706 -3.7211 -0.4399
  185SAPI  C21821229   5.870   1.710   9.346  0.3606  0.6503  0.1814
  185SAPI  H18R21230   5.972   1.755   9.349  1.6075 -2.0595  0.9542
  185SAPI  H18S21231   5.796   1.762   9.410 -1.6438  0.5766 -1.9213
  185SAPI  C21921232   5.807   1.722   9.205  0.1531  0.4992 -0.2327
  185SAPI  H19R21233   5.798   1.827   9.171 -3.6580  0.5322  0.4451
  185SAPI  H19S21234   5.698   1.711   9.217  0.0007  2.3101  0.3353
  185SAPI  C22021235   5.866   1.629   9.102  0.1540  0.5198 -0.4664
  185SAPI  H20R21236   5.858   1.527   9.147 -1.2087  0.3090 -1.1394
  185SAPI  H20S21237   5.977   1.637   9.098  0.2393 -0.2045  0.2344
  185SAPI  H20T21238   5.820   1.644   9.002 -0.8052  0.1193 -0.0980
  185SAPI   C3321239   6.506   2.157  10.393 -0.1687 -0.3034  0.1786
  185SAPI   H3X21240   6.591   2.169  10.323  0.1729  1.0431  0.7949
  185SAPI   H3Y21241   6.419   2.205  10.343  1.4675 -0.0012 -2.5625
  185SAPI   C3421242   6.494   2.002  10.401  0.1858  0.4359  0.6940
  185SAPI   H4X21243   6.398   1.986  10.455  1.3233  2.1768  3.4456
  185SAPI   H4Y21244   6.580   1.957  10.454  2.0672  0.6946 -1.9492
  185SAPI   C3521245   6.481   1.940  10.262  0.0048 -0.1807 -0.1761
  185SAPI   H5X21246   6.466   1.833  10.287  2.6050 -0.3920  0.8828
  185SAPI   H5Y21247   6.581   1.944  10.213  0.1777  0.4593  0.2183
  185SAPI   C3621248   6.369   2.000  10.171 -0.1303  0.0100  0.9716
  185SAPI   H6X21249   6.385   2.108  10.149  3.8111 -0.9005 -1.5643
  185SAPI   H6Y21250   6.276   1.993  10.231 -0.3743 -1.8758  0.4230
  185SAPI   C3721251   6.357   1.949  10.031  0.4880  0.2780 -0.2115
  185SAPI   H7X21252   6.438   1.978   9.961  0.0547  2.2127  0.0438
  185SAPI   H7Y21253   6.260   1.984   9.989 -0.4126 -0.4703  1.1814
  185SAPI   C3821254   6.366   1.792  10.035  0.7249 -0.0082 -0.3018
  185SAPI   H8X21255   6.311   1.750  10.121  0.3755  1.3046  0.1454
  185SAPI   H8Y21256   6.474   1.775  10.052  0.7941 -1.1960 -1.7859
  185SAPI   C3921257   6.316   1.724   9.908  0.3804  1.2618 -1.2257
  185SAPI   H9X21258   6.207   1.746   9.909 -0.3162 -1.7469  0.7506
  185SAPI   H9Y21259   6.328   1.614   9.914  1.9971  1.4934  1.1530
  185SAPI  C31021260   6.370   1.783   9.777 -0.5262 -0.9165  0.5691
  185SAPI  H10X21261   6.480   1.789   9.762 -0.5847 -1.3454 -0.1139
  185SAPI  H10Y21262   6.339   1.889   9.764  1.5940 -0.0235  2.2702
  185SAPI  C31121263   6.316   1.720   9.650  0.0787 -0.2462 -0.0860
  185SAPI  H11X21264   6.205   1.731   9.646 -0.0381 -1.4893 -0.6746
  185SAPI  H11Y21265   6.333   1.611   9.651  0.3267 -0.2557  2.3382
  185SAPI  C31221266   6.364   1.801   9.529  0.2575  0.6459  0.3260
  185SAPI  H12X21267   6.475   1.799   9.518  0.1077 -0.2393 -1.3875
  185SAPI  H12Y21268   6.345   1.911   9.527  0.5781  0.7292 -2.4115
  185SAPI  C31321269   6.320   1.735   9.388 -0.3255 -0.2104 -0.7135
  185SAPI  H13X21270   6.211   1.759   9.387  0.2945  3.4295  1.5540
  185SAPI  H13Y21271   6.339   1.626   9.399  0.7990  0.0393  0.0215
  185SAPI  C31421272   6.384   1.800   9.268 -0.0769  0.0374  0.5099
  185SAPI  H14X21273   6.495   1.803   9.267 -0.0869  0.9209 -0.9492
  185SAPI  H14Y21274   6.346   1.904   9.262 -0.3416  0.0048  1.4157
  185SAPI  C31521275   6.328   1.731   9.140 -0.0067  0.1359 -0.1227
  185SAPI  H15X21276   6.219   1.729   9.159 -0.0019 -1.3112 -0.1718
  185SAPI  H15Y21277   6.369   1.628   9.141  0.4962  0.3341  0.1360
  185SAPI  C31621278   6.332   1.808   9.007 -0.4545 -0.0554 -0.2800
  185SAPI  H16X21279   6.434   1.803   8.964 -0.9914 -2.1370 -1.4609
  185SAPI  H16Y21280   6.312   1.916   9.022  0.6578  0.1221 -0.0146
  185SAPI  C31721281   6.238   1.743   8.895 -0.0169  0.3628 -0.2085
  185SAPI  H17X21282   6.251   1.794   8.797  1.0209  0.6176  0.0451
  185SAPI  H17Y21283   6.135   1.762   8.932  0.2747 -2.2045  2.2393
  185SAPI  C31821284   6.263   1.595   8.881 -0.4762 -0.2319 -0.2664
  185SAPI  H18X21285   6.193   1.563   8.801  1.2478  0.8177 -2.3249
  185SAPI  H18Y21286   6.233   1.532   8.967  1.4047 -0.5340  0.2162
  185SAPI  H18Z21287   6.361   1.561   8.841  0.3869  0.4848  1.1562
  186SAPI   C1221288   1.368   5.607  10.976  0.0941  1.3301 -0.0102
  186SAPI    H221289   1.301   5.541  11.036  1.9517  0.3728  1.1027
  186SAPI    O221290   1.329   5.597  10.835 -0.5212  0.1706  0.1624
  186SAPI   HO221291   1.368   5.517  10.800 -1.3109  0.5166 -1.6010
  186SAPI   C1321292   1.343   5.743  11.033  0.3469 -0.2177  0.1881
  186SAPI    H321293   1.383   5.728  11.136  2.4634 -2.1362 -0.8249
  186SAPI    O321294   1.207   5.780  11.040  0.0582  0.1591  0.1710
  186SAPI   HO321295   1.178   5.753  10.953  0.9914 -0.6566  0.0913
  186SAPI   C1421296   1.432   5.841  10.956  0.9279  0.1391  0.4647
  186SAPI    H421297   1.398   5.834  10.850  0.4883 -0.1699  0.6217
  186SAPI    O421298   1.407   5.972  11.013  0.0087  0.3206 -0.5377
  186SAPI   HO421299   1.342   6.026  10.968  2.0952  1.1765 -2.7823
  186SAPI   C1521300   1.574   5.797  10.965  0.1444 -0.1104  0.5966
  186SAPI    H521301   1.607   5.808  11.071 -0.1992  0.9640  0.5998
  186SAPI    O521302   1.667   5.880  10.894  0.5249  0.2906  0.3429
  186SAPI   HO521303   1.754   5.854  10.924 -1.2227 -4.4210  2.3011
  186SAPI   C1621304   1.604   5.658  10.922  0.5444  0.1146 -1.3223
  186SAPI    H621305   1.576   5.644  10.815 -0.2735  1.5821 -1.3221
  186SAPI    O621306   1.738   5.626  10.953  0.0567  0.3734  0.1756
  186SAPI   HO621307   1.748   5.534  10.978 -1.4307  0.8027  2.7013
  186SAPI   C1121308   1.508   5.563  10.996 -0.3150  0.5366 -0.3995
  186SAPI    H121309   1.526   5.571  11.105 -1.8938  0.7077 -0.1231
  186SAPI     P21310   1.457   5.302  11.023  0.0195  0.0184 -0.3946
  186SAPI   O1321311   1.430   5.331  11.166  0.4453 -0.7892  0.2061
  186SAPI   O1421312   1.520   5.178  10.986  0.2959  0.6035  0.1280
  186SAPI   O1221313   1.529   5.428  10.948  0.6359  0.0320 -0.0098
  186SAPI   O1121314   1.322   5.300  10.948  0.2595  0.2693  0.7874
  186SAPI    C121315   1.286   5.203  10.841 -0.5711  0.1426 -0.7225
  186SAPI    HA21316   1.371   5.134  10.820  0.5798  1.0413  0.8036
  186SAPI    HB21317   1.202   5.136  10.869  2.6319 -3.5190  0.9901
  186SAPI    C221318   1.265   5.271  10.702  0.0392 -0.6599  0.3711
  186SAPI    HS21319   1.248   5.198  10.620 -0.3239 -0.3696  0.1857
  186SAPI   O2121320   1.371   5.362  10.663  0.1191 -0.6179 -0.0744
  186SAPI   C2121321   1.479   5.309  10.625  0.5771 -0.0079  0.0122
  186SAPI   O2221322   1.488   5.189  10.590 -0.1867  0.0787  0.8509
  186SAPI   C2221323   1.592   5.409  10.628 -0.5187 -1.0295  0.5502
  186SAPI   H2R21324   1.542   5.504  10.655 -1.2882 -0.7902 -1.5941
  186SAPI   H2S21325   1.649   5.375  10.718 -1.8360  0.1682  1.8943
  186SAPI    C321326   1.130   5.357  10.702 -0.5429  0.1369  0.5109
  186SAPI    HX21327   1.146   5.437  10.777 -0.4648 -0.2553  0.9154
  186SAPI    HY21328   1.050   5.286  10.734  0.5122  0.2598  3.8182
  186SAPI   O3121329   1.125   5.410  10.563  0.8727 -1.2570 -0.2322
  186SAPI   C3121330   1.015   5.482  10.538  0.6747  0.8362 -0.3870
  186SAPI   O3221331   0.911   5.490  10.604  0.1967  0.7088 -0.4650
  186SAPI   C3221332   1.014   5.545  10.399  0.4103 -0.5119 -0.3812
  186SAPI   H2X21333   0.940   5.627  10.409  1.6493  0.6376 -0.5401
  186SAPI   H2Y21334   0.977   5.473  10.322  0.8998 -0.0902 -1.0109
  186SAPI   C2321335   1.685   5.413  10.500  0.6442 -0.2282 -0.4639
  186SAPI   H3R21336   1.701   5.315  10.451 -1.9909  0.2943 -2.6591
  186SAPI   H3S21337   1.785   5.453  10.526 -0.1095  1.6103 -0.2394
  186SAPI   C2421338   1.627   5.507  10.394  0.2229  0.5205 -0.7408
  186SAPI   H4R21339   1.521   5.474  10.387  0.5883 -0.9027  0.0794
  186SAPI   H4S21340   1.677   5.481  10.298  2.8875 -0.6629  0.8645
  186SAPI   C2521341   1.617   5.651  10.430  0.3969 -0.4154  0.2520
  186SAPI   H5R21342   1.587   5.671  10.534  0.5064  0.1119  0.1848
  186SAPI   C2621343   1.651   5.756  10.348 -0.4916  0.2455  0.4112
  186SAPI   H6R21344   1.642   5.850  10.404  0.7939  0.6465 -0.0115
  186SAPI   C2721345   1.699   5.763  10.203 -0.2130 -0.9505  0.5559
  186SAPI   H7R21346   1.770   5.849  10.196  0.0069 -0.9449  2.3720
  186SAPI   H7S21347   1.615   5.790  10.135 -0.4745 -0.2831  1.1221
  186SAPI   C2821348   1.777   5.642  10.152 -0.1811 -0.0702 -0.2265
  186SAPI   H8R21349   1.857   5.612  10.222 -0.4671  1.7616  0.9444
  186SAPI   C2921350   1.750   5.582  10.037 -0.4083  0.3395  0.0246
  186SAPI   H9R21351   1.812   5.493  10.018 -0.2934  0.3641  0.2824
  186SAPI  C21021352   1.639   5.605   9.934  0.2367 -0.4752  0.1747
  186SAPI  H10R21353   1.541   5.579   9.978  0.1010 -0.2249  0.0162
  186SAPI  H10S21354   1.664   5.530   9.855  0.1343  0.4942 -0.7901
  186SAPI  C21121355   1.622   5.741   9.872  0.4656  1.1056 -0.4489
  186SAPI  H11R21356   1.563   5.808   9.936  1.2776 -0.6729  2.3363
  186SAPI  C21221357   1.674   5.788   9.762  0.4831  0.5727 -1.0570
  186SAPI  H12R21358   1.663   5.894   9.734  0.2240  0.6232 -0.7581
  186SAPI  C21321359   1.758   5.710   9.665 -0.2728  0.3735  0.1739
  186SAPI  H13R21360   1.827   5.649   9.728 -0.4437  0.6339  0.6214
  186SAPI  H13S21361   1.826   5.785   9.618 -0.4208  0.6544  0.4055
  186SAPI  C21421362   1.698   5.629   9.555 -0.6596  0.5332 -0.4394
  186SAPI  H14R21363   1.639   5.542   9.588 -0.9155  0.3447 -1.3504
  186SAPI  C21521364   1.707   5.642   9.416 -0.0162  0.8933 -0.2184
  186SAPI  H15R21365   1.657   5.566   9.353  1.7883 -1.5886  1.1513
  186SAPI  C21621366   1.779   5.746   9.339  0.2971  0.3955  0.1821
  186SAPI  H16R21367   1.847   5.686   9.274  0.8255 -1.3806  2.2643
  186SAPI  H16S21368   1.843   5.811   9.402  2.6634 -0.7300 -0.9460
  186SAPI  C21721369   1.679   5.826   9.257 -0.7751  0.8797  0.1545
  186SAPI  H17R21370   1.603   5.876   9.320 -0.9741 -0.4711  1.0212
  186SAPI  H17S21371   1.625   5.760   9.185  3.0841 -1.1537 -1.1389
  186SAPI  C21821372   1.757   5.930   9.167  0.6698  0.3148 -0.2354
  186SAPI  H18R21373   1.687   5.955   9.085 -0.8821  1.9746  1.4657
  186SAPI  H18S21374   1.846   5.878   9.126  0.3303  0.5017 -1.2258
  186SAPI  C21921375   1.809   6.052   9.234 -0.3733 -0.4780 -0.3235
  186SAPI  H19R21376   1.863   6.008   9.321  0.8380 -1.5508 -1.5748
  186SAPI  H19S21377   1.729   6.114   9.279 -0.1653 -1.6944  1.8769
  186SAPI  C22021378   1.894   6.138   9.135  0.3450 -0.2232  0.5661
  186SAPI  H20R21379   1.840   6.174   9.045  1.4583  2.2287  0.7937
  186SAPI  H20S21380   1.972   6.068   9.098  0.9165  0.1561  1.0404
  186SAPI  H20T21381   1.944   6.223   9.185  4.1942 -2.2029  0.4773
  186SAPI   C3321382   1.159   5.580  10.357  0.2875 -0.9108 -0.0383
  186SAPI   H3X21383   1.216   5.491  10.325  0.8519 -0.1151 -1.3370
  186SAPI   H3Y21384   1.220   5.633  10.434 -0.2273  0.8246 -0.7606
  186SAPI   C3421385   1.172   5.669  10.234  0.5547 -0.2551  0.2246
  186SAPI   H4X21386   1.093   5.747  10.244 -0.6419 -1.4130  0.2111
  186SAPI   H4Y21387   1.145   5.604  10.149  2.2646 -1.6778  0.7286
  186SAPI   C3521388   1.308   5.733  10.208  0.6343  0.5223  0.3183
  186SAPI   H5X21389   1.379   5.650  10.224 -0.3254 -0.2550  0.6318
  186SAPI   H5Y21390   1.326   5.803  10.292  0.4765 -0.7005  1.3947
  186SAPI   C3621391   1.320   5.809  10.077  0.3448 -0.4142 -0.8787
  186SAPI   H6X21392   1.346   5.728  10.005  0.6998 -1.3503  0.2693
  186SAPI   H6Y21393   1.403   5.883  10.080  1.1032 -1.1746 -2.1944
  186SAPI   C3721394   1.184   5.872  10.029 -0.1225  0.2393 -0.4326
  186SAPI   H7X21395   1.149   5.952  10.097  0.2805 -0.1679  0.2597
  186SAPI   H7Y21396   1.107   5.793  10.012  0.4148 -0.6826  1.1942
  186SAPI   C3821397   1.202   5.940   9.897 -0.0398 -0.5679  0.3475
  186SAPI   H8X21398   1.297   5.997   9.897 -1.0541  1.2012  1.0825
  186SAPI   H8Y21399   1.121   6.010   9.867 -0.4924 -1.6726 -1.1307
  186SAPI   C3921400   1.220   5.829   9.785  0.1774  0.0531  0.3121
  186SAPI   H9X21401   1.145   5.751   9.813  1.8469 -1.2411  1.3566
  186SAPI   H9Y21402   1.322   5.786   9.792  0.3746  0.3846 -0.4301
  186SAPI  C31021403   1.214   5.890   9.636 -0.4008 -0.3434 -0.8683
  186SAPI  H10X21404   1.283   5.977   9.626  1.9003 -2.1552 -1.5067
  186SAPI  H10Y21405   1.112   5.932   9.625 -1.4844 -2.3754  0.8256
  186SAPI  C31121406   1.235   5.793   9.525  0.4589  0.8212 -0.8846
  186SAPI  H11X21407   1.161   5.713   9.543 -0.3122  1.5963 -0.5256
  186SAPI  H11Y21408   1.337   5.750   9.531  0.1207 -0.1727 -2.0022
  186SAPI  C31221409   1.217   5.854   9.391 -0.1589  0.4248 -0.4280
  186SAPI  H12X21410   1.296   5.931   9.377 -0.4611  0.7342 -0.4479
  186SAPI  H12Y21411   1.120   5.908   9.386 -0.1353  0.4051 -1.1402
  186SAPI  C31321412   1.220   5.755   9.273  1.0223  0.1940  0.0831
  186SAPI  H13X21413   1.153   5.671   9.301  0.6246  0.4533 -0.0914
  186SAPI  H13Y21414   1.322   5.713   9.258  0.7521  0.1000 -1.6907
  186SAPI  C31421415   1.180   5.816   9.140 -0.1425  0.3602  0.1518
  186SAPI  H14X21416   1.252   5.891   9.103  1.2255 -0.4953  0.9827
  186SAPI  H14Y21417   1.076   5.852   9.153  0.0022  0.9113 -0.2132
  186SAPI  C31521418   1.166   5.713   9.023 -1.2393  0.9233  0.0533
  186SAPI  H15X21419   1.090   5.739   8.946 -2.7313  0.2404  1.2423
  186SAPI  H15Y21420   1.139   5.611   9.057  0.5814  0.5237  0.4201
  186SAPI  C31621421   1.309   5.692   8.957  0.5898 -0.2004 -0.2485
  186SAPI  H16X21422   1.373   5.641   9.032  0.2921 -0.2868 -0.0498
  186SAPI  H16Y21423   1.359   5.789   8.937  1.5095 -0.6331 -0.1043
  186SAPI  C31721424   1.306   5.622   8.823 -0.8118 -0.0138 -1.0446
  186SAPI  H17X21425   1.224   5.668   8.763 -1.6847 -0.7837 -0.4878
  186SAPI  H17Y21426   1.283   5.515   8.845 -0.8273  0.5413  2.1446
  186SAPI  C31821427   1.434   5.633   8.743  0.4729 -0.2284 -0.6952
  186SAPI  H18X21428   1.460   5.741   8.746  1.3128 -0.4271 -0.5583
  186SAPI  H18Y21429   1.421   5.584   8.644  0.2042 -1.1547 -0.2161
  186SAPI  H18Z21430   1.516   5.580   8.795  0.5644 -0.3385 -0.9504
  187SAPI   C1221431   3.565   4.416   6.170 -0.5545 -0.4599  0.1118
  187SAPI    H221432   3.482   4.461   6.230  1.7351  0.3873  2.9033
  187SAPI    O221433   3.512   4.350   6.055  0.1244 -0.0409 -0.1868
  187SAPI   HO221434   3.417   4.353   6.055  0.0800 -0.9896 -0.6341
  187SAPI   C1321435   3.665   4.522   6.131 -0.1282 -0.5015 -0.7015
  187SAPI    H321436   3.691   4.575   6.225 -2.1222 -1.2301  0.3132
  187SAPI    O321437   3.603   4.620   6.049  0.7985  0.2111  0.3332
  187SAPI   HO321438   3.596   4.597   5.956 -0.9833  0.3738  0.3896
  187SAPI   C1421439   3.785   4.465   6.068  0.0327  0.2688 -0.5346
  187SAPI    H421440   3.755   4.413   5.975 -1.1688 -1.8093  0.9230
  187SAPI    O421441   3.880   4.563   6.033 -0.0049  0.2684 -0.1093
  187SAPI   HO421442   3.909   4.604   6.114  0.2360 -2.4198  1.2924
  187SAPI   C1521443   3.852   4.362   6.159  0.4116 -0.1780 -0.3533
  187SAPI    H521444   3.884   4.412   6.253  0.2648  0.9490 -0.8872
  187SAPI    O521445   3.968   4.293   6.098 -0.5197  0.0135  0.2513
  187SAPI   HO521446   4.004   4.217   6.145 -0.0327 -0.2209 -0.4806
  187SAPI   C1621447   3.752   4.262   6.204  0.3184 -0.3703  0.6125
  187SAPI    H621448   3.716   4.197   6.122 -0.6226 -1.6233  1.9623
  187SAPI    O621449   3.816   4.178   6.304  0.1311 -0.8254 -0.1352
  187SAPI   HO621450   3.790   4.215   6.389  2.3740 -0.2122  0.3599
  187SAPI   C1121451   3.629   4.318   6.271  0.0495  0.6894 -1.0553
  187SAPI    H121452   3.667   4.382   6.353  0.0772 -0.9368  0.2666
  187SAPI     P21453   3.423   4.243   6.423 -0.0544 -0.4081  0.1631
  187SAPI   O1321454   3.313   4.148   6.399 -0.2336 -0.0402  0.0461
  187SAPI   O1421455   3.389   4.386   6.441 -0.0090  0.4992 -0.6907
  187SAPI   O1221456   3.537   4.218   6.310 -0.0067  0.2612  0.4722
  187SAPI   O1121457   3.503   4.194   6.553 -0.5050  0.5617  0.2754
  187SAPI    C121458   3.439   4.178   6.679  0.4289 -0.5722  0.1383
  187SAPI    HA21459   3.506   4.204   6.763  1.1684 -1.0811 -0.2856
  187SAPI    HB21460   3.359   4.255   6.687 -0.2446 -0.9940 -1.9435
  187SAPI    C221461   3.374   4.037   6.692  0.4783  1.2252 -0.4442
  187SAPI    HS21462   3.305   4.030   6.605  0.3661  0.8122 -0.3240
  187SAPI   O2121463   3.319   4.035   6.826 -0.4257  0.3047  0.3927
  187SAPI   C2121464   3.196   4.022   6.828 -0.2097 -0.5326 -0.5288
  187SAPI   O2221465   3.120   4.013   6.733 -0.6509  0.3242  0.4155
  187SAPI   C2221466   3.148   4.040   6.972 -0.3087 -0.9465 -0.6079
  187SAPI   H2R21467   3.208   4.128   7.005 -1.6093  0.0304 -0.7797
  187SAPI   H2S21468   3.045   4.080   6.963 -0.1293 -0.4565 -0.5108
  187SAPI    C321469   3.477   3.921   6.678  0.3543 -0.0169  0.7085
  187SAPI    HX21470   3.566   3.952   6.737  0.3676  0.6362  0.3535
  187SAPI    HY21471   3.509   3.912   6.572  3.7389 -0.2271  1.6203
  187SAPI   O3121472   3.423   3.798   6.722  0.2213 -0.3342 -0.3459
  187SAPI   C3121473   3.507   3.694   6.724  0.1600 -0.3936  0.2480
  187SAPI   O3221474   3.623   3.701   6.694 -0.1841  0.3833 -0.1066
  187SAPI   C3221475   3.436   3.577   6.765  0.3007  1.2792 -0.3522
  187SAPI   H2X21476   3.506   3.491   6.767 -1.0030  0.1481  2.0520
  187SAPI   H2Y21477   3.352   3.571   6.693 -2.1274  1.3315  2.2849
  187SAPI   C2321478   3.169   3.919   7.063  0.3034  0.7696 -0.2049
  187SAPI   H3R21479   3.260   3.866   7.027  0.9704  2.3671 -0.9678
  187SAPI   H3S21480   3.088   3.844   7.054 -0.4606  1.3603  1.3772
  187SAPI   C2421481   3.165   3.953   7.215 -0.5435  0.2225  0.5087
  187SAPI   H4R21482   3.234   4.040   7.227 -1.8905  1.6321 -1.3180
  187SAPI   H4S21483   3.207   3.869   7.274  1.2923  0.5976 -0.1988
  187SAPI   C2521484   3.036   4.017   7.256  0.5518  0.6037  0.7088
  187SAPI   H5R21485   2.993   4.062   7.165  1.9091 -0.4077 -0.4777
  187SAPI   C2621486   2.963   3.993   7.369  0.4734 -0.7586  1.2159
  187SAPI   H6R21487   2.872   4.049   7.391 -0.1436 -1.5124  0.6316
  187SAPI   C2721488   3.006   3.895   7.479  0.3459  0.0036  0.5013
  187SAPI   H7R21489   3.090   3.831   7.445  0.1567  0.7758 -1.5685
  187SAPI   H7S21490   2.919   3.828   7.497 -0.3401  0.3940 -1.1177
  187SAPI   C2821491   3.067   3.957   7.605 -0.1999 -0.5621  0.5083
  187SAPI   H8R21492   3.169   3.996   7.600  0.6586 -2.8901 -2.7843
  187SAPI   C2921493   2.999   3.977   7.720  0.0503  0.4871  0.3704
  187SAPI   H9R21494   3.066   4.003   7.804  0.4973 -0.2468  0.2525
  187SAPI  C21021495   2.863   3.922   7.749 -0.4632  0.4974 -0.1145
  187SAPI  H10R21496   2.827   3.855   7.668 -0.8458  2.7584 -1.9000
  187SAPI  H10S21497   2.794   4.008   7.740 -1.1387 -0.1671 -1.6009
  187SAPI  C21121498   2.863   3.851   7.879 -0.3710 -0.2445  0.2471
  187SAPI  H11R21499   2.860   3.741   7.883  0.4610 -0.2551  2.5064
  187SAPI  C21221500   2.859   3.911   8.000 -0.3500  0.1675 -0.0615
  187SAPI  H12R21501   2.863   3.845   8.089  3.1952 -1.2162 -1.1040
  187SAPI  C21321502   2.868   4.054   8.024  0.0908 -0.3971  0.3315
  187SAPI  H13R21503   2.896   4.107   7.930 -0.3428 -0.1407  0.3420
  187SAPI  H13S21504   2.953   4.085   8.089  1.2273  0.6121 -1.5607
  187SAPI  C21421505   2.734   4.111   8.068 -0.3035 -0.7094  0.6598
  187SAPI  H14R21506   2.647   4.090   8.004 -0.6790  0.0328  0.9112
  187SAPI  C21521507   2.703   4.185   8.176  0.3326  0.5065  0.0939
  187SAPI  H15R21508   2.600   4.224   8.181 -0.2482 -1.0699  3.4639
  187SAPI  C21621509   2.791   4.237   8.287 -0.2197 -0.3309 -0.0150
  187SAPI  H16R21510   2.789   4.348   8.292  2.0484 -0.2594  0.5410
  187SAPI  H16S21511   2.895   4.198   8.287  0.3922  0.9217 -4.0175
  187SAPI  C21721512   2.731   4.208   8.423 -0.0468  0.3771 -0.1037
  187SAPI  H17R21513   2.699   4.103   8.435  0.1646  0.5046  1.9912
  187SAPI  H17S21514   2.637   4.267   8.431 -0.6054 -0.5382  0.2506
  187SAPI  C21821515   2.819   4.248   8.540 -0.3444  0.5357 -0.7853
  187SAPI  H18R21516   2.830   4.358   8.540 -2.0853  0.7445 -1.8412
  187SAPI  H18S21517   2.918   4.203   8.514 -0.4920  0.2898 -0.9269
  187SAPI  C21921518   2.784   4.188   8.679 -0.1120  0.1937 -0.3273
  187SAPI  H19R21519   2.783   4.078   8.685  0.0639  0.0826 -1.8336
  187SAPI  H19S21520   2.683   4.229   8.701 -0.7134 -1.7211  0.7112
  187SAPI  C22021521   2.887   4.247   8.772 -0.5205 -0.5022  0.0415
  187SAPI  H20R21522   2.853   4.352   8.778  0.9867  0.0606 -0.7594
  187SAPI  H20S21523   2.993   4.249   8.736  0.3157  0.7983  2.3502
  187SAPI  H20T21524   2.871   4.204   8.874 -0.8085  0.1094  0.2561
  187SAPI   C3321525   3.371   3.592   6.905 -0.1226 -0.7985  0.0075
  187SAPI   H3X21526   3.318   3.498   6.932 -0.2732 -0.2606  1.6941
  187SAPI   H3Y21527   3.307   3.683   6.910 -1.4405 -1.5554 -1.9316
  187SAPI   C3421528   3.484   3.589   7.009  0.4241  0.4453 -0.4583
  187SAPI   H4X21529   3.538   3.685   7.022 -0.9973  1.1807  0.2898
  187SAPI   H4Y21530   3.554   3.517   6.962  1.2768  0.8506  0.1544
  187SAPI   C3521531   3.427   3.551   7.150 -0.2780  0.2223 -0.3583
  187SAPI   H5X21532   3.368   3.457   7.149 -1.8518  1.1171  1.5920
  187SAPI   H5Y21533   3.342   3.613   7.183  0.1380 -0.2559  1.7599
  187SAPI   C3621534   3.530   3.558   7.264  0.2442  0.2695  0.1768
  187SAPI   H6X21535   3.563   3.664   7.262  1.1862  0.0008 -2.2060
  187SAPI   H6Y21536   3.620   3.497   7.240 -1.4477 -1.0532 -3.7203
  187SAPI   C3721537   3.467   3.525   7.405  0.2861  0.2473 -0.3410
  187SAPI   H7X21538   3.549   3.536   7.479 -0.9265  1.4093  0.9023
  187SAPI   H7Y21539   3.426   3.422   7.401 -0.9831  0.7473 -0.9173
  187SAPI   C3821540   3.353   3.624   7.431 -0.1041 -0.4886 -0.5967
  187SAPI   H8X21541   3.259   3.598   7.378 -1.0438  1.6335 -0.1014
  187SAPI   H8Y21542   3.387   3.724   7.396 -1.4873  0.6158  1.0260
  187SAPI   C3921543   3.311   3.643   7.583  0.1051  0.4541  0.4240
  187SAPI   H9X21544   3.226   3.714   7.593 -0.3915  0.0899 -0.9456
  187SAPI   H9Y21545   3.391   3.703   7.631  0.5248 -0.0058  0.3152
  187SAPI  C31021546   3.281   3.521   7.668  0.1638  0.5872 -0.2502
  187SAPI  H10X21547   3.356   3.440   7.660 -0.9372 -0.4884  0.0309
  187SAPI  H10Y21548   3.193   3.462   7.634  0.4433 -0.4624  0.7730
  187SAPI  C31121549   3.231   3.565   7.815  0.5381 -0.3436  0.2436
  187SAPI  H11X21550   3.147   3.638   7.816  0.9903  0.3183 -2.4434
  187SAPI  H11Y21551   3.305   3.622   7.875 -0.0529 -0.1275  0.7661
  187SAPI  C31221552   3.198   3.436   7.888 -0.4173  0.1552 -0.5939
  187SAPI  H12X21553   3.287   3.370   7.896 -0.9363 -0.5077 -0.2454
  187SAPI  H12Y21554   3.118   3.380   7.836  0.1020 -0.9017 -0.2746
  187SAPI  C31321555   3.151   3.457   8.033 -0.0752  0.6559 -0.3706
  187SAPI  H13X21556   3.192   3.551   8.074 -0.0084 -0.1221  1.4219
  187SAPI  H13Y21557   3.202   3.378   8.092  1.2182  1.5544 -0.2447
  187SAPI  C31421558   3.002   3.460   8.068  0.2029 -0.1699 -0.1090
  187SAPI  H14X21559   2.946   3.382   8.011  0.2882  0.7460 -1.4872
  187SAPI  H14Y21560   2.972   3.562   8.036  1.4614  0.5210  0.8355
  187SAPI  C31521561   2.986   3.440   8.219  0.3263 -0.3257 -0.0736
  187SAPI  H15X21562   3.051   3.508   8.279 -1.4774  1.1079  0.3222
  187SAPI  H15Y21563   3.014   3.335   8.242  1.9557  0.6349  2.8761
  187SAPI  C31621564   2.845   3.462   8.269  0.4955  0.1560 -0.0063
  187SAPI  H16X21565   2.814   3.390   8.347 -0.1066  0.2698 -0.1340
  187SAPI  H16Y21566   2.784   3.443   8.178 -1.8101  1.1223  1.2392
  187SAPI  C31721567   2.819   3.601   8.315  1.1197 -0.4114 -0.0617
  187SAPI  H17X21568   2.865   3.671   8.241  1.2318 -1.3611 -0.9138
  187SAPI  H17Y21569   2.881   3.629   8.403 -1.1097  0.8502  1.2039
  187SAPI  C31821570   2.670   3.644   8.341 -0.2157  0.4503 -0.0555
  187SAPI  H18X21571   2.623   3.649   8.240  0.4439 -0.7432 -0.4456
  187SAPI  H18Y21572   2.675   3.747   8.380  2.3666 -0.5570  2.6006
  187SAPI  H18Z21573   2.611   3.576   8.407 -1.4849  0.4991 -1.0976
  188SAPI   C1221574   4.407   0.051   6.320  0.9345  0.5373  0.3764
  188SAPI    H221575   4.305   0.085   6.349  1.7833  3.4359  0.3014
  188SAPI    O221576   4.389  -0.029   6.201  0.3305 -0.0300 -0.6802
  188SAPI   HO221577   4.353  -0.116   6.223  1.5138 -0.2506  0.5294
  188SAPI   C1321578   4.488   0.175   6.294  0.1461 -0.1686 -0.3475
  188SAPI    H321579   4.498   0.230   6.391  1.0229 -3.3665  1.5219
  188SAPI    O321580   4.424   0.255   6.199  0.3041  0.5393 -0.2865
  188SAPI   HO321581   4.421   0.216   6.112  0.6405 -1.4221  0.5180
  188SAPI   C1421582   4.620   0.132   6.240 -0.6788 -0.6150  0.4958
  188SAPI    H421583   4.607   0.082   6.141  1.1477  0.0052 -0.0959
  188SAPI    O421584   4.693   0.250   6.222  0.6181 -0.6367  0.5821
  188SAPI   HO421585   4.633   0.304   6.171  1.4839 -0.5927 -0.4314
  188SAPI   C1521586   4.688   0.037   6.332  0.0513 -0.4864 -0.1088
  188SAPI    H521587   4.716   0.098   6.421  2.4587  0.7996 -1.6311
  188SAPI    O521588   4.812  -0.003   6.271  0.2957 -0.1171 -0.2070
  188SAPI   HO521589   4.879   0.059   6.302  0.8860 -0.6504 -0.4069
  188SAPI   C1621590   4.598  -0.085   6.370  0.2226 -0.3225 -0.3742
  188SAPI    H621591   4.583  -0.146   6.278 -0.4247 -1.0010  0.1711
  188SAPI    O621592   4.663  -0.168   6.469 -0.0137 -0.3441  0.5350
  188SAPI   HO621593   4.589  -0.211   6.512 -1.0385 -0.4312 -1.2021
  188SAPI   C1121594   4.469  -0.035   6.424  0.3053 -0.3272  0.4107
  188SAPI    H121595   4.484   0.027   6.515 -2.6221 -1.8330  2.1015
  188SAPI     P21596   4.281  -0.151   6.575  0.3110  0.3487  0.1895
  188SAPI   O1321597   4.167  -0.244   6.550 -0.0974  0.9557  0.4714
  188SAPI   O1421598   4.243  -0.013   6.593  0.8522 -0.2153 -0.3548
  188SAPI   O1221599   4.388  -0.150   6.459 -0.1016 -0.5119  0.4818
  188SAPI   O1121600   4.363  -0.204   6.698  0.1416  0.3697 -0.4959
  188SAPI    C121601   4.437  -0.109   6.780 -0.2757  0.4089 -0.0155
  188SAPI    HA21602   4.541  -0.105   6.743 -0.7321 -1.0604 -1.5570
  188SAPI    HB21603   4.407  -0.002   6.790  1.7449  1.1553 -1.4623
  188SAPI    C221604   4.432  -0.174   6.925 -0.2446  0.5742  0.2738
  188SAPI    HS21605   4.461  -0.097   6.999  0.4117 -1.0958  1.8386
  188SAPI   O2121606   4.525  -0.286   6.944 -0.3237  1.0222 -0.3516
  188SAPI   C2121607   4.658  -0.249   6.932  0.3078  0.1864  0.3837
  188SAPI   O2221608   4.695  -0.134   6.935 -0.3905  0.2690  0.2526
  188SAPI   C2221609   4.748  -0.376   6.936 -0.0524  0.0866 -0.0191
  188SAPI   H2R21610   4.737  -0.425   6.837 -1.5254 -0.8362  0.5598
  188SAPI   H2S21611   4.854  -0.343   6.938  0.4242 -1.0407 -2.4927
  188SAPI    C321612   4.290  -0.226   6.957  0.3171 -0.5760 -0.2654
  188SAPI    HX21613   4.272  -0.308   6.884  0.5981 -2.3995  1.6222
  188SAPI    HY21614   4.215  -0.152   6.923 -0.6327 -1.4598 -0.1328
  188SAPI   O3121615   4.275  -0.264   7.094 -0.2685  0.3009  0.3534
  188SAPI   C3121616   4.153  -0.302   7.115 -0.1744  0.4531  0.1012
  188SAPI   O3221617   4.071  -0.315   7.023  0.2836 -0.1118 -0.0318
  188SAPI   C3221618   4.130  -0.314   7.271  0.4106  0.5962 -0.4928
  188SAPI   H2X21619   4.072  -0.225   7.304  0.0045 -0.3205  1.4013
  188SAPI   H2Y21620   4.235  -0.305   7.304  0.2433  0.9047 -0.0316
  188SAPI   C2321621   4.716  -0.473   7.049 -0.6487  0.0080 -0.4300
  188SAPI   H3R21622   4.775  -0.568   7.050 -3.8149 -2.2294 -3.0771
  188SAPI   H3S21623   4.612  -0.504   7.028 -0.2895 -0.3183 -1.8204
  188SAPI   C2421624   4.728  -0.400   7.182  0.0557  0.0503  0.3549
  188SAPI   H4R21625   4.702  -0.482   7.252 -0.8120  1.3866  1.6724
  188SAPI   H4S21626   4.649  -0.322   7.192  1.9414  1.8671  2.1222
  188SAPI   C2521627   4.864  -0.351   7.214 -1.1773 -0.7733 -0.1359
  188SAPI   H5R21628   4.954  -0.415   7.208  0.8091  1.6606  1.4200
  188SAPI   C2621629   4.898  -0.231   7.270 -0.5952 -0.2084 -0.3193
  188SAPI   H6R21630   5.001  -0.193   7.268 -0.7971  0.6683  2.2272
  188SAPI   C2721631   4.796  -0.134   7.316 -0.4545 -0.4034  1.2726
  188SAPI   H7R21632   4.706  -0.191   7.347 -1.5364 -0.8347 -2.2106
  188SAPI   H7S21633   4.746  -0.086   7.229  0.3257 -0.5813  0.7227
  188SAPI   C2821634   4.842  -0.036   7.418  0.3486 -0.1693  0.1350
  188SAPI   H8R21635   4.869   0.061   7.375 -2.2305  0.0818 -1.1175
  188SAPI   C2921636   4.811  -0.039   7.551 -0.3752 -0.6035 -0.1679
  188SAPI   H9R21637   4.846   0.043   7.615 -0.8806 -1.1783  0.8764
  188SAPI  C21021638   4.726  -0.145   7.620 -0.1846  0.0496  0.6750
  188SAPI  H10R21639   4.627  -0.156   7.570 -0.1345  0.3204  0.5136
  188SAPI  H10S21640   4.705  -0.106   7.722 -0.3043  0.9011  0.3308
  188SAPI  C21121641   4.793  -0.286   7.623 -0.6845  0.3451 -1.0330
  188SAPI  H11R21642   4.781  -0.346   7.532  0.5230 -2.1188  0.3337
  188SAPI  C21221643   4.860  -0.344   7.727 -0.6255  0.0118 -0.6489
  188SAPI  H12R21644   4.893  -0.447   7.710  1.5667  0.9638 -2.7875
  188SAPI  C21321645   4.883  -0.295   7.867 -0.6502  0.1888  0.1882
  188SAPI  H13R21646   4.822  -0.353   7.938  1.5265  0.5814  2.5285
  188SAPI  H13S21647   4.847  -0.191   7.879 -1.5364 -0.2539  1.5276
  188SAPI  C21421648   5.029  -0.307   7.912  0.2219 -0.2174  0.2561
  188SAPI  H14R21649   5.085  -0.384   7.857 -0.0766 -0.8047  0.7582
  188SAPI  C21521650   5.091  -0.254   8.015  0.5883  0.0393 -0.7533
  188SAPI  H15R21651   5.183  -0.296   8.058 -0.2278 -0.1877  0.8286
  188SAPI  C21621652   5.037  -0.155   8.117 -0.0908  0.6262 -0.2016
  188SAPI  H16R21653   4.983  -0.076   8.059  0.8846  1.5949  0.1695
  188SAPI  H16S21654   5.129  -0.105   8.153 -1.0913  1.4153  1.4097
  188SAPI  C21721655   4.965  -0.226   8.229  0.1026  0.5254  0.0700
  188SAPI  H17R21656   4.881  -0.288   8.192  0.5153 -0.1233  0.2075
  188SAPI  H17S21657   4.919  -0.162   8.307 -1.4468 -0.8310  0.3059
  188SAPI  C21821658   5.068  -0.310   8.312 -0.5181  0.8614  0.3274
  188SAPI  H18R21659   5.149  -0.242   8.345  1.4532  0.0718 -2.4821
  188SAPI  H18S21660   5.118  -0.381   8.242 -0.3525 -0.1408  1.4311
  188SAPI  C21921661   5.017  -0.402   8.422  0.3868  1.7089 -0.1105
  188SAPI  H19R21662   5.106  -0.448   8.470 -0.0856 -2.7227 -2.9177
  188SAPI  H19S21663   4.948  -0.479   8.381 -1.0793  2.0455  1.6224
  188SAPI  C22021664   4.937  -0.327   8.531 -0.1097  0.0990 -0.1614
  188SAPI  H20R21665   4.874  -0.244   8.492 -3.1390 -1.4432  1.1736
  188SAPI  H20S21666   4.991  -0.300   8.625 -1.6400  2.3714  0.1305
  188SAPI  H20T21667   4.865  -0.404   8.565 -0.8709  1.7445  2.2037
  188SAPI   C3321668   4.043  -0.442   7.308 -0.1321 -0.7564 -0.2473
  188SAPI   H3X21669   4.111  -0.529   7.296 -1.0630 -1.3678 -1.2733
  188SAPI   H3Y21670   3.966  -0.449   7.229 -0.6415  1.0826  0.0509
  188SAPI   C3421671   4.010  -0.431   7.458  0.7814  0.3125 -0.0682
  188SAPI   H4X21672   4.098  -0.419   7.525  0.4025  0.3294  0.4331
  188SAPI   H4Y21673   3.964  -0.531   7.473 -1.5955  1.1689 -1.1453
  188SAPI   C3521674   3.895  -0.334   7.502 -0.0924  0.2291  0.0049
  188SAPI   H5X21675   3.797  -0.382   7.483  0.6713 -1.2960 -0.2463
  188SAPI   H5Y21676   3.882  -0.244   7.439 -1.6412  0.4326  0.5713
  188SAPI   C3621677   3.898  -0.280   7.648  0.1439 -0.0267  0.9009
  188SAPI   H6X21678   3.991  -0.229   7.681 -0.0406  0.0415  1.3229
  188SAPI   H6Y21679   3.893  -0.369   7.714 -2.4201 -0.7396 -0.1497
  188SAPI   C3721680   3.774  -0.205   7.675  0.6593 -0.8137 -0.4735
  188SAPI   H7X21681   3.683  -0.254   7.635 -0.8508  1.6089 -0.2280
  188SAPI   H7Y21682   3.785  -0.103   7.632  1.7204 -0.6434  0.1647
  188SAPI   C3821683   3.764  -0.179   7.828  0.0718  0.4695  0.1065
  188SAPI   H8X21684   3.689  -0.098   7.836 -1.0948 -0.6700  1.0977
  188SAPI   H8Y21685   3.855  -0.130   7.870 -1.7201  2.7143  1.5798
  188SAPI   C3921686   3.721  -0.304   7.910  0.2616 -0.6071 -0.2317
  188SAPI   H9X21687   3.810  -0.370   7.912  0.3953 -0.5114 -1.7968
  188SAPI   H9Y21688   3.633  -0.354   7.866  1.1531 -0.5066 -2.2399
  188SAPI  C31021689   3.675  -0.262   8.049 -0.5773  0.1459  0.2156
  188SAPI  H10X21690   3.595  -0.185   8.039 -2.3429 -1.6444 -0.2440
  188SAPI  H10Y21691   3.769  -0.226   8.096  0.3097 -2.0945  0.2784
  188SAPI  C31121692   3.619  -0.373   8.137  0.8352 -1.0280  0.1100
  188SAPI  H11X21693   3.687  -0.461   8.140  1.3741 -0.5849  1.8242
  188SAPI  H11Y21694   3.522  -0.411   8.099  0.3177  0.1133  0.2553
  188SAPI  C31221695   3.595  -0.329   8.278 -0.1216 -0.2963  0.3655
  188SAPI  H12X21696   3.682  -0.282   8.328  0.1275 -0.3107 -0.0462
  188SAPI  H12Y21697   3.577  -0.418   8.342  0.2042 -0.3136  0.4321
  188SAPI  C31321698   3.470  -0.240   8.296  0.1304 -0.0767  0.2003
  188SAPI  H13X21699   3.390  -0.290   8.238  0.8477  0.6502 -1.4716
  188SAPI  H13Y21700   3.491  -0.147   8.239 -0.1244 -2.1512 -3.5601
  188SAPI  C31421701   3.429  -0.197   8.438 -0.4757  0.2590 -0.5669
  188SAPI  H14X21702   3.512  -0.150   8.496 -2.1329 -0.0163  2.2333
  188SAPI  H14Y21703   3.394  -0.277   8.506 -0.0354 -1.4677 -2.2901
  188SAPI  C31521704   3.320  -0.090   8.438  0.2405 -0.1656 -0.0871
  188SAPI  H15X21705   3.352  -0.008   8.370  0.7788 -1.0450 -0.9100
  188SAPI  H15Y21706   3.319  -0.039   8.537  0.1061 -0.8375  0.2633
  188SAPI  C31621707   3.173  -0.140   8.402  0.1235 -0.4058  0.1376
  188SAPI  H16X21708   3.125  -0.198   8.483 -0.8219  1.9116  1.3407
  188SAPI  H16Y21709   3.170  -0.212   8.318 -0.1971  1.0028 -1.1118
  188SAPI  C31721710   3.078  -0.019   8.364  0.0463 -0.7356 -0.6968
  188SAPI  H17X21711   2.982  -0.063   8.328 -1.0309 -0.4790  1.6518
  188SAPI  H17Y21712   3.111   0.036   8.273 -0.3799  0.0999 -0.3606
  188SAPI  C31821713   3.040   0.071   8.480  0.2525  0.8578  0.1084
  188SAPI  H18X21714   2.942   0.121   8.465 -0.1346  0.2198  0.4340
  188SAPI  H18Y21715   3.118   0.149   8.495  0.0218  1.0210  0.4764
  188SAPI  H18Z21716   3.027   0.012   8.573  1.7333 -0.5456 -0.5207
  189POPC     N21717   5.968   5.150  11.021 -0.4791 -0.3921 -1.7775
  189POPC   C1221718   6.099   5.234  11.014  0.3338  0.3007 -0.1369
  189POPC  H12A21719   6.125   5.266  11.114  0.8438  2.2703 -0.8399
  189POPC  H12B21720   6.083   5.321  10.951  0.6974  0.2171 -0.3503
  189POPC   C1321721   5.865   5.240  11.065 -0.3240  0.0323  0.8185
  189POPC  H13A21722   5.863   5.325  10.999  1.7087  0.2980  1.0138
  189POPC  H13B21723   5.766   5.199  11.062 -1.4212  2.4388  1.3058
  189POPC  H13C21724   5.876   5.270  11.168 -0.4419  0.3491  0.7402
  189POPC   C1421725   5.933   5.095  10.886 -0.4271  0.0467  0.0386
  189POPC  H14A21726   5.844   5.034  10.876 -1.2394  1.2678 -0.3795
  189POPC  H14B21727   5.939   5.171  10.810 -1.2793 -0.6786 -0.7785
  189POPC  H14C21728   6.012   5.028  10.855 -1.3552 -1.9980  1.7845
  189POPC   C1521729   5.970   5.049  11.128  0.4034 -0.0892  0.7913
  189POPC  H15A21730   6.002   5.080  11.227  0.4386  1.0646  0.4179
  189POPC  H15B21731   6.046   4.974  11.109  0.7187  0.1105  1.2483
  189POPC  H15C21732   5.878   4.991  11.130  1.6264 -2.1759  0.0009
  189POPC   C1121733   6.214   5.155  10.950 -0.3416  0.1400  0.3466
  189POPC  H11A21734   6.306   5.217  10.940 -1.0017  1.0069 -0.5301
  189POPC  H11B21735   6.181   5.137  10.845 -0.8751  1.1425  0.3315
  189POPC     P21736   6.331   4.923  10.970 -0.6238 -0.1664 -0.0632
  189POPC   O1321737   6.328   4.813  11.063 -0.0970  0.7357 -0.6155
  189POPC   O1421738   6.463   4.980  10.941  0.5559  0.0063 -0.3699
  189POPC   O1221739   6.248   5.038  11.024 -0.7626 -0.0221  0.4957
  189POPC   O1121740   6.249   4.899  10.834  0.0338 -0.1413 -0.1517
  189POPC    C121741   6.227   4.768  10.785  0.7048  0.3484 -0.1669
  189POPC    HA21742   6.129   4.760  10.732  0.6754 -1.6916  0.1315
  189POPC    HB21743   6.223   4.697  10.869  1.8135  1.9344  1.2971
  189POPC    C221744   6.339   4.711  10.692 -0.1038  0.7202 -0.0505
  189POPC    HS21745   6.434   4.705  10.749 -0.1566 -0.0690 -0.0302
  189POPC   O2121746   6.359   4.806  10.579 -0.1235  0.2541 -0.1130
  189POPC   C2121747   6.468   4.784  10.514  0.0616 -0.1899  0.6628
  189POPC   O2221748   6.563   4.713  10.546  0.5348 -0.1609  0.5724
  189POPC   C2221749   6.468   4.871  10.379  0.0063 -0.1219  0.2775
  189POPC   H2R21750   6.446   4.974  10.414 -2.1694 -0.3412 -0.2864
  189POPC   H2S21751   6.386   4.846  10.308 -0.0154  2.4538 -0.7069
  189POPC    C321752   6.303   4.574  10.627 -0.2823 -0.2715  0.5564
  189POPC    HX21753   6.258   4.527  10.717  0.6732  1.5750  2.0434
  189POPC    HY21754   6.401   4.527  10.601 -0.2023 -0.2152  0.7525
  189POPC   O3121755   6.216   4.576  10.506  0.5648 -0.1894 -0.3371
  189POPC   C3121756   6.215   4.457  10.451 -0.2725  0.1005 -0.0094
  189POPC   O3221757   6.279   4.362  10.484 -0.3896  0.8362 -1.0481
  189POPC   C3221758   6.135   4.459  10.324 -0.2698 -0.1025  0.6421
  189POPC   H2X21759   6.145   4.560  10.281  0.1415  0.9204  2.9747
  189POPC   H2Y21760   6.028   4.452  10.352 -0.3564  2.6905  1.2655
  189POPC   C2321761   6.605   4.866  10.315  0.8401 -0.2801  0.0477
  189POPC   H3R21762   6.633   4.760  10.295 -1.0028 -1.1998  1.9261
  189POPC   H3S21763   6.685   4.916  10.373  3.3776 -1.4974 -2.2050
  189POPC   C2421764   6.588   4.926  10.174  0.1220 -0.4162 -1.1891
  189POPC   H4R21765   6.564   5.033  10.189 -1.1737 -1.1017  2.6143
  189POPC   H4S21766   6.494   4.892  10.125 -0.8880  2.9285 -1.8684
  189POPC   C2521767   6.709   4.907  10.083 -0.3938 -0.1432 -0.4854
  189POPC   H5R21768   6.724   4.801  10.056 -0.1792 -0.5224  1.0346
  189POPC   H5S21769   6.793   4.945  10.146 -0.1349 -1.6968  0.1491
  189POPC   C2621770   6.709   5.004   9.963  0.1423 -0.0725  0.4973
  189POPC   H6R21771   6.799   4.992   9.898 -0.1436  2.4987 -0.4788
  189POPC   H6S21772   6.699   5.112   9.986 -0.8373 -0.3590  1.5032
  189POPC   C2721773   6.598   4.963   9.872 -0.5750  0.3696  1.5650
  189POPC   H7R21774   6.501   4.960   9.927 -0.5644 -3.9900  1.7202
  189POPC   H7S21775   6.609   4.856   9.844 -3.1550  0.7974 -1.7547
  189POPC   C2821776   6.592   5.053   9.749  0.3098  0.4233 -0.3949
  189POPC   H8R21777   6.696   5.060   9.710  0.8114  0.7406  0.9424
  189POPC   H8S21778   6.570   5.156   9.782 -1.6911  0.0820 -0.5161
  189POPC   C2921779   6.489   4.999   9.650  0.2926 -0.1557 -0.0410
  189POPC   H9121780   6.396   4.967   9.700  0.3465  1.2485  1.0307
  189POPC  C21021781   6.513   4.983   9.517  0.2126  0.1002  0.2549
  189POPC  H10121782   6.432   4.945   9.453  0.6197 -2.0689  0.9304
  189POPC  C21121783   6.635   5.008   9.435 -0.4554  0.8030  0.1501
  189POPC  H11R21784   6.664   4.923   9.369  1.1068  1.9624 -0.7435
  189POPC  H11S21785   6.725   5.017   9.499 -0.6803 -1.3079  0.8515
  189POPC  C21221786   6.619   5.136   9.352  0.1364  0.1569 -0.2990
  189POPC  H12R21787   6.717   5.178   9.321 -0.1432  2.4414  1.6593
  189POPC  H12S21788   6.577   5.220   9.410 -0.6451 -1.0327  0.9029
  189POPC  C21321789   6.514   5.116   9.242 -0.4670 -0.5482  0.2096
  189POPC  H13R21790   6.500   5.212   9.189  2.6221 -0.6432 -1.0021
  189POPC  H13S21791   6.418   5.082   9.287 -1.3816 -0.8757 -1.8590
  189POPC  C21421792   6.562   5.011   9.141  0.3051  0.2847  0.8894
  189POPC  H14R21793   6.538   4.909   9.178 -1.5575  0.1105 -0.6512
  189POPC  H14S21794   6.673   5.017   9.136  0.2006  2.2006  0.0039
  189POPC  C21521795   6.496   5.024   9.001 -0.2969 -0.7524 -0.0167
  189POPC  H15R21796   6.410   5.092   9.014  1.6575  1.7940  0.4731
  189POPC  H15S21797   6.464   4.924   8.966 -0.8506 -1.0588  1.3247
  189POPC  C21621798   6.592   5.080   8.902 -0.9332 -0.1009  1.0173
  189POPC  H16R21799   6.665   5.002   8.874  0.1544  1.0535  0.5812
  189POPC  H16S21800   6.631   5.168   8.957 -0.4301  0.4548 -0.2190
  189POPC  C21721801   6.519   5.141   8.779 -0.7121 -0.5359  0.4172
  189POPC  H17R21802   6.425   5.186   8.818 -2.4145 -5.1641  2.3389
  189POPC  H17S21803   6.488   5.049   8.724  0.6527 -0.2458 -0.9213
  189POPC  C21821804   6.632   5.210   8.709 -0.0334  0.0705  0.1261
  189POPC  H18R21805   6.713   5.135   8.696 -0.4566 -0.4158  0.2440
  189POPC  H18S21806   6.665   5.299   8.766  0.1270  1.2116 -1.6750
  189POPC  H18T21807   6.615   5.246   8.605  2.7989  1.3931  0.0129
  189POPC   C3321808   6.179   4.339  10.236  0.4267 -0.1152  0.3616
  189POPC   H3X21809   6.183   4.242  10.290  0.0337  0.3852  1.3220
  189POPC   H3Y21810   6.282   4.346  10.196  0.4349 -0.6071  0.2989
  189POPC   C3421811   6.079   4.344  10.118 -0.9246  0.1806 -0.5575
  189POPC   H4X21812   6.093   4.441  10.065  0.1821  1.1787  1.4421
  189POPC   H4Y21813   5.975   4.332  10.154 -0.1717 -0.5183  1.4976
  189POPC   C3521814   6.111   4.246  10.001 -0.1613  0.3304  0.2579
  189POPC   H5X21815   6.074   4.148  10.039  0.6807  0.3573  1.1678
  189POPC   H5Y21816   6.219   4.240   9.976 -0.5700  1.0800 -1.9702
  189POPC   C3621817   6.047   4.286   9.874 -0.0215 -0.5181  0.0800
  189POPC   H6X21818   6.084   4.389   9.857 -1.5152  0.4978  2.4672
  189POPC   H6Y21819   5.937   4.292   9.886 -0.0267 -1.8903  0.9950
  189POPC   C3721820   6.084   4.189   9.761 -0.0947  0.2135  0.1756
  189POPC   H7X21821   6.024   4.098   9.780 -1.4816  1.1396  0.3780
  189POPC   H7Y21822   6.190   4.164   9.782  0.1432  2.2714  1.8463
  189POPC   C3821823   6.063   4.252   9.624 -0.8242 -0.5378  0.4479
  189POPC   H8X21824   6.134   4.335   9.603  1.3555 -2.8798 -2.3965
  189POPC   H8Y21825   5.960   4.289   9.606 -0.4254  1.0979  1.3061
  189POPC   C3921826   6.106   4.144   9.522  0.7550  0.3676 -0.1830
  189POPC   H9X21827   6.041   4.054   9.526  0.6494  0.3923 -1.1371
  189POPC   H9Y21828   6.211   4.116   9.547  0.7449  1.9682  1.8718
  189POPC  C31021829   6.098   4.199   9.374  0.4130  0.1547 -1.1034
  189POPC  H10X21830   6.168   4.285   9.371  0.0138  0.5628  0.2950
  189POPC  H10Y21831   5.994   4.228   9.347  0.2203 -0.9854 -1.6554
  189POPC  C31121832   6.157   4.094   9.270  0.4823 -0.6386  0.0411
  189POPC  H11X21833   6.104   3.996   9.271 -1.4157  0.3359  1.8540
  189POPC  H11Y21834   6.255   4.051   9.300  0.2591 -2.0129 -1.0859
  189POPC  C31221835   6.184   4.148   9.125  0.0725 -0.3974 -0.0642
  189POPC  H12X21836   6.251   4.084   9.065 -0.6392 -0.6837 -0.5639
  189POPC  H12Y21837   6.229   4.249   9.133 -0.9834 -0.0520  2.6354
  189POPC  C31321838   6.049   4.170   9.052  0.6096  0.1297  0.4432
  189POPC  H13X21839   5.991   4.245   9.109  0.0102 -1.3511  1.8466
  189POPC  H13Y21840   5.989   4.076   9.052  0.9416 -0.0931 -0.3070
  189POPC  C31421841   6.087   4.226   8.916  0.2414 -0.2948  0.4273
  189POPC  H14X21842   6.155   4.152   8.868  0.1125  1.1642 -2.2141
  189POPC  H14Y21843   6.141   4.322   8.926 -0.7131  0.0788  2.5553
  189POPC  C31521844   5.973   4.243   8.814  0.1677  0.3868 -0.1206
  189POPC  H15X21845   5.897   4.312   8.856 -0.6343 -1.7934  2.2824
  189POPC  H15Y21846   5.921   4.146   8.801 -2.1368  1.1082  2.6429
  189POPC  C31621847   6.009   4.285   8.670  0.2787  0.3775 -0.8975
  189POPC  H16X21848   6.078   4.206   8.634  1.6118  0.6211  1.0126
  189POPC  H16Y21849   6.051   4.388   8.668 -0.4192  0.6648 -1.1350
  189POPC  H16Z21850   5.915   4.298   8.611 -0.2846  0.5609  0.0156
  190POPC     N21851   6.209   3.196  11.332 -0.5760  0.3316 -0.2103
  190POPC   C1221852   6.201   3.173  11.182  0.1697  0.6693  0.4953
  190POPC  H12A21853   6.102   3.202  11.151  0.2092 -1.6244 -2.1723
  190POPC  H12B21854   6.198   3.067  11.161 -0.3856  0.2572  2.4138
  190POPC   C1321855   6.318   3.112  11.386 -0.1402  0.8661 -0.4800
  190POPC  H13A21856   6.403   3.116  11.319  0.1808 -2.0601 -0.3800
  190POPC  H13B21857   6.346   3.117  11.490 -1.1592  1.2441 -0.2078
  190POPC  H13C21858   6.292   3.007  11.379  0.4963  0.7971 -2.6975
  190POPC   C1421859   6.246   3.336  11.364 -0.5261  0.5565 -0.0016
  190POPC  H14A21860   6.344   3.348  11.321 -1.1107 -0.1255 -1.5819
  190POPC  H14B21861   6.190   3.410  11.310  0.4476  1.7749  0.6004
  190POPC  H14C21862   6.244   3.356  11.470  1.7740 -3.2799  0.9809
  190POPC   C1521863   6.079   3.163  11.398 -0.0288 -0.0321 -0.7135
  190POPC  H15A21864   6.085   3.183  11.504 -0.0582 -2.1315 -0.2768
  190POPC  H15B21865   6.057   3.060  11.377  0.0222  0.7307 -5.4935
  190POPC  H15C21866   5.996   3.222  11.362 -0.9221 -0.1374  1.0807
  190POPC   C1121867   6.315   3.226  11.089 -0.2775  0.2335 -0.4532
  190POPC  H11A21868   6.302   3.335  11.106  1.3313  0.1575  1.8229
  190POPC  H11B21869   6.297   3.190  10.986 -0.1635  3.4253 -1.7065
  190POPC     P21870   6.568   3.291  11.165  0.2035 -0.2708  0.1051
  190POPC   O1321871   6.692   3.216  11.163 -0.1643 -0.0225 -0.3404
  190POPC   O1421872   6.543   3.379  11.282 -0.1772 -0.1963  0.8095
  190POPC   O1221873   6.441   3.189  11.140  0.1462  0.2628 -0.5983
  190POPC   O1121874   6.554   3.366  11.026 -0.0348 -0.6056 -0.8276
  190POPC    C121875   6.603   3.325  10.898 -0.4338 -0.2899  0.1109
  190POPC    HA21876   6.664   3.233  10.911  0.6975  0.1274 -1.8501
  190POPC    HB21877   6.670   3.399  10.849  1.3487 -1.7640  0.1788
  190POPC    C221878   6.486   3.304  10.796  0.1296 -0.1659 -0.8808
  190POPC    HS21879   6.412   3.237  10.844 -0.5823  0.6387 -0.8202
  190POPC   O2121880   6.535   3.236  10.681  0.0646 -0.0313 -0.7186
  190POPC   C2121881   6.439   3.176  10.621 -0.8434  0.0686  0.3317
  190POPC   O2221882   6.329   3.152  10.670  0.3073  0.4625 -0.4334
  190POPC   C2221883   6.497   3.122  10.490  0.1834  0.4505  0.6963
  190POPC   H2R21884   6.545   3.199  10.427 -1.3607  0.3606 -0.6417
  190POPC   H2S21885   6.407   3.086  10.436  0.9520 -0.1045 -0.2670
  190POPC    C321886   6.408   3.440  10.757 -0.1130 -0.3233  0.5082
  190POPC    HX21887   6.430   3.508  10.842  1.0350 -1.2162  0.9492
  190POPC    HY21888   6.299   3.415  10.759 -0.0940 -0.5814 -0.8422
  190POPC   O3121889   6.436   3.485  10.621 -0.4249 -0.1920  0.1123
  190POPC   C3121890   6.543   3.569  10.611 -0.0383  0.0363 -0.1635
  190POPC   O3221891   6.607   3.610  10.708 -0.2893 -0.2769 -0.4786
  190POPC   C3221892   6.565   3.603  10.470  0.3184  0.0428 -0.2125
  190POPC   H2X21893   6.673   3.610  10.444  0.2053  0.8020 -0.5138
  190POPC   H2Y21894   6.519   3.703  10.462  0.2800 -0.0195 -0.7931
  190POPC   C2321895   6.604   3.016  10.520 -0.6482  0.1887 -0.0001
  190POPC   H3R21896   6.568   2.918  10.559  1.9204 -0.9115 -0.1949
  190POPC   H3S21897   6.671   3.055  10.600 -0.0051  0.8352 -0.8381
  190POPC   C2421898   6.700   2.985  10.394 -0.1789  0.3423 -0.2218
  190POPC   H4R21899   6.775   2.904  10.410  0.7771  0.6296 -2.8368
  190POPC   H4S21900   6.761   3.076  10.378 -0.7395  0.9440  0.9315
  190POPC   C2521901   6.626   2.934  10.274  0.3826  0.2263 -0.6218
  190POPC   H5R21902   6.572   3.026  10.241  0.3408  1.1694  1.8773
  190POPC   H5S21903   6.540   2.871  10.302 -0.0658  1.6711  1.4554
  190POPC   C2621904   6.717   2.888  10.161  0.0454 -0.2207 -0.2155
  190POPC   H6R21905   6.652   2.853  10.077 -4.3559 -0.6102  3.0009
  190POPC   H6S21906   6.772   2.802  10.204 -0.5536 -1.2002 -1.3342
  190POPC   C2721907   6.817   2.992  10.100  0.6869  0.1574  0.4688
  190POPC   H7R21908   6.898   3.019  10.171  0.1813  0.0132  1.1080
  190POPC   H7S21909   6.761   3.088  10.089  1.0251  0.4204  0.9987
  190POPC   C2821910   6.861   2.962   9.954 -0.0669 -0.7464  0.2415
  190POPC   H8R21911   6.938   3.037   9.922 -0.3095 -1.0203 -1.0202
  190POPC   H8S21912   6.773   2.990   9.892 -0.4436 -2.1508  0.1135
  190POPC   C2921913   6.907   2.822   9.938  0.3809 -0.6183 -0.5219
  190POPC   H9121914   6.973   2.784  10.017 -0.0620 -0.6137 -0.1443
  190POPC  C21021915   6.857   2.731   9.850  0.0556 -0.5386  1.4343
  190POPC  H10121916   6.900   2.630   9.861 -0.9606 -0.9451  1.7781
  190POPC  C21121917   6.754   2.743   9.738 -0.9070 -0.6333 -0.5689
  190POPC  H11R21918   6.691   2.834   9.733 -0.2212  0.1831  2.8644
  190POPC  H11S21919   6.686   2.656   9.751 -1.1585 -0.3721 -0.1490
  190POPC  C21221920   6.808   2.702   9.590  0.2467 -0.1380  0.3990
  190POPC  H12R21921   6.894   2.770   9.572 -0.0409 -0.2771 -1.8589
  190POPC  H12S21922   6.725   2.732   9.522 -1.6259  1.5169  3.2085
  190POPC  C21321923   6.853   2.559   9.577  0.1086  1.1834  0.5159
  190POPC  H13R21924   6.782   2.492   9.631  0.1881 -0.6212 -1.4385
  190POPC  H13S21925   6.956   2.543   9.615  0.8740 -0.0522 -1.8347
  190POPC  C21421926   6.856   2.511   9.425 -0.2221 -0.1462  0.7226
  190POPC  H14R21927   6.759   2.541   9.381  1.4443  3.0144 -1.2026
  190POPC  H14S21928   6.868   2.401   9.437 -0.6414 -0.1356  1.2873
  190POPC  C21521929   6.968   2.581   9.354  0.0432  0.5499  0.3330
  190POPC  H15R21930   7.061   2.551   9.407 -0.8755 -0.4531  1.4610
  190POPC  H15S21931   6.955   2.688   9.379 -1.3173  0.2118  1.1730
  190POPC  C21621932   6.973   2.562   9.203  0.6228  0.0477 -0.6435
  190POPC  H16R21933   7.054   2.616   9.149  0.9796  0.9251  0.7389
  190POPC  H16S21934   6.878   2.595   9.156 -0.6650 -1.9271  0.4562
  190POPC  C21721935   6.965   2.414   9.170 -0.0115 -0.6939 -1.0126
  190POPC  H17R21936   6.867   2.369   9.200 -0.4912 -0.6498 -2.3947
  190POPC  H17S21937   7.048   2.366   9.226  1.7940  2.7007 -0.5644
  190POPC  C21821938   6.978   2.366   9.026 -1.0412  0.1960 -0.2140
  190POPC  H18R21939   6.965   2.256   9.035 -0.7561  0.2573  1.1746
  190POPC  H18S21940   7.074   2.387   8.975 -1.1777  0.2503 -0.4516
  190POPC  H18T21941   6.900   2.397   8.953 -1.5981 -0.1947  0.1995
  190POPC   C3321942   6.492   3.518  10.362  0.0125 -0.1493  0.5707
  190POPC   H3X21943   6.383   3.540  10.370  0.2909  2.0117 -0.7500
  190POPC   H3Y21944   6.505   3.409  10.382  0.8677 -0.7124 -2.4722
  190POPC   C3421945   6.536   3.552  10.221 -0.2592 -0.0972  0.2154
  190POPC   H4X21946   6.642   3.521  10.210 -0.5154 -1.0435  0.3617
  190POPC   H4Y21947   6.536   3.663  10.214 -0.4163 -0.1099 -0.0137
  190POPC   C3521948   6.456   3.483  10.109 -0.1997  0.0830 -0.7141
  190POPC   H5X21949   6.487   3.528  10.012  0.4994 -3.5463 -2.3832
  190POPC   H5Y21950   6.350   3.511  10.124  0.6213  2.8883  0.3554
  190POPC   C3621951   6.496   3.335  10.102  0.9572  0.1695  0.1132
  190POPC   H6X21952   6.401   3.281  10.125  1.8106 -0.8599  1.3757
  190POPC   H6Y21953   6.562   3.309  10.188 -0.5493 -2.1998  0.6696
  190POPC   C3721954   6.552   3.281   9.967  0.0395 -0.0396 -0.5500
  190POPC   H7X21955   6.574   3.172   9.977 -0.0496 -0.0330 -0.2710
  190POPC   H7Y21956   6.647   3.335   9.947 -0.1413 -0.0054 -1.3441
  190POPC   C3821957   6.466   3.301   9.843 -0.1134 -0.4817  0.6613
  190POPC   H8X21958   6.446   3.408   9.821 -0.6343 -1.0524 -2.0349
  190POPC   H8Y21959   6.368   3.259   9.873  0.1368 -1.4652  0.1432
  190POPC   C3921960   6.536   3.244   9.720 -0.0943  0.4096  0.0011
  190POPC   H9X21961   6.470   3.246   9.631 -0.8102 -0.7974  0.4731
  190POPC   H9Y21962   6.554   3.135   9.731 -0.1058  0.5732  1.8520
  190POPC  C31021963   6.669   3.308   9.687 -0.4260  0.6577  0.0008
  190POPC  H10X21964   6.745   3.263   9.755  0.1403  0.0884 -0.9714
  190POPC  H10Y21965   6.655   3.414   9.717 -0.5364  0.3793  0.9597
  190POPC  C31121966   6.709   3.305   9.539  0.5520 -0.5016  0.9494
  190POPC  H11X21967   6.784   3.381   9.508  0.4843 -0.6607  0.3768
  190POPC  H11Y21968   6.620   3.329   9.478  1.3176  0.3077  0.1252
  190POPC  C31221969   6.767   3.171   9.490 -0.9804 -0.4508  0.1667
  190POPC  H12X21970   6.719   3.087   9.544  2.8921 -2.3083  1.1227
  190POPC  H12Y21971   6.867   3.152   9.536 -1.1144 -1.2937  0.1255
  190POPC  C31321972   6.776   3.159   9.337 -0.0180  0.1830 -0.5508
  190POPC  H13X21973   6.837   3.242   9.296 -0.0880  1.0265  0.9863
  190POPC  H13Y21974   6.674   3.158   9.293  0.2970 -1.6054 -1.3408
  190POPC  C31421975   6.844   3.035   9.271 -0.5702 -0.1575 -0.4713
  190POPC  H14X21976   6.790   2.939   9.285  0.9441 -0.7257  2.4919
  190POPC  H14Y21977   6.947   3.030   9.315 -1.6891  1.2648  2.5935
  190POPC  C31521978   6.868   3.051   9.119 -0.5166  0.1276 -0.2072
  190POPC  H15X21979   6.950   3.126   9.114 -0.1074 -0.1982  1.1236
  190POPC  H15Y21980   6.779   3.101   9.076 -0.5216  0.8124  0.5738
  190POPC  C31621981   6.902   2.913   9.060 -0.2932  0.3909  0.3152
  190POPC  H16X21982   6.984   2.876   9.125  0.0846  0.0296 -0.3540
  190POPC  H16Y21983   6.935   2.924   8.954  1.0675 -1.3408  0.5085
  190POPC  H16Z21984   6.814   2.845   9.069 -1.7094  2.2011  0.6803
  191POPC     N21985   0.638   5.476   6.269 -1.0983  0.6889  0.6481
  191POPC   C1221986   0.582   5.562   6.379 -0.3857  0.8208 -0.1358
  191POPC  H12A21987   0.568   5.505   6.470  0.8135 -0.2397 -0.5875
  191POPC  H12B21988   0.477   5.572   6.356 -0.2369 -1.0418 -1.9755
  191POPC   C1321989   0.629   5.546   6.139 -0.3477 -0.2416  0.3742
  191POPC  H13A21990   0.532   5.582   6.109 -0.5171  2.0727  3.3003
  191POPC  H13B21991   0.699   5.627   6.130  1.5530 -1.9646 -1.7753
  191POPC  H13C21992   0.669   5.478   6.065 -0.4703  0.3552 -0.2472
  191POPC   C1421993   0.779   5.435   6.284 -0.1812 -0.0564  0.0827
  191POPC  H14A21994   0.841   5.522   6.299 -1.0551  0.7880 -1.0280
  191POPC  H14B21995   0.799   5.381   6.375 -1.7341 -1.5488 -0.4192
  191POPC  H14C21996   0.808   5.384   6.193  1.1247  0.9300 -0.0812
  191POPC   C1521997   0.564   5.349   6.251  0.0013 -0.2463 -0.3384
  191POPC  H15A21998   0.575   5.296   6.157 -2.9140  0.6792 -1.3247
  191POPC  H15B21999   0.458   5.371   6.253  0.1162  0.2366  1.1823
  191POPC  H15C22000   0.578   5.289   6.339 -1.0029 -0.9118 -0.6109
  191POPC   C1122001   0.646   5.695   6.403 -0.4351 -0.5986 -0.0211
  191POPC  H11A22002   0.746   5.693   6.451 -1.3744  1.4666  2.1896
  191POPC  H11B22003   0.589   5.739   6.486  0.2059 -1.6726  1.0213
  191POPC     P22004   0.509   5.874   6.273  0.2120 -0.3182  0.1376
  191POPC   O1322005   0.400   5.796   6.335 -0.0158  0.0977 -0.0840
  191POPC   O1422006   0.491   5.907   6.134  0.1769 -0.3344 -0.2126
  191POPC   O1222007   0.642   5.783   6.280  0.1860 -0.1843  0.2693
  191POPC   O1122008   0.545   5.993   6.364  0.5180 -0.2212 -0.3530
  191POPC    C122009   0.678   6.032   6.380 -0.2931  0.1041  0.4546
  191POPC    HA22010   0.727   6.056   6.283 -0.3110  0.5200  0.5450
  191POPC    HB22011   0.730   5.946   6.428  1.7246  0.6820 -0.5934
  191POPC    C222012   0.696   6.154   6.474 -0.4348  0.3446  0.4109
  191POPC    HS22013   0.803   6.165   6.499  0.2506  1.0973 -2.4912
  191POPC   O2122014   0.618   6.141   6.588  0.3443  0.3720  0.2074
  191POPC   C2122015   0.669   6.058   6.675  0.4096 -0.6508 -0.0294
  191POPC   O2222016   0.770   5.989   6.659  0.3740  0.3719  0.1373
  191POPC   C2222017   0.573   6.057   6.797 -0.0481 -0.2195  0.5157
  191POPC   H2R22018   0.532   6.160   6.809  0.0044 -0.0975 -0.3137
  191POPC   H2S22019   0.637   6.039   6.887  1.7233 -0.8305 -0.8062
  191POPC    C322020   0.667   6.295   6.413  0.3096 -0.6595  0.8238
  191POPC    HX22021   0.556   6.299   6.407  0.4068 -0.0828 -2.2579
  191POPC    HY22022   0.697   6.286   6.306 -1.3022  2.1463  0.0189
  191POPC   O3122023   0.738   6.407   6.470  0.4895  0.4290  0.3957
  191POPC   C3122024   0.658   6.505   6.500  0.3436  0.4455 -0.0501
  191POPC   O3222025   0.539   6.517   6.482 -0.8446 -0.1263  0.2203
  191POPC   C3222026   0.741   6.614   6.566  0.2954 -0.1208  0.2141
  191POPC   H2X22027   0.728   6.691   6.487 -1.8196 -1.8811 -1.2496
  191POPC   H2Y22028   0.850   6.591   6.572  0.4344  0.7976  2.3414
  191POPC   C2322029   0.463   5.945   6.804  0.2998 -0.0929 -0.2259
  191POPC   H3R22030   0.508   5.846   6.782  1.5677  0.6234 -1.0536
  191POPC   H3S22031   0.389   5.961   6.723  1.2412  2.8089 -0.6435
  191POPC   C2422032   0.386   5.955   6.933  0.3528  0.0174 -0.2537
  191POPC   H4R22033   0.361   6.062   6.953 -0.5591 -0.2733  0.2439
  191POPC   H4S22034   0.445   5.907   7.013 -1.2479  0.3037  1.1707
  191POPC   C2522035   0.248   5.885   6.922 -0.2374 -0.2786  0.4493
  191POPC   H5R22036   0.264   5.781   6.885  1.8276  0.1741 -0.0475
  191POPC   H5S22037   0.201   5.921   6.828  1.2339 -2.1456 -1.0856
  191POPC   C2622038   0.172   5.891   7.050  0.2381 -0.6766  0.3477
  191POPC   H6R22039   0.076   5.840   7.025  0.8927 -0.4950 -3.0048
  191POPC   H6S22040   0.152   5.995   7.084 -0.6435 -1.2496  1.6407
  191POPC   C2722041   0.251   5.850   7.179 -0.4604 -0.0911  0.2274
  191POPC   H7R22042   0.344   5.907   7.201 -0.9428  1.3758 -1.3376
  191POPC   H7S22043   0.296   5.752   7.155 -0.4471  0.4597 -2.2405
  191POPC   C2822044   0.143   5.848   7.288  0.6039 -0.3095  0.0222
  191POPC   H8R22045   0.045   5.822   7.242 -0.3563 -0.9787  2.2957
  191POPC   H8S22046   0.143   5.953   7.325  1.2741 -0.6831  1.1302
  191POPC   C2922047   0.172   5.755   7.409 -0.2030 -0.4247  0.7335
  191POPC   H9122048   0.201   5.652   7.384 -0.4249  0.0295 -1.5981
  191POPC  C21022049   0.173   5.794   7.541  0.0301  0.4403  0.1480
  191POPC  H10122050   0.183   5.714   7.616 -0.0664  0.6439  0.3766
  191POPC  C21122051   0.147   5.920   7.605  0.1336 -0.2479 -0.5774
  191POPC  H11R22052   0.048   5.957   7.571 -0.5883  1.1755  2.6528
  191POPC  H11S22053   0.218   5.995   7.565  1.5605 -0.6637  1.0230
  191POPC  C21222054   0.138   5.911   7.755  0.5432  0.1033 -0.7264
  191POPC  H12R22055   0.146   6.011   7.804  1.2643  1.1957 -2.9185
  191POPC  H12S22056   0.227   5.864   7.802  0.0518 -0.4366 -0.3256
  191POPC  C21322057   0.008   5.846   7.805  0.2432  0.3804 -0.2737
  191POPC  H13R22058   0.021   5.742   7.842 -2.9126  0.4217  1.2334
  191POPC  H13S22059  -0.063   5.837   7.720  0.9545  0.3141 -0.8744
  191POPC  C21422060  -0.055   5.925   7.918  0.7203 -0.0438 -0.6634
  191POPC  H14R22061  -0.056   6.030   7.884  1.6625  0.1033 -0.2655
  191POPC  H14S22062   0.021   5.922   7.999  1.3357 -0.8371 -1.2523
  191POPC  C21522063  -0.184   5.870   7.974  0.3183 -0.0174 -0.0277
  191POPC  H15R22064  -0.187   5.759   7.965  2.8000 -0.0662 -0.7901
  191POPC  H15S22065  -0.275   5.898   7.916 -1.8256 -0.8068  2.7510
  191POPC  C21622066  -0.219   5.905   8.126  0.5017 -0.0109  0.0884
  191POPC  H16R22067  -0.210   6.015   8.138 -1.8243  0.3677 -1.1161
  191POPC  H16S22068  -0.139   5.855   8.185 -0.9193 -2.3548  0.1235
  191POPC  C21722069  -0.359   5.860   8.179  0.8207 -0.1273  0.0616
  191POPC  H17R22070  -0.376   5.758   8.140 -1.1794  1.0907 -2.5700
  191POPC  H17S22071  -0.441   5.920   8.134  0.6205 -1.2240 -1.0963
  191POPC  C21822072  -0.371   5.873   8.326  0.8879 -0.3931 -1.1156
  191POPC  H18R22073  -0.371   5.980   8.356  3.3363 -0.1666 -1.7083
  191POPC  H18S22074  -0.292   5.821   8.384  1.2488  1.9779  0.6572
  191POPC  H18T22075  -0.474   5.836   8.346  0.5796  0.7599 -0.4411
  191POPC   C3322076   0.701   6.649   6.712  0.3951 -0.9140 -0.1113
  191POPC   H3X22077   0.593   6.673   6.706  0.6147  0.0084 -0.4995
  191POPC   H3Y22078   0.744   6.743   6.752  0.4630 -1.5210  1.2979
  191POPC   C3422079   0.712   6.535   6.818 -0.0987  0.1813 -0.4313
  191POPC   H4X22080   0.672   6.442   6.771  3.0517  0.4653 -4.2261
  191POPC   H4Y22081   0.640   6.556   6.899 -0.3986  1.5884 -1.0317
  191POPC   C3522082   0.856   6.512   6.874  0.2341  0.2801  0.2216
  191POPC   H5X22083   0.895   6.611   6.903 -0.8232  1.2455 -1.4810
  191POPC   H5Y22084   0.925   6.470   6.798  1.2822  1.4884  0.4777
  191POPC   C3622085   0.862   6.420   6.998 -0.0838  0.3064  0.1370
  191POPC   H6X22086   0.965   6.420   7.038 -0.6629  1.6282  1.7871
  191POPC   H6Y22087   0.814   6.328   6.958  0.9437  0.0463 -0.5048
  191POPC   C3722088   0.774   6.464   7.115 -0.4756 -0.2093 -0.7760
  191POPC   H7X22089   0.808   6.407   7.203 -2.1239 -0.8726 -0.5234
  191POPC   H7Y22090   0.675   6.423   7.086  0.3714 -2.9812  0.0121
  191POPC   C3822091   0.766   6.611   7.164 -0.5520 -0.2918 -0.3652
  191POPC   H8X22092   0.743   6.688   7.086 -0.4679  0.6953  0.5623
  191POPC   H8Y22093   0.869   6.640   7.193 -0.9808  1.4830 -0.4645
  191POPC   C3922094   0.674   6.626   7.287  0.0072 -0.1309  0.4388
  191POPC   H9X22095   0.717   6.552   7.357  1.8902 -1.5520 -2.1010
  191POPC   H9Y22096   0.574   6.584   7.261  0.5278 -0.8160 -0.4844
  191POPC  C31022097   0.666   6.771   7.338 -0.4039 -0.0662  0.1389
  191POPC  H10X22098   0.565   6.764   7.385 -0.8242 -2.1099 -0.9659
  191POPC  H10Y22099   0.651   6.845   7.257  0.0291 -0.7214 -0.5511
  191POPC  C31122100   0.785   6.805   7.435  0.6548  0.0959  0.6525
  191POPC  H11X22101   0.856   6.860   7.371 -0.6744 -0.0270 -0.9996
  191POPC  H11Y22102   0.821   6.709   7.477 -1.8525 -1.9198 -1.4746
  191POPC  C31222103   0.753   6.909   7.550 -0.5522 -0.6832 -0.2880
  191POPC  H12X22104   0.694   6.992   7.504  0.0179 -0.8065 -1.2721
  191POPC  H12Y22105   0.841   6.952   7.602 -0.9939  0.4924 -0.4763
  191POPC  C31322106   0.673   6.843   7.653  0.6792 -0.1038  0.3277
  191POPC  H13X22107   0.740   6.779   7.715  0.5178 -1.1053 -0.5125
  191POPC  H13Y22108   0.598   6.782   7.599  1.3975 -0.6088 -0.1152
  191POPC  C31422109   0.615   6.948   7.758  0.1151  1.1774 -0.3749
  191POPC  H14X22110   0.554   7.015   7.694  2.7949  0.7172 -3.6530
  191POPC  H14Y22111   0.700   7.011   7.792  1.3676 -0.3823 -0.4771
  191POPC  C31522112   0.540   6.876   7.867  0.7783  0.1771  0.0182
  191POPC  H15X22113   0.581   6.779   7.901  2.0943  0.6894 -0.0463
  191POPC  H15Y22114   0.441   6.845   7.827  0.2865  1.9465 -0.2431
  191POPC  C31622115   0.524   6.958   8.000  0.4372  0.5845 -0.4718
  191POPC  H16X22116   0.475   6.891   8.075  0.5252 -1.1896 -1.9128
  191POPC  H16Y22117   0.456   7.044   7.981 -0.6927 -0.0686  0.4944
  191POPC  H16Z22118   0.618   6.996   8.044 -0.5456  3.2378 -0.5159
  192POPC     N22119   3.659   1.026   6.283  1.0034  0.2852  0.1220
  192POPC   C1222120   3.805   0.984   6.307 -0.6568  0.5826  0.2267
  192POPC  H12A22121   3.849   0.954   6.214 -0.6364  0.4589  0.2771
  192POPC  H12B22122   3.818   0.899   6.372  2.6349  0.4205 -0.4690
  192POPC   C1322123   3.593   0.917   6.203 -0.0033  0.1612 -0.7697
  192POPC  H13A22124   3.649   0.906   6.111  1.1777  0.0405 -0.0548
  192POPC  H13B22125   3.603   0.820   6.249  1.6226  0.6107 -0.0997
  192POPC  H13C22126   3.492   0.926   6.168 -0.0389 -0.5958 -0.8708
  192POPC   C1422127   3.577   1.049   6.409  0.4674  0.0186 -0.6607
  192POPC  H14A22128   3.621   1.112   6.485  0.4431 -1.0202  0.2398
  192POPC  H14B22129   3.478   1.085   6.383  0.3848  1.8970  1.8299
  192POPC  H14C22130   3.565   0.957   6.464  2.7449 -1.1912 -2.0365
  192POPC   C1522131   3.648   1.150   6.201  0.4588  0.1488 -0.5978
  192POPC  H15A22132   3.682   1.151   6.098 -0.8446 -2.7187 -1.1545
  192POPC  H15B22133   3.693   1.232   6.254  0.8612  1.8876 -3.4202
  192POPC  H15C22134   3.547   1.187   6.202  0.6534  0.6880 -0.2180
  192POPC   C1122135   3.900   1.087   6.358  0.5286  0.5491  0.3467
  192POPC  H11A22136   3.899   1.171   6.284 -0.6788 -2.5068 -3.4191
  192POPC  H11B22137   4.006   1.054   6.361 -0.1053 -1.7771 -0.8977
  192POPC     P22138   3.882   1.045   6.613 -0.0665  0.1017 -0.5639
  192POPC   O1322139   3.929   0.909   6.574 -0.5614 -0.2580 -0.1147
  192POPC   O1422140   3.766   1.054   6.702  0.3420  0.0142 -0.5726
  192POPC   O1222141   3.857   1.131   6.486 -0.7325 -0.6790 -0.0938
  192POPC   O1122142   4.001   1.128   6.667  0.1671 -0.2545 -0.0942
  192POPC    C122143   4.031   1.254   6.713 -0.3217  0.6273  0.5611
  192POPC    HA22144   3.943   1.304   6.758  0.3066  2.1156  0.2013
  192POPC    HB22145   4.060   1.314   6.624  1.0775 -0.8371 -0.0296
  192POPC    C222146   4.153   1.244   6.812  0.5352  0.2843  0.9450
  192POPC    HS22147   4.243   1.204   6.761  1.2790  1.5528  1.2212
  192POPC   O2122148   4.119   1.146   6.915  0.3799  0.1291 -0.0705
  192POPC   C2122149   4.149   1.015   6.894  0.4342  0.0181  0.0450
  192POPC   O2222150   4.223   0.979   6.806  0.3485  0.2007  0.0102
  192POPC   C2222151   4.080   0.923   6.993 -0.2125  0.1954 -0.1829
  192POPC   H2R22152   4.137   0.829   7.003  1.9689  1.1717 -2.3124
  192POPC   H2S22153   3.971   0.922   6.972 -0.4323  1.7560  0.7115
  192POPC    C322154   4.184   1.380   6.886 -0.6116  0.1959 -0.2092
  192POPC    HX22155   4.091   1.401   6.944 -1.0159  0.7075 -1.0275
  192POPC    HY22156   4.200   1.463   6.814  0.1178 -0.6206 -1.0027
  192POPC   O3122157   4.292   1.381   6.985  0.4615 -0.1156  0.4810
  192POPC   C3122158   4.414   1.361   6.955 -0.8117 -0.0445  0.7441
  192POPC   O3222159   4.455   1.351   6.839 -0.3430 -0.0121 -0.2908
  192POPC   C3222160   4.499   1.345   7.081  0.1298  0.0924  0.1661
  192POPC   H2X22161   4.423   1.346   7.162  0.7783  1.1753  0.7831
  192POPC   H2Y22162   4.569   1.430   7.071  0.3696 -0.3960 -3.6516
  192POPC   C2322163   4.073   0.987   7.133  1.1285  0.7882  0.2579
  192POPC   H3R22164   4.031   0.913   7.205  1.3187  1.3973  1.0033
  192POPC   H3S22165   4.012   1.080   7.136 -0.7273 -0.2241 -2.5809
  192POPC   C2422166   4.204   1.035   7.195  0.3990 -0.0522  0.0067
  192POPC   H4R22167   4.232   1.134   7.154  1.3470 -0.3096  0.0066
  192POPC   H4S22168   4.291   0.973   7.165  1.4978  0.5605  1.7963
  192POPC   C2522169   4.190   1.036   7.351 -0.5599 -0.5083  0.0884
  192POPC   H5R22170   4.214   0.938   7.396 -1.7122 -0.5512  0.6371
  192POPC   H5S22171   4.089   1.057   7.394  0.0433 -0.6246  1.6344
  192POPC   C2622172   4.289   1.138   7.416 -0.3519  0.1353 -0.2530
  192POPC   H6R22173   4.258   1.240   7.383  1.2044  0.7344  0.0193
  192POPC   H6S22174   4.398   1.125   7.400 -0.5206 -0.5613 -0.8596
  192POPC   C2722175   4.263   1.149   7.567  0.8224  0.4885  0.1395
  192POPC   H7R22176   4.155   1.170   7.583  0.2984 -0.9740 -1.1705
  192POPC   H7S22177   4.321   1.228   7.619  1.8495 -1.3794  1.9818
  192POPC   C2822178   4.303   1.028   7.649 -0.2010 -0.4612  0.1731
  192POPC   H8R22179   4.264   0.929   7.617  0.8312 -0.9506  0.3835
  192POPC   H8S22180   4.259   1.038   7.750  1.4052  1.9607  0.7188
  192POPC   C2922181   4.449   1.026   7.642 -0.5130  0.2786  0.6720
  192POPC   H9122182   4.485   1.019   7.538 -1.0369  0.9695  0.4356
  192POPC  C21022183   4.539   1.034   7.741 -0.1254 -0.0417  0.6341
  192POPC  H10122184   4.642   1.020   7.706 -1.1546 -0.6672 -2.5026
  192POPC  C21122185   4.503   1.049   7.885  0.4475 -0.1554 -1.3584
  192POPC  H11R22186   4.426   1.126   7.904  1.3773  0.5856 -0.5029
  192POPC  H11S22187   4.595   1.082   7.938  1.4902 -0.5962 -2.8062
  192POPC  C21222188   4.446   0.921   7.958 -0.1011  0.6280 -0.5239
  192POPC  H12R22189   4.518   0.837   7.956 -0.7592 -0.1214  2.4304
  192POPC  H12S22190   4.349   0.889   7.914  0.9961 -0.5589 -2.2101
  192POPC  C21322191   4.425   0.952   8.114 -0.3276  0.5946 -0.9447
  192POPC  H13R22192   4.341   1.024   8.107 -0.3858  0.4353 -2.0955
  192POPC  H13S22193   4.513   0.996   8.166 -0.8599  0.2975  0.2307
  192POPC  C21422194   4.371   0.835   8.192 -0.3071  0.9521 -0.5763
  192POPC  H14R22195   4.351   0.877   8.293  1.1909  1.9763 -0.6791
  192POPC  H14S22196   4.438   0.746   8.196 -0.9337  0.4766 -0.5738
  192POPC  C21522197   4.238   0.763   8.154  0.1553 -0.3424 -0.1690
  192POPC  H15R22198   4.245   0.704   8.060 -0.4949 -0.0804 -0.3869
  192POPC  H15S22199   4.170   0.846   8.126  0.1244 -0.8234 -1.6085
  192POPC  C21622200   4.180   0.676   8.269 -0.3877 -0.1472  0.7760
  192POPC  H16R22201   4.183   0.726   8.368 -2.4794  1.8790 -0.0976
  192POPC  H16S22202   4.248   0.588   8.274 -1.9951 -1.5397 -0.6754
  192POPC  C21722203   4.035   0.637   8.234 -0.2513  1.3024  0.1577
  192POPC  H17R22204   4.027   0.570   8.146 -1.4359  1.5523  0.0538
  192POPC  H17S22205   3.973   0.727   8.214  0.3709  1.2675 -2.1439
  192POPC  C21822206   3.976   0.551   8.349  0.5739 -0.6542 -0.2114
  192POPC  H18R22207   3.876   0.517   8.317  1.1116 -1.2220 -1.3670
  192POPC  H18S22208   3.967   0.614   8.439 -2.1322  0.3054 -1.0634
  192POPC  H18T22209   4.054   0.474   8.368  0.1852 -0.7941  0.8551
  192POPC   C3322210   4.574   1.206   7.082  0.0745 -0.5909  0.1535
  192POPC   H3X22211   4.604   1.180   6.979 -1.5021 -0.0841 -0.4659
  192POPC   H3Y22212   4.506   1.128   7.122 -1.5125  0.4247 -0.4755
  192POPC   C3422213   4.695   1.215   7.174 -0.2088 -0.7319 -0.2224
  192POPC   H4X22214   4.758   1.301   7.143 -0.9900  0.3640  1.1134
  192POPC   H4Y22215   4.753   1.120   7.164 -0.8380 -1.0904 -0.5359
  192POPC   C3522216   4.658   1.228   7.324  0.4236  0.4020  0.3477
  192POPC   H5X22217   4.586   1.147   7.351  0.5998 -0.2675 -1.1037
  192POPC   H5Y22218   4.610   1.327   7.311 -0.1214  0.2534  1.1127
  192POPC   C3622219   4.779   1.218   7.418 -0.3479  0.1198  0.0241
  192POPC   H6X22220   4.878   1.250   7.381 -0.1972 -0.2268  0.1239
  192POPC   H6Y22221   4.782   1.112   7.452  0.5101  1.0139  3.0212
  192POPC   C3722222   4.749   1.302   7.544 -0.1268 -0.6567 -0.6228
  192POPC   H7X22223   4.657   1.260   7.591 -0.3915  1.3585  0.7914
  192POPC   H7Y22224   4.740   1.409   7.517 -1.9597 -0.8333 -0.8680
  192POPC   C3822225   4.863   1.289   7.656  0.2936  0.0148  0.1752
  192POPC   H8X22226   4.943   1.365   7.641 -0.4648  0.8059  0.0732
  192POPC   H8Y22227   4.912   1.189   7.653 -0.6588 -0.4560  0.1939
  192POPC   C3922228   4.814   1.306   7.801 -0.4833 -0.1833 -0.5108
  192POPC   H9X22229   4.741   1.224   7.821 -0.9088 -0.0199 -1.3504
  192POPC   H9Y22230   4.767   1.406   7.801 -0.6577 -0.2633  0.2100
  192POPC  C31022231   4.930   1.309   7.904 -0.0522 -0.5256  0.2813
  192POPC  H10X22232   5.027   1.310   7.849 -1.1002 -1.1157 -1.6474
  192POPC  H10Y22233   4.924   1.221   7.971 -0.2153  0.7534  2.0411
  192POPC  C31122234   4.912   1.437   7.991  0.0446 -0.0806  0.1197
  192POPC  H11X22235   4.807   1.443   8.026  0.5272  1.3897  1.4070
  192POPC  H11Y22236   4.934   1.528   7.930  1.7985  0.4256  1.4129
  192POPC  C31222237   5.000   1.444   8.109  0.0287  0.6477 -0.0628
  192POPC  H12X22238   5.107   1.465   8.085 -0.4637  1.4731 -1.6656
  192POPC  H12Y22239   5.004   1.355   8.175 -0.7550  3.1206  3.6402
  192POPC  C31322240   4.950   1.555   8.209  0.2416  0.7996 -0.1882
  192POPC  H13X22241   4.845   1.544   8.244  0.7524  0.7741  1.3738
  192POPC  H13Y22242   4.950   1.654   8.158 -1.6231  0.1316 -1.6156
  192POPC  C31422243   5.032   1.565   8.330 -0.1385  0.0035 -0.2468
  192POPC  H14X22244   5.140   1.562   8.304 -0.3823 -0.6689 -1.2564
  192POPC  H14Y22245   5.018   1.479   8.399  1.4483 -0.0819  0.0226
  192POPC  C31522246   5.000   1.688   8.419 -0.5477  0.9511  0.2290
  192POPC  H15X22247   5.030   1.774   8.355  1.8467 -0.3501 -0.5448
  192POPC  H15Y22248   5.073   1.680   8.502 -0.4566 -0.9535  0.0090
  192POPC  C31622249   4.857   1.692   8.475 -0.1186 -0.2953  0.4619
  192POPC  H16X22250   4.858   1.774   8.550  2.9387 -0.0496  0.2740
  192POPC  H16Y22251   4.841   1.595   8.526  1.4386 -0.7723  0.0969
  192POPC  H16Z22252   4.772   1.715   8.407 -2.2771  1.1415  3.4215
  193SOD    SOD22253   1.614   5.476  16.090  0.1443 -0.7783  0.4481
  194SOD    SOD22254   1.791   3.324  12.022 -0.3354  0.0154 -0.1972
  195SOD    SOD22255   1.542   3.992   4.760 -0.2267 -0.1085  0.3121
  196SOD    SOD22256   4.864   5.271  11.661 -0.1163  0.3288 -0.0207
  197SOD    SOD22257   4.853   0.820  12.224 -0.1974 -0.1979 -0.0639
  198SOD    SOD22258   2.422   0.546   2.988  0.2813 -0.0294 -0.1209
  199SOD    SOD22259   5.079   6.449   2.099  0.2920 -0.2238  0.0581
  200SOD    SOD22260   1.200   1.776   1.441 -0.0521  0.4396  0.1266
  201SOD    SOD22261   5.675   2.878   1.703 -0.0770  0.1549 -0.4819
  202SOD    SOD22262   3.504   4.002   4.129  0.0017  0.0238  0.0032
  203SOD    SOD22263   1.593   6.562   6.359 -0.0579 -0.3426  0.0937
  204SOD    SOD22264   4.573   1.949   4.354 -0.2334 -0.0693 -0.2064
  205SOD    SOD22265   3.833   1.469   5.950 -0.0066 -0.0142 -0.0346
  206SOD    SOD22266   1.078   4.285   5.914 -0.4265  0.3373 -0.0521
  207SOD    SOD22267   3.618   5.259  11.413  0.3379  0.1630  0.0378
  208SOD    SOD22268   3.730   3.755  13.311 -0.7992  0.3150  0.1011
  209SOD    SOD22269   1.534   4.387  16.248  0.5513 -0.1645  0.2969
  210SOD    SOD22270   4.886   0.372   6.219  0.2679  0.4782 -0.1747
  211SOD    SOD22271   5.734   3.544   4.272 -1.0331  0.3267 -0.2460
  212SOD    SOD22272   5.930   2.032  11.030  0.0490  0.0693 -0.5427
  213SOD    SOD22273   0.561   4.039   1.748 -0.1303 -0.2725 -0.0142
  214SOD    SOD22274   6.606   2.565  15.329 -0.0682 -0.1376  0.2803
  215SOD    SOD22275   0.119   6.353  15.655  0.0567  0.1550  0.2759
  216SOD    SOD22276   4.339   1.894  10.647  0.1709  0.0520 -0.2365
  217SOD    SOD22277   5.613   5.067   3.264  0.0139  0.3809  0.3990
  218SOD    SOD22278   4.932   5.181  14.260  0.1609  0.0927  0.4639
  219SOD    SOD22279   2.188   1.768   0.493  0.2016  0.3913 -0.0326
  220SOD    SOD22280   2.366   2.718   4.374  0.2832 -0.5897  0.7241
  221SOD    SOD22281   2.361   2.410   1.884 -0.3493  0.1322  0.3747
  222SOD    SOD22282   4.250   5.966  11.114 -0.1025  0.3092  0.3675
  223SOD    SOD22283   0.828   6.634  12.806 -0.0678  0.2351 -0.0885
  224SOD    SOD22284   3.578   2.954   6.296 -0.1143 -0.0664  0.3034
  225SOD    SOD22285   1.372   3.566  11.496  0.0496 -0.3605 -0.3995
  226SOD    SOD22286   0.564   0.488  12.005 -0.3009 -0.2259  0.1884
  227SOD    SOD22287   5.478   1.412   1.879 -0.2252  0.0643 -0.0502
  228SOD    SOD22288   2.059   1.188   1.530 -0.3562  0.3458  0.2432
  229SOD    SOD22289   0.491   4.073   5.647  0.0423  0.5577  0.3562
  230SOD    SOD22290   4.910   1.452   3.547 -0.3715  0.5653  0.3227
  231SOD    SOD22291   2.946   6.062   0.619  0.0577  0.1115 -0.4242
  232SOD    SOD22292   1.472   1.153   6.102  0.2949 -0.0422  0.5102
  233SOD    SOD22293   3.335   1.227  14.120  0.4291 -0.0382  0.1744
  234SOD    SOD22294   4.724   6.226  12.215  0.0307 -0.3198  0.4000
  235SOD    SOD22295   6.419   3.861  11.822  0.0675 -0.3271 -0.0357
  236SOD    SOD22296   3.466   3.176  17.259 -0.0151  0.8276 -0.0935
  237SOD    SOD22297   3.483   4.331  11.654 -0.1709 -0.3557  0.1219
  238SOD    SOD22298   6.224   2.959   1.697 -0.2295 -0.0089  0.4213
  239SOD    SOD22299   2.500   1.918   4.757 -0.4928 -0.1614 -0.3338
  240SOD    SOD22300   2.234   0.951  10.797  0.1602 -0.0962 -0.6355
  241SOD    SOD22301   6.003   6.421  12.349  0.3928 -0.0862 -0.2127
  242SOD    SOD22302   6.149   0.688  15.934  0.2797 -0.6211 -0.1176
  243SOD    SOD22303   4.426   2.607   1.569 -0.1866  0.0518  0.1918
  244SOD    SOD22304   5.232   6.576   3.372 -0.1141  0.0209  0.0777
  245SOD    SOD22305   4.267   4.810   6.567  0.5539  0.0700  0.1018
  246SOD    SOD22306   3.293   5.302   2.608 -0.0998 -0.0852  0.8222
  247SOD    SOD22307   3.198   2.027  10.729 -0.1434  0.4858  0.3922
  248SOD    SOD22308   0.613   5.025   5.871  0.5632  0.2771 -0.1400
  249SOD    SOD22309   1.874   2.557  11.045 -0.0534  0.0909 -0.3083
  250SOD    SOD22310   0.527   1.288  13.843  0.2600 -0.2723  0.5368
  251SOD    SOD22311   5.579   4.152   5.374 -0.2568  0.4966 -0.2608
  252SOD    SOD22312   4.469   5.111  12.945  0.0639  0.0149  0.2400
  253SOD    SOD22313   4.361   3.250  13.842  0.5427 -0.2897  0.0806
  254SOD    SOD22314   2.822   3.491   2.535 -0.0365  0.0452  0.1090
  255SOD    SOD22315   4.951   5.938   4.479 -0.5428  0.1333  0.4988
  256SOD    SOD22316   6.384   1.749  12.324  0.1229  0.4905  0.1769
  257SOD    SOD22317   5.815   2.345   1.371 -0.1461  0.4843 -0.2070
  258SOD    SOD22318   0.992   3.643  13.099 -0.1521  0.5791  0.8862
  259SOD    SOD22319   0.378   5.295   1.725 -0.3134  0.5964  0.0835
  260SOD    SOD22320   4.854   6.270   6.131 -0.6041 -0.5686  0.2968
  261SOD    SOD22321   2.994   5.754   2.086 -0.5139  0.4388  0.2182
  262SOD    SOD22322   1.437   0.820  13.573  0.0403 -0.2099  0.0946
  263SOD    SOD22323   0.511   6.387  16.786 -0.0805  0.7193  0.6006
  264SOD    SOD22324   5.910   1.814   0.455  0.6031  0.1154 -0.1408
  265SOD    SOD22325   4.613   1.843  13.336  0.4667 -0.0358 -0.6652
  266SOD    SOD22326   1.422   2.194  13.453 -0.0927 -0.1273 -0.3731
  267SOD    SOD22327   2.206   3.112  14.406  0.0923  0.4511 -0.1985
  268SOD    SOD22328   0.490   0.118   3.787  0.2194  0.3722  0.3067
  269SOD    SOD22329   1.356   4.096   6.264  0.1854 -0.2700  0.3096
  270CLA    CLA22330   0.341   3.488   1.051  0.3557 -0.2380  0.1713
  271CLA    CLA22331   1.319   5.143  12.012  0.2840 -0.0126 -0.3857
  272CLA    CLA22332   2.577   2.209  14.996 -0.0387  0.0973  0.1626
  273CLA    CLA22333   3.262   4.688   2.966 -0.0510  0.4519  0.0145
  274CLA    CLA22334   5.650   1.309   1.506 -0.2962  0.2748 -0.3774
  275CLA    CLA22335   6.261   3.738  14.542  0.2643 -0.6090  0.1266
  276CLA    CLA22336   6.353   0.937   3.751 -0.0842 -0.1692  0.3412
  277CLA    CLA22337   1.875   3.040  15.753  0.3024  0.1206  0.0626
  278CLA    CLA22338   0.814   4.917   3.039 -0.0728  0.0410  0.1885
  279CLA    CLA22339   0.740   0.133  12.734 -0.3115  0.1966 -0.5003
  280CLA    CLA22340   2.499   0.846   1.973 -0.1235 -0.1690  0.0380
  281CLA    CLA22341   2.866   5.291   0.400  0.3839 -0.0587 -0.3872
  282CLA    CLA22342   5.251   2.443  16.757  0.2532 -0.3203  0.5432
  283CLA    CLA22343   1.702   2.118   2.487  0.3873 -0.5577  0.0484
  284CLA    CLA22344   0.593   4.098   2.779 -0.1363  0.3140 -0.0678
  285CLA    CLA22345   2.857   2.541   4.358 -0.1955  0.1420  0.2535
  286CLA    CLA22346   1.401   4.827   1.318  0.0862  0.0345 -0.1215
  287CLA    CLA22347   0.344   1.103  12.061 -0.3711 -0.2115  0.1750
  288CLA    CLA22348   2.003   1.467  14.297  0.3086  0.1124  0.0190
  289CLA    CLA22349   5.672   0.037   0.726 -0.4057  0.2941  0.1910
  290CLA    CLA22350   1.184   6.108   1.107 -0.1560 -0.1771 -0.3348
  291CLA    CLA22351   3.091   4.855   4.160  0.0821  0.3004 -0.5451
  292CLA    CLA22352   4.712   1.177  12.576 -0.0216 -0.0665  0.0278
  293CLA    CLA22353   0.353   1.102  16.820 -0.4800  0.2801  0.2507
  294CLA    CLA22354   2.550   1.047   0.482  0.1133  0.1840  0.4643
  295CLA    CLA22355   4.403   2.117   1.414 -0.0978 -0.0062 -0.7394
  296CLA    CLA22356   1.782   3.020   4.308  0.1940  0.4454 -0.0399
  297CLA    CLA22357   1.499   0.125  14.362  0.1424 -0.3118 -0.1485
  298CLA    CLA22358   5.168   5.467  16.259  0.7809  0.4936 -0.3067
  299CLA    CLA22359   4.439   0.004   3.458  0.4347 -0.3661  0.5671
  300CLA    CLA22360   3.930   5.196   3.902 -0.0808 -0.1668 -0.0354
  301CLA    CLA22361   3.246   3.524  16.043 -0.0394  0.2018 -0.0420
  302CLA    CLA22362   2.305   3.011  12.812 -0.0599 -0.3935 -0.1459
  303CLA    CLA22363   2.744   6.578   0.021  0.1587 -0.0578 -0.3319
  304CLA    CLA22364   0.687   3.930  13.227 -0.1740  0.3537 -0.1532
  305CLA    CLA22365   6.180   1.114  17.000 -0.0022 -0.2450 -0.1895
  306CLA    CLA22366   3.425   0.077  16.233 -0.0407  0.0446  0.1284
  307CLA    CLA22367   2.436   1.374  12.091 -0.0384  0.1376  0.3282
  308CLA    CLA22368   6.596   2.046   4.656  0.1109 -0.0289  0.2616
  309CLA    CLA22369   1.730   4.018   3.915  0.2848 -0.1456  0.4678
  310CLA    CLA22370   2.256   3.065  16.067 -0.5015 -0.0490 -0.0540
  311CLA    CLA22371   4.384   1.287  17.075  0.3013  0.1880  0.0915
  312CLA    CLA22372   0.334   2.538  15.131 -0.3427 -0.1672  0.1274
  313CLA    CLA22373   4.675   3.790  14.015  0.3300 -0.4257  0.0040
  314CLA    CLA22374   6.478   3.574  14.134 -0.4866  0.0114  0.0341
  315CLA    CLA22375   2.335   2.250   0.078  0.0066  0.1149 -0.2277
  316CLA    CLA22376   0.732   3.500  13.783 -0.1205 -0.1845  0.1346
  317CLA    CLA22377   1.435   4.390  11.863  0.3890 -0.0844  0.2221
  318CLA    CLA22378   4.267   0.245  13.888  0.1697  0.1674  0.2144
  319CLA    CLA22379   5.764   2.362   4.197  0.2023  0.5636  0.3200
  320CLA    CLA22380   5.110   1.868   3.622 -0.1689 -0.3652  0.1117
  321CLA    CLA22381   2.455   4.365   2.277 -0.0082 -0.0089  0.0618
  322CLA    CLA22382   4.987   0.049   4.423  0.1145  0.1090  0.1411
  323TIP3   OH222383   4.716   3.972   4.485 -0.2806 -0.1970 -0.4075
  323TIP3    H122384   4.682   4.006   4.402  0.1228 -0.4187 -0.6645
  323TIP3    H222385   4.804   3.943   4.465 -0.2604 -0.4643  0.0509
  324TIP3   OH222386   1.599   1.030  14.861 -0.3910  0.4264 -0.0963
  324TIP3    H122387   1.634   1.082  14.934  0.1978 -0.5113  0.3140
  324TIP3    H222388   1.623   1.079  14.783  0.2926  0.7121  0.2804
  325TIP3   OH222389   6.121   2.449  12.224 -0.1618  0.0074 -0.6290
  325TIP3    H122390   6.150   2.415  12.309 -0.1566  1.4802 -0.0171
  325TIP3    H222391   6.028   2.430  12.220 -0.1081 -0.2986 -0.4165
  326TIP3   OH222392   0.091   4.892  11.574  0.0231 -0.4696 -0.0611
  326TIP3    H122393   0.108   4.986  11.572 -1.4450 -0.1988 -0.7662
  326TIP3    H222394   0.134   4.859  11.496 -0.0123 -0.2817 -0.1609
  327TIP3   OH222395   1.866   5.952   5.479  0.1638 -0.6555  0.2225
  327TIP3    H122396   1.791   5.895   5.466 -0.2655 -0.2625  0.8874
  327TIP3    H222397   1.902   5.966   5.391 -0.7605 -0.5515 -0.1456
  328TIP3   OH222398   6.227   0.016  11.330  0.3095 -0.7821 -0.2018
  328TIP3    H122399   6.263   0.086  11.275  0.5701  0.9156  1.9900
  328TIP3    H222400   6.301  -0.011  11.384 -0.3748 -1.1295  0.5635
  329TIP3   OH222401   2.565   2.375   1.238  0.1214  0.4984 -0.3020
  329TIP3    H122402   2.581   2.286   1.268 -1.4993  0.9610  2.2843
  329TIP3    H222403   2.480   2.371   1.194 -1.2446  1.0610  2.0533
  330TIP3   OH222404   1.674   5.288  15.956  0.1281 -0.3445  0.0611
  330TIP3    H122405   1.649   5.198  15.973  1.4269 -0.8881 -0.6913
  330TIP3    H222406   1.753   5.281  15.902 -0.6428  1.2306 -1.3893
  331TIP3   OH222407   6.606   4.004   2.762  0.7275  0.6002  0.0931
  331TIP3    H122408   6.698   3.980   2.755  0.6612  0.6056 -1.1280
  331TIP3    H222409   6.602   4.093   2.727  0.4437  1.1099  1.3568
  332TIP3   OH222410   5.519   2.847   6.261  0.0594 -0.1656 -0.4057
  332TIP3    H122411   5.528   2.869   6.354  1.2903 -0.6094 -0.4044
  332TIP3    H222412   5.438   2.890   6.234 -2.0896 -2.6326  1.6368
  333TIP3   OH222413   0.677   2.861  14.742 -0.2079 -0.4413  0.0284
  333TIP3    H122414   0.593   2.869  14.788  0.3117 -2.5619  1.4720
  333TIP3    H222415   0.742   2.853  14.811  1.1602  0.6060 -1.0809
  334TIP3   OH222416   1.013   4.932  12.625 -0.9115  0.2712 -0.0278
  334TIP3    H122417   1.091   4.972  12.664 -0.4509 -1.0445  0.4584
  334TIP3    H222418   1.005   4.972  12.539  2.0879 -1.6697 -1.3776
  335TIP3   OH222419   0.789   2.491   1.540 -0.5035  0.3721  0.4253
  335TIP3    H122420   0.771   2.501   1.633 -0.0730 -0.4638  0.6120
  335TIP3    H222421   0.732   2.419   1.512 -0.2892  0.3063  0.1517
  336TIP3   OH222422   2.145   0.287   0.641  0.0662  0.0307  0.1094
  336TIP3    H122423   2.210   0.283   0.571 -0.4213  0.1726 -0.3611
  336TIP3    H222424   2.065   0.251   0.602 -0.2596  0.2784  0.5349
  337TIP3   OH222425   5.022   4.935   0.067 -0.1512 -0.1618  0.5430
  337TIP3    H122426   4.969   4.984   0.003 -1.0402 -1.9780 -0.1903
  337TIP3    H222427   5.005   4.843   0.046  2.6998 -0.8386  0.8029
  338TIP3   OH222428   3.500   6.036  15.654 -0.2505  0.3753 -0.2821
  338TIP3    H122429   3.423   6.070  15.700  0.3581  0.2945  0.8399
  338TIP3    H222430   3.503   6.085  15.572  0.0931  2.4329  0.8944
  339TIP3   OH222431   0.820   2.885   4.646 -0.2983 -0.3226  0.6263
  339TIP3    H122432   0.737   2.864   4.603  1.2185 -0.7370 -2.3576
  339TIP3    H222433   0.840   2.975   4.620  1.6304 -1.2472 -1.4308
  340TIP3   OH222434   4.755   2.632  16.499 -0.1605 -0.1500 -0.4228
  340TIP3    H122435   4.672   2.677  16.514 -0.2335 -0.8090  1.4616
  340TIP3    H222436   4.743   2.585  16.416 -1.3351  0.4770 -0.6254
  341TIP3   OH222437   6.611   0.448   5.625 -0.4336 -0.4669  0.0652
  341TIP3    H122438   6.598   0.523   5.566 -1.1216 -0.6501 -0.0204
  341TIP3    H222439   6.526   0.406   5.629 -0.1191 -1.0795  0.3528
  342TIP3   OH222440   1.849   5.114   1.959  0.5027  0.2565  0.6471
  342TIP3    H122441   1.835   5.054   1.885 -1.4605 -0.2577  1.3532
  342TIP3    H222442   1.805   5.195   1.933 -1.2461 -0.3148  1.6582
  343TIP3   OH222443   1.739   3.256   4.101  0.0499 -0.9834 -0.1356
  343TIP3    H122444   1.747   3.195   4.174 -0.0359 -1.0805 -0.2063
  343TIP3    H222445   1.645   3.260   4.083 -0.0503 -0.0492  0.5221
  344TIP3   OH222446   3.856   1.958   2.176 -0.4150 -0.1134 -0.5103
  344TIP3    H122447   3.930   2.017   2.167 -0.2532 -0.5436 -2.3842
  344TIP3    H222448   3.796   1.984   2.106 -2.1989  0.4103  1.1298
  345TIP3   OH222449   6.507   1.550   1.894  0.3105 -0.2449  0.5115
  345TIP3    H122450   6.450   1.555   1.971  0.8214  1.5275  0.8135
  345TIP3    H222451   6.522   1.641   1.869 -0.3830 -0.7705 -2.1171
  346TIP3   OH222452   1.501   3.772   1.541 -0.3379 -0.2106 -0.3567
  346TIP3    H122453   1.499   3.864   1.514 -0.7486  0.5016  1.8810
  346TIP3    H222454   1.561   3.730   1.479  0.6703  1.7765 -0.8175
  347TIP3   OH222455   5.276   4.672   3.568 -0.5223 -0.3953 -0.2093
  347TIP3    H122456   5.183   4.653   3.575 -0.5918 -0.0890 -0.2922
  347TIP3    H222457   5.284   4.764   3.594 -0.2305 -0.4515 -0.0980
  348TIP3   OH222458   2.825   5.780  12.609 -0.1597 -0.1607  0.1295
  348TIP3    H122459   2.908   5.741  12.638  0.6396  0.8341 -0.7448
  348TIP3    H222460   2.791   5.719  12.544  0.1166 -0.3559  0.1681
  349TIP3   OH222461   3.759   3.956   5.894  0.0685  0.0800 -0.4202
  349TIP3    H122462   3.784   3.867   5.869  0.3346  0.7341 -2.7373
  349TIP3    H222463   3.695   3.982   5.827  0.5627  1.8859 -0.2372
  350TIP3   OH222464   5.237   5.684  14.135  0.0928 -0.0001  0.3591
  350TIP3    H122465   5.205   5.618  14.074  3.4508 -1.0406 -0.4802
  350TIP3    H222466   5.196   5.765  14.106 -0.1344 -0.8543 -1.9470
  351TIP3   OH222467   6.628   4.907  11.399  0.1314  0.5902 -0.1727
  351TIP3    H122468   6.582   4.852  11.336  0.3905  2.5271 -2.2086
  351TIP3    H222469   6.720   4.905  11.370  0.0634  2.4381 -0.6706
  352TIP3   OH222470   4.264   4.445  14.716 -0.2936 -0.1452 -0.2352
  352TIP3    H122471   4.323   4.456  14.642  1.0491 -0.0456  0.8005
  352TIP3    H222472   4.186   4.496  14.693  0.4079  0.5085 -1.2382
  353TIP3   OH222473   4.524   3.458   5.866 -0.0517 -0.0408  0.1360
  353TIP3    H122474   4.603   3.405   5.875  0.8282  0.7479 -2.2965
  353TIP3    H222475   4.466   3.404   5.812 -0.2748  0.3321  0.0027
  354TIP3   OH222476   2.947   1.085  15.750  0.1137  0.3822 -0.6724
  354TIP3    H122477   3.031   1.045  15.773 -0.1402 -0.2279 -0.7902
  354TIP3    H222478   2.940   1.161  15.808 -0.5792 -1.2018  1.4587
  355TIP3   OH222479   4.571   4.262   4.861  0.4155 -0.4272 -0.1790
  355TIP3    H122480   4.645   4.244   4.802  0.9568  0.5685  0.1675
  355TIP3    H222481   4.595   4.220   4.944  0.4147 -0.4283 -0.1793
  356TIP3   OH222482   2.004   0.592   4.803  0.5837 -0.6633 -0.2551
  356TIP3    H122483   2.017   0.675   4.756  1.0914 -0.5454  0.0818
  356TIP3    H222484   2.050   0.605   4.886 -1.1179 -0.5171  0.7010
  357TIP3   OH222485   1.096   6.579  16.206 -0.3740 -0.2034 -0.1635
  357TIP3    H122486   1.038   6.559  16.279  2.7752 -2.9804  1.8813
  357TIP3    H222487   1.179   6.605  16.247  1.5186 -1.8203 -2.6513
  358TIP3   OH222488   0.638   4.120  12.058  0.2547 -0.1622 -0.2220
  358TIP3    H122489   0.577   4.119  11.985 -0.9523 -1.6561  0.7223
  358TIP3    H222490   0.603   4.185  12.118  0.5130  0.1412 -0.4001
  359TIP3   OH222491   2.456   4.386  16.466  0.2606 -0.3167  0.0384
  359TIP3    H122492   2.420   4.391  16.378 -1.2604  1.8513  0.7092
  359TIP3    H222493   2.550   4.399  16.454 -0.0074  0.6105 -1.2262
  360TIP3   OH222494   1.580   0.611   4.439 -0.0511 -0.3206 -0.3895
  360TIP3    H122495   1.611   0.565   4.361 -3.0880 -0.5250 -1.6136
  360TIP3    H222496   1.646   0.679   4.455  2.7642 -2.8076 -0.5893
  361TIP3   OH222497   2.834   0.728   4.113  0.1781  0.2243  0.2534
  361TIP3    H122498   2.863   0.649   4.160  0.0702 -0.8357 -1.4000
  361TIP3    H222499   2.882   0.726   4.030 -0.4297  1.4787 -0.1556
  362TIP3   OH222500   2.737   4.998  12.640  0.4139  0.2676 -0.4286
  362TIP3    H122501   2.766   5.089  12.637  0.3347  0.3445  0.6365
  362TIP3    H222502   2.659   4.995  12.585  0.0702  0.9817  0.0068
  363TIP3   OH222503   0.850   0.816  12.068  0.5569 -0.0433 -0.1097
  363TIP3    H122504   0.759   0.845  12.062  0.5033 -0.0528  0.5605
  363TIP3    H222505   0.877   0.843  12.156  1.1969 -0.0527 -0.3004
  364TIP3   OH222506   2.044   0.807  15.400  0.2960  0.0554  0.1082
  364TIP3    H122507   2.001   0.889  15.376 -0.3843 -0.6838 -1.3391
  364TIP3    H222508   1.989   0.769  15.468  0.5128  0.7038  0.6527
  365TIP3   OH222509   1.734   6.116   1.230 -0.7442  0.5733  0.1656
  365TIP3    H122510   1.648   6.112   1.188 -1.2991  0.2002  1.2742
  365TIP3    H222511   1.783   6.043   1.192 -0.9084  0.7914 -0.4758
  366TIP3   OH222512   3.536   3.922  15.035  0.2657  0.4807  0.1887
  366TIP3    H122513   3.445   3.916  15.003  1.1524 -1.2784 -2.3974
  366TIP3    H222514   3.544   3.849  15.097  0.5149 -1.0789 -1.5715
  367TIP3   OH222515   0.483   2.557   3.175 -0.4063  0.7138  0.1949
  367TIP3    H122516   0.538   2.522   3.106 -2.1157 -2.2370  0.1496
  367TIP3    H222517   0.541   2.614   3.226  1.3582  1.5014 -2.5203
  368TIP3   OH222518   6.065   3.022   1.862  0.2189 -0.3000 -0.3732
  368TIP3    H122519   5.981   3.065   1.844  0.6489  0.1779 -1.3522
  368TIP3    H222520   6.065   3.006   1.956  0.5123  2.9487  0.3085
  369TIP3   OH222521   1.029   5.568  15.052 -0.0271 -0.6281  0.9427
  369TIP3    H122522   1.118   5.537  15.036  0.0106 -0.8493  1.5509
  369TIP3    H222523   1.035   5.615  15.135 -0.3048  0.1069  0.5534
  370TIP3   OH222524   6.650   3.682   5.220  0.0494 -0.0947 -0.3519
  370TIP3    H122525   6.556   3.672   5.237  0.2174 -0.4638  0.4395
  370TIP3    H222526   6.658   3.770   5.183 -0.7996 -0.6885 -2.0245
  371TIP3   OH222527   1.641   6.012   3.316 -0.5593  0.4027 -0.3670
  371TIP3    H122528   1.704   5.953   3.358 -1.4172  0.1577  0.6199
  371TIP3    H222529   1.586   5.955   3.263  1.1055  0.8100 -2.7033
  372TIP3   OH222530   5.766   2.870  14.773  0.4149  0.3552  0.4110
  372TIP3    H122531   5.811   2.822  14.703 -1.8489 -0.9438 -0.2654
  372TIP3    H222532   5.700   2.921  14.727 -0.3579  0.3767  1.5292
  373TIP3   OH222533   3.771   3.725   2.791 -0.2824  0.7235  0.1191
  373TIP3    H122534   3.689   3.774   2.800 -0.4864  0.2345  0.9486
  373TIP3    H222535   3.836   3.781   2.833 -0.2628  0.9158 -0.1628
  374TIP3   OH222536   5.215   6.202   1.015 -0.0415  0.0087 -0.1636
  374TIP3    H122537   5.220   6.289   0.975  1.9746  0.0265  0.0214
  374TIP3    H222538   5.233   6.217   1.108 -2.7457 -0.2837  0.5163
  375TIP3   OH222539   0.263   2.740   0.572 -0.1571  0.1011 -0.1920
  375TIP3    H122540   0.167   2.749   0.570 -0.2830 -1.2279 -0.9988
  375TIP3    H222541   0.287   2.716   0.483  1.1980  2.4362 -0.5492
  376TIP3   OH222542   3.029   4.706  15.245 -0.3407 -0.4607  0.1032
  376TIP3    H122543   3.034   4.780  15.305 -0.3712 -0.5664  0.2375
  376TIP3    H222544   2.936   4.700  15.221 -0.5610 -1.2217  1.0730
  377TIP3   OH222545   2.413   2.079   3.581 -0.1062 -0.7039  0.0670
  377TIP3    H122546   2.342   2.037   3.531  0.4283 -1.3701 -0.1479
  377TIP3    H222547   2.408   2.039   3.667 -1.3254  0.7794  0.7387
  378TIP3   OH222548   5.990   1.420   4.511  0.6032 -0.0979  0.0439
  378TIP3    H122549   6.074   1.457   4.486  0.3987  0.9606  0.8836
  378TIP3    H222550   5.929   1.494   4.510  0.0155 -0.5491  0.9972
  379TIP3   OH222551   6.109   1.210   1.765 -0.1838  0.0068  0.5653
  379TIP3    H122552   6.082   1.204   1.673 -1.2560 -0.9401  0.9149
  379TIP3    H222553   6.154   1.127   1.782 -0.0188  0.1660  0.9007
  380TIP3   OH222554   1.304   0.923   4.051  0.0536 -0.3605 -0.2220
  380TIP3    H122555   1.385   0.901   4.099 -0.5873 -2.8413 -0.1045
  380TIP3    H222556   1.260   0.839   4.041 -2.2160  0.8451 -0.8862
  381TIP3   OH222557   6.543   3.513   0.490 -0.6182  0.2994  0.1385
  381TIP3    H122558   6.602   3.441   0.467 -0.8436  0.4697 -1.0455
  381TIP3    H222559   6.456   3.473   0.491 -0.9572  0.8347 -2.1711
  382TIP3   OH222560   0.439   5.665   5.238 -0.4459 -0.1155  0.3618
  382TIP3    H122561   0.367   5.686   5.299 -0.3406 -0.6000  0.6558
  382TIP3    H222562   0.499   5.739   5.246 -1.5070  0.9151 -0.8170
  383TIP3   OH222563   3.007   6.336  13.671 -0.2261  0.3295 -0.1160
  383TIP3    H122564   3.087   6.284  13.661 -0.0668  0.6912 -0.8761
  383TIP3    H222565   3.018   6.382  13.754 -1.2109 -2.2432  1.5395
  384TIP3   OH222566   4.787   0.428  11.515 -0.1495 -0.4714 -0.6538
  384TIP3    H122567   4.825   0.453  11.599 -0.4767 -2.7335  0.2428
  384TIP3    H222568   4.856   0.445  11.451  0.6046  0.0060  0.2612
  385TIP3   OH222569   0.415   1.092   6.042 -0.0575 -0.2172 -0.0776
  385TIP3    H122570   0.398   1.145   5.964  2.4235 -0.2057 -0.6799
  385TIP3    H222571   0.397   1.002   6.014 -0.2147 -0.1077 -0.3314
  386TIP3   OH222572   4.667   2.786   0.286  0.0054 -0.0565 -0.0668
  386TIP3    H122573   4.606   2.736   0.231 -0.0931  0.3805 -0.3629
  386TIP3    H222574   4.747   2.793   0.232 -0.1593  0.5415 -0.2417
  387TIP3   OH222575   4.920   5.993   5.406  0.0464  0.9087 -0.4564
  387TIP3    H122576   4.933   6.063   5.470  1.0043 -0.6700  1.1703
  387TIP3    H222577   4.988   5.928   5.426 -2.0701 -1.4973 -0.4613
  388TIP3   OH222578   3.583   1.600  13.816  0.4493  0.2689  0.6437
  388TIP3    H122579   3.570   1.679  13.764 -2.5730  0.8955  2.1304
  388TIP3    H222580   3.554   1.528  13.760  0.0035  0.6048  0.4409
  389TIP3   OH222581   5.263   5.154  12.061 -0.1215  0.5362 -0.4107
  389TIP3    H122582   5.356   5.146  12.081  0.2095  3.0316 -0.6697
  389TIP3    H222583   5.258   5.157  11.966 -0.3805  1.0967 -0.3855
  390TIP3   OH222584   0.311   0.395   4.445  0.1376  0.9088 -0.0299
  390TIP3    H122585   0.229   0.364   4.483 -1.0072  2.0099 -1.5199
  390TIP3    H222586   0.341   0.323   4.390 -0.1679  0.7569  0.0019
  391TIP3   OH222587   6.160   4.181  16.371  0.2833 -0.2191  0.0847
  391TIP3    H122588   6.183   4.120  16.441  2.3075 -0.0138 -0.3451
  391TIP3    H222589   6.066   4.196  16.382  0.5776  0.1100  3.0164
  392TIP3   OH222590   5.187   1.661   2.278 -0.3971 -0.1625 -0.0654
  392TIP3    H122591   5.116   1.723   2.295  1.8524  2.0561  2.1368
  392TIP3    H222592   5.265   1.716   2.268  1.1133 -2.4754 -2.3568
  393TIP3   OH222593   1.030   3.495  16.806 -0.0880  0.0083 -0.1866
  393TIP3    H122594   1.093   3.546  16.857  0.2098  0.5800 -1.1065
  393TIP3    H222595   0.961   3.557  16.783  0.4358  0.1005 -1.5857
  394TIP3   OH222596   5.540   4.141   4.747 -0.0943  0.2232 -0.3381
  394TIP3    H122597   5.574   4.214   4.695  2.4433 -0.3282  0.4024
  394TIP3    H222598   5.445   4.142   4.732  0.2121  1.8882 -2.5854
  395TIP3   OH222599   6.039   3.320   2.263  0.3731  0.3387 -0.2553
  395TIP3    H122600   6.074   3.408   2.274  2.9261 -0.5947 -0.2002
  395TIP3    H222601   6.008   3.296   2.350  2.0902  0.2850  0.3904
  396TIP3   OH222602   3.243   0.981  11.662  0.5160  0.5539  0.4461
  396TIP3    H122603   3.258   0.900  11.613 -0.6309  0.7635 -0.3026
  396TIP3    H222604   3.330   1.015  11.680  1.0628 -1.3062  1.6001
  397TIP3   OH222605   0.909   0.565  11.484  0.0552 -0.6904  0.6723
  397TIP3    H122606   0.881   0.657  11.488  0.4506 -0.5579  0.5057
  397TIP3    H222607   1.004   0.569  11.499  0.1429 -1.0287  0.2279
  398TIP3   OH222608   5.665   1.891  11.734 -0.6040 -0.7353  0.2580
  398TIP3    H122609   5.606   1.911  11.807 -2.3287  0.4532 -1.3751
  398TIP3    H222610   5.745   1.940  11.754 -0.5783 -1.4011  1.9189
  399TIP3   OH222611   5.633   5.414  14.276 -0.1598 -0.4089 -0.2430
  399TIP3    H122612   5.555   5.399  14.223 -1.6047  0.0226  1.6768
  399TIP3    H222613   5.619   5.500  14.316  2.1186  0.4862 -1.1500
  400TIP3   OH222614   6.099   4.510   3.088  0.5363 -0.2028 -0.6954
  400TIP3    H122615   6.177   4.549   3.047  0.4488 -1.2928 -1.9600
  400TIP3    H222616   6.043   4.585   3.108  1.3239  0.4898 -1.0250
  401TIP3   OH222617   2.466   3.664   1.780 -0.4559  0.5260 -0.1370
  401TIP3    H122618   2.521   3.599   1.737  0.4859  1.0871  0.1956
  401TIP3    H222619   2.397   3.612   1.822  1.1464 -0.4549  1.4680
  402TIP3   OH222620   1.758   4.156  16.855  0.2921  0.2187 -0.0466
  402TIP3    H122621   1.786   4.180  16.943 -1.2920  2.2454 -0.0090
  402TIP3    H222622   1.838   4.130  16.810  0.9964 -1.9989  2.2657
  403TIP3   OH222623   4.171   6.257   5.971  0.0512  0.1091  0.0111
  403TIP3    H122624   4.263   6.235   5.985 -0.3239 -1.0770  0.7843
  403TIP3    H222625   4.153   6.232   5.881  0.6755  1.0879 -0.3974
  404TIP3   OH222626   0.872   0.116  16.327 -0.4050  0.5312  0.1870
  404TIP3    H122627   0.944   0.152  16.275  0.5829 -1.4640  0.0854
  404TIP3    H222628   0.804   0.097  16.262 -0.3178  0.7125  0.0398
  405TIP3   OH222629   0.893   6.707  12.024 -0.7919 -0.1363  0.6848
  405TIP3    H122630   0.811   6.658  12.024  0.3522 -2.1933  0.0416
  405TIP3    H222631   0.960   6.641  12.044  0.7903  1.2667  0.2243
  406TIP3   OH222632   6.192   2.407  14.242 -0.0483 -0.5005 -0.0521
  406TIP3    H122633   6.166   2.471  14.308 -0.2484  1.1221 -1.6316
  406TIP3    H222634   6.179   2.452  14.158  1.9370 -1.8315 -1.1484
  407TIP3   OH222635   2.596   4.945  14.685 -0.2048  0.0158 -0.1951
  407TIP3    H122636   2.629   4.919  14.771 -0.0825  0.7441 -0.0138
  407TIP3    H222637   2.653   4.900  14.623  1.8559  2.0277  0.0935
  408TIP3   OH222638   1.409   4.276   1.543  0.0183  0.0755 -0.7415
  408TIP3    H122639   1.482   4.255   1.485 -0.0094  0.1719 -0.8107
  408TIP3    H222640   1.428   4.228   1.624 -0.2390 -0.5364 -1.0348
  409TIP3   OH222641   5.349   2.918   5.084  0.0790  0.6383 -0.5519
  409TIP3    H122642   5.310   2.983   5.026 -1.2244 -1.0390 -1.6307
  409TIP3    H222643   5.401   2.970   5.146  0.3651  2.5872 -2.3015
  410TIP3   OH222644   3.386   2.299  11.505 -0.2164  0.9106 -0.6821
  410TIP3    H122645   3.450   2.233  11.477 -1.0845 -0.3660  0.2523
  410TIP3    H222646   3.406   2.313  11.597 -1.0894  0.7382 -0.4647
  411TIP3   OH222647   4.400   0.297   1.840  0.1668  0.1552  0.1477
  411TIP3    H122648   4.367   0.363   1.902  1.2245  0.3513  0.5255
  411TIP3    H222649   4.345   0.309   1.762 -3.0981 -1.9415  1.8690
  412TIP3   OH222650   2.568   3.137  14.111 -0.2005  0.1957 -0.2085
  412TIP3    H122651   2.543   3.215  14.062 -1.4852  0.3585  0.6560
  412TIP3    H222652   2.639   3.166  14.168  0.1908  0.4016 -0.7862
  413TIP3   OH222653   4.691   5.348  16.466 -0.2743  0.5254 -0.1011
  413TIP3    H122654   4.636   5.270  16.465  2.2737 -1.3789 -0.3436
  413TIP3    H222655   4.673   5.391  16.381  0.3069 -1.3391 -1.2192
  414TIP3   OH222656   5.123   3.454   2.786 -0.3095  0.5096 -0.1312
  414TIP3    H122657   5.147   3.459   2.879 -0.6131 -0.6332  0.0308
  414TIP3    H222658   5.032   3.423   2.787  0.0636 -0.6672 -0.8131
  415TIP3   OH222659   6.690   6.364   3.252  0.2870 -0.1744 -0.0360
  415TIP3    H122660   6.736   6.433   3.205  1.5777 -0.0939  1.2444
  415TIP3    H222661   6.611   6.349   3.202  1.9332 -0.6774 -2.6738
  416TIP3   OH222662   1.909   6.588  16.780  0.4421  0.3184  0.3424
  416TIP3    H122663   1.844   6.519  16.792 -0.2524  0.5055 -1.9630
  416TIP3    H222664   1.888   6.652  16.848 -1.4654  0.1178 -0.0058
  417TIP3   OH222665   4.385   6.530  14.150  0.0195  0.0062 -0.1457
  417TIP3    H122666   4.480   6.535  14.157  0.1908 -1.5815 -0.8404
  417TIP3    H222667   4.355   6.621  14.157  1.5791  0.5321  0.0304
  418TIP3   OH222668   0.319   5.673  14.616 -0.4405  0.3575 -0.6252
  418TIP3    H122669   0.328   5.581  14.643 -1.5540 -0.0287 -1.5029
  418TIP3    H222670   0.403   5.713  14.640 -0.0120 -0.8342 -0.0408
  419TIP3   OH222671   6.234   5.533   5.682  0.1366 -0.0536  0.5922
  419TIP3    H122672   6.220   5.596   5.753  1.6132  1.0036  0.0060
  419TIP3    H222673   6.179   5.566   5.610  1.8281  1.3810 -0.1372
  420TIP3   OH222674   5.832   1.912  14.630  0.2255 -0.4822 -0.0421
  420TIP3    H122675   5.880   1.927  14.549  1.3820 -0.7760  0.5647
  420TIP3    H222676   5.755   1.862  14.604 -0.4756  1.1466 -1.2294
  421TIP3   OH222677   1.846   4.246  11.620 -0.0594 -0.1334 -0.3345
  421TIP3    H122678   1.804   4.275  11.539 -1.4394 -0.8809  0.0908
  421TIP3    H222679   1.932   4.215  11.592 -0.6189 -0.6435 -1.5665
  422TIP3   OH222680   1.714   5.150  11.368  0.0383  0.3758  0.7917
  422TIP3    H122681   1.665   5.207  11.426 -0.2146  0.8151  0.1591
  422TIP3    H222682   1.687   5.061  11.393 -0.0467  0.5540  1.3492
  423TIP3   OH222683   3.770   4.827  13.689  0.0296 -0.2673  0.4154
  423TIP3    H122684   3.705   4.757  13.690 -0.4373  0.1537  1.1999
  423TIP3    H222685   3.801   4.831  13.599  1.5316 -2.7802  0.7383
  424TIP3   OH222686   1.107   1.053  15.285  0.1952  0.9012 -0.3163
  424TIP3    H122687   1.056   1.109  15.226 -0.7652 -0.1021 -0.4687
  424TIP3    H222688   1.099   1.096  15.370  0.4552  1.6238 -0.6455
  425TIP3   OH222689   2.591   5.053  11.674 -0.2280  0.1717 -0.5362
  425TIP3    H122690   2.673   5.062  11.625  0.8222  1.0317  1.3077
  425TIP3    H222691   2.608   5.094  11.758 -2.5001  0.1485 -0.0051
  426TIP3   OH222692   2.701   1.692   3.461 -0.3481  0.6581  0.2990
  426TIP3    H122693   2.692   1.651   3.375 -0.2524  0.0994  0.5546
  426TIP3    H222694   2.635   1.649   3.515  0.7563 -0.2382  0.9706
  427TIP3   OH222695   5.014   4.171   2.277 -0.4846  0.5432  0.1318
  427TIP3    H122696   5.000   4.093   2.223  0.6419  1.1974 -1.1674
  427TIP3    H222697   5.073   4.142   2.346  0.1936  0.3161 -0.5368
  428TIP3   OH222698   1.465   2.667  15.471  0.0818  0.2060 -0.1160
  428TIP3    H122699   1.492   2.758  15.482  0.1704  0.2730 -0.8902
  428TIP3    H222700   1.429   2.643  15.557  1.6410  0.4171  0.6267
  429TIP3   OH222701   3.952   2.802   0.271 -0.3171  0.2475  0.7470
  429TIP3    H122702   3.902   2.773   0.348  1.2548 -0.3989  1.5699
  429TIP3    H222703   4.040   2.817   0.304  0.0511  1.3719 -0.6637
  430TIP3   OH222704   2.687   5.944  12.788 -0.2132 -0.1039  0.1024
  430TIP3    H122705   2.598   5.972  12.764 -1.0181 -1.3005  1.5683
  430TIP3    H222706   2.720   5.901  12.709 -0.9602  0.2902 -0.4379
  431TIP3   OH222707   5.485   2.892   1.839  0.0079  0.1923  0.0416
  431TIP3    H122708   5.495   2.875   1.933  0.8334  0.9195  0.1076
  431TIP3    H222709   5.391   2.893   1.824 -0.2511  2.4846  1.3639
  432TIP3   OH222710   1.560   3.685   5.963  0.2206  0.2331 -0.2916
  432TIP3    H122711   1.482   3.732   5.994  0.3570  1.3917 -1.6086
  432TIP3    H222712   1.576   3.619   6.030 -0.7272  1.2635  1.0103
  433TIP3   OH222713   5.988   1.370   3.396 -0.0562  0.2926 -0.4001
  433TIP3    H122714   5.912   1.316   3.417  1.8245 -1.9345  1.2304
  433TIP3    H222715   5.992   1.434   3.467  0.8875 -1.1525  0.9218
  434TIP3   OH222716   1.644   3.163   6.477 -0.7310  1.0593 -0.3838
  434TIP3    H122717   1.730   3.167   6.519 -0.9352 -0.6134  0.2982
  434TIP3    H222718   1.663   3.140   6.386 -0.4338  1.0399 -0.3189
  435TIP3   OH222719   4.110   3.543  15.147  0.5499  0.3563 -0.2616
  435TIP3    H122720   4.086   3.451  15.152 -0.2081  0.5953  1.0243
  435TIP3    H222721   4.135   3.566  15.236  1.0003  1.3389 -0.6227
  436TIP3   OH222722   3.803   1.559   4.376 -0.9136 -0.2099 -0.3643
  436TIP3    H122723   3.895   1.560   4.348 -0.5579 -1.9404  0.5940
  436TIP3    H222724   3.795   1.635   4.433  0.5299 -1.1712  1.2163
  437TIP3   OH222725   2.362   4.655   0.124 -0.3929  0.1676 -0.3277
  437TIP3    H122726   2.411   4.691   0.198 -1.3139  0.1521  0.3219
  437TIP3    H222727   2.293   4.720   0.108 -0.6305 -0.1732 -0.7077
  438TIP3   OH222728   2.537   0.772   2.605 -0.0706  0.4587 -0.1996
  438TIP3    H122729   2.611   0.765   2.545 -0.4992  1.2500 -0.8401
  438TIP3    H222730   2.505   0.861   2.594 -1.0291  0.1754  0.1766
  439TIP3   OH222731   5.261   5.434  12.743 -0.8429  0.0903 -0.0012
  439TIP3    H122732   5.317   5.364  12.709  0.9443  1.3578  0.1549
  439TIP3    H222733   5.264   5.423  12.838 -0.0375  0.7254  0.0573
  440TIP3   OH222734   6.752   4.013  16.792 -0.0948  0.5538 -0.4785
  440TIP3    H122735   6.842   4.038  16.813 -0.3249  0.9095  0.1074
  440TIP3    H222736   6.725   3.958  16.866  0.2478 -1.1052 -1.5298
  441TIP3   OH222737   0.086   4.793   1.012 -0.0469  0.2651 -0.1294
  441TIP3    H122738   0.014   4.742   0.975 -0.8237 -0.5233  2.2850
  441TIP3    H222739   0.125   4.736   1.078 -1.6243  2.9565  3.4875
  442TIP3   OH222740   4.601   0.993  13.197 -0.6470 -0.3135 -0.5921
  442TIP3    H122741   4.532   0.967  13.258 -1.8362  0.0114 -1.7383
  442TIP3    H222742   4.672   0.931  13.212 -1.5797 -1.2828 -0.0519
  443TIP3   OH222743   4.451   4.046   0.690 -0.0793 -0.4041 -0.5284
  443TIP3    H122744   4.474   3.963   0.733  1.3220 -0.4408 -1.2912
  443TIP3    H222745   4.406   4.096   0.758  1.3400 -0.7834  0.7638
  444TIP3   OH222746   0.315   2.559   6.226  0.2329  0.6453  0.2136
  444TIP3    H122747   0.381   2.541   6.159  0.1216  1.4231 -0.1111
  444TIP3    H222748   0.309   2.654   6.230 -0.2125  0.6003  0.8925
  445TIP3   OH222749   2.762   1.570  13.970  0.0225 -0.1335 -0.1802
  445TIP3    H122750   2.721   1.603  14.050 -0.9591 -1.0079 -0.3144
  445TIP3    H222751   2.852   1.603  13.975  0.2984 -1.0138  1.8121
  446TIP3   OH222752   2.738   3.381  13.653  0.5686 -0.1186  0.1940
  446TIP3    H122753   2.687   3.405  13.576  2.2946  1.6262 -0.4838
  446TIP3    H222754   2.698   3.430  13.725  0.4279  0.1038 -0.0386
  447TIP3   OH222755   4.877   0.184  11.321 -0.1474  0.5106 -0.2412
  447TIP3    H122756   4.907   0.225  11.240 -1.2743  2.7157  0.3543
  447TIP3    H222757   4.803   0.130  11.294  0.9494 -0.7072 -0.9590
  448TIP3   OH222758   4.288   2.494  12.095 -0.5655 -0.0764  0.6768
  448TIP3    H122759   4.340   2.473  12.172  0.6363 -1.7812 -0.5245
  448TIP3    H222760   4.263   2.409  12.058 -0.4611  0.6631 -1.2265
  449TIP3   OH222761   1.032   6.010  10.574  0.2493 -0.3446  0.1074
  449TIP3    H122762   0.978   5.976  10.503  0.6659 -1.7298  0.4228
  449TIP3    H222763   0.976   6.073  10.619 -0.9574 -1.4327  0.1768
  450TIP3   OH222764   2.101   3.554   5.271  0.9884  0.0221 -0.3328
  450TIP3    H122765   2.120   3.498   5.346  0.1901  1.0522  0.6679
  450TIP3    H222766   2.097   3.643   5.308 -3.0249  0.2256 -0.8827
  451TIP3   OH222767   1.009   6.230  14.895 -0.0745  0.5693 -0.1432
  451TIP3    H122768   1.082   6.285  14.925 -0.3756 -0.5865  3.1674
  451TIP3    H222769   1.049   6.146  14.874 -0.3049  0.1378  1.0453
  452TIP3   OH222770   0.260   0.791  12.409  0.4576 -0.1078 -0.1583
  452TIP3    H122771   0.179   0.808  12.457  0.1982 -0.3525 -0.4975
  452TIP3    H222772   0.265   0.862  12.344 -0.0551 -0.6859 -0.8504
  453TIP3   OH222773   1.872   3.239  16.670 -0.5972 -0.1931  0.3765
  453TIP3    H122774   1.895   3.226  16.578  2.3087 -2.0730  1.2266
  453TIP3    H222775   1.943   3.292  16.705 -0.9492 -0.6263  1.7950
  454TIP3   OH222776   1.799   4.165  17.174  0.0351 -0.4197 -0.2623
  454TIP3    H122777   1.855   4.112  17.232  0.3589  0.6857  0.4657
  454TIP3    H222778   1.854   4.238  17.148 -0.7562  0.1600 -0.3372
  455TIP3   OH222779   4.620   3.382  12.240  0.3159  0.2033 -0.1016
  455TIP3    H122780   4.609   3.290  12.218 -3.0375  0.0600  1.6488
  455TIP3    H222781   4.616   3.428  12.156 -2.0838 -0.9905 -0.7032
  456TIP3   OH222782   4.380   0.266   0.407  0.2693  0.2629 -0.0260
  456TIP3    H122783   4.475   0.263   0.391  0.2950  0.3112  0.1136
  456TIP3    H222784   4.359   0.359   0.409  0.0453  0.2418 -1.0411
  457TIP3   OH222785   4.797   6.126  11.067  0.2587 -0.5686 -0.0067
  457TIP3    H122786   4.859   6.170  11.010 -0.6585  0.6639 -0.1019
  457TIP3    H222787   4.831   6.037  11.076  1.9795  0.0420 -0.1088
  458TIP3   OH222788   1.951   2.608   4.965 -0.2384  0.5338 -0.0923
  458TIP3    H122789   1.944   2.551   4.889 -2.0962 -0.0583  0.4685
  458TIP3    H222790   1.978   2.692   4.929  1.5391 -0.3758 -1.0581
  459TIP3   OH222791   3.549   4.622   1.139  0.2815 -0.1818  0.2449
  459TIP3    H122792   3.639   4.630   1.169  0.9027  0.4467 -1.6215
  459TIP3    H222793   3.521   4.535   1.168  1.1682 -0.0248  1.6257
  460TIP3   OH222794   5.607   1.097   1.058 -0.2914 -0.2762  0.0143
  460TIP3    H122795   5.638   1.008   1.040 -1.5943 -0.7962  0.2306
  460TIP3    H222796   5.687   1.146   1.081  0.9348 -0.5542 -3.1834
  461TIP3   OH222797   1.906   5.154  13.177  0.3041  0.0295 -0.3633
  461TIP3    H122798   1.897   5.073  13.127  1.9981 -0.2750 -0.2193
  461TIP3    H222799   1.949   5.215  13.116 -0.9057  0.8401 -0.4573
  462TIP3   OH222800   3.274   2.395   3.321  0.1022 -0.3419  0.1197
  462TIP3    H122801   3.357   2.430   3.353  0.9192 -1.3696 -0.7922
  462TIP3    H222802   3.213   2.407   3.393  1.4582 -1.0711  1.4457
  463TIP3   OH222803   4.393   1.800   4.278  0.1655 -0.2186  0.0002
  463TIP3    H122804   4.381   1.839   4.192 -2.9070  1.0858  0.8703
  463TIP3    H222805   4.332   1.727   4.281  2.4226 -2.2291  0.1073
  464TIP3   OH222806   0.150   3.831   1.230 -0.2652  0.0384 -0.0710
  464TIP3    H122807   0.118   3.824   1.140 -2.3964 -1.5900  0.7389
  464TIP3    H222808   0.115   3.914   1.261 -1.2063 -0.3115 -0.1593
  465TIP3   OH222809   2.029   3.878   6.273 -0.3046  1.0413  0.0870
  465TIP3    H122810   2.053   3.966   6.302 -0.3230  1.1278 -0.1668
  465TIP3    H222811   2.100   3.822   6.305 -0.2574  1.1568  0.1853
  466TIP3   OH222812   1.435   0.283   2.735  0.5954 -0.4229 -0.1787
  466TIP3    H122813   1.386   0.278   2.817 -0.1491  2.1299 -0.3650
  466TIP3    H222814   1.522   0.250   2.757  1.3878  2.8232  2.5727
  467TIP3   OH222815   0.226   6.122  14.173 -0.0796  0.0554  0.0806
  467TIP3    H122816   0.212   6.049  14.234 -0.1036  0.2645  0.3294
  467TIP3    H222817   0.162   6.188  14.200 -0.0877  0.1509 -0.1716
  468TIP3   OH222818   3.745   4.475  11.009  0.5857  0.0187  0.0292
  468TIP3    H122819   3.654   4.499  11.031  0.4732  0.2698 -0.6846
  468TIP3    H222820   3.778   4.550  10.959  1.2759  0.0377  0.5004
  469TIP3   OH222821   5.696   0.423  15.940  0.3038  0.0117  0.1642
  469TIP3    H122822   5.784   0.418  15.902  1.4762  1.6933  2.3341
  469TIP3    H222823   5.665   0.511  15.917  0.1352  0.2319  1.1720
  470TIP3   OH222824   4.933   6.037  16.307 -0.0818  0.4440 -0.0175
  470TIP3    H122825   4.883   6.029  16.226  2.6982 -0.5462 -1.7526
  470TIP3    H222826   4.993   6.109  16.291  0.2275  0.5139  1.3598
  471TIP3   OH222827   4.314   0.191   2.861 -0.3830 -0.3038 -0.2871
  471TIP3    H122828   4.378   0.256   2.887  0.3572 -0.8998 -0.5694
  471TIP3    H222829   4.345   0.159   2.776 -1.3111 -0.2650 -0.6591
  472TIP3   OH222830   1.732   3.958   5.515 -0.1754 -0.4480 -0.6366
  472TIP3    H122831   1.807   3.966   5.575  0.2304 -0.3302 -1.1493
  472TIP3    H222832   1.662   3.922   5.569 -0.3080  1.1444  0.3313
  473TIP3   OH222833   5.166   0.306  15.135 -0.5023  0.5060  0.6297
  473TIP3    H122834   5.091   0.332  15.083 -0.4578  3.6755  1.9282
  473TIP3    H222835   5.239   0.302  15.073 -1.1332  0.5523 -0.1229
  474TIP3   OH222836   1.496   2.690  11.238  0.0883 -0.1717  0.0689
  474TIP3    H122837   1.423   2.750  11.222 -0.0496 -0.7305 -1.5575
  474TIP3    H222838   1.542   2.728  11.313  0.0019  1.9721 -0.8868
  475TIP3   OH222839   6.205   2.008  14.333  0.0496 -0.0379 -0.1553
  475TIP3    H122840   6.295   2.032  14.354  0.6909 -3.8437  2.3460
  475TIP3    H222841   6.212   1.940  14.267 -0.6072 -2.6295  2.2659
  476TIP3   OH222842   0.917   0.800   0.692  0.1067  0.0627  0.4896
  476TIP3    H122843   0.893   0.861   0.762 -2.7422 -0.7739  0.3574
  476TIP3    H222844   0.933   0.856   0.616 -2.8393  0.7479  0.2664
  477TIP3   OH222845   6.079   1.664  15.561  0.0917 -0.2511 -0.5383
  477TIP3    H122846   6.112   1.593  15.507  0.0467 -1.1037  0.5187
  477TIP3    H222847   6.080   1.741  15.504  1.2644 -0.8471 -1.3452
  478TIP3   OH222848   4.935   1.099  11.580 -0.2007 -0.7270  0.1669
  478TIP3    H122849   4.953   1.116  11.488 -0.8393  0.3416  0.2233
  478TIP3    H222850   5.021   1.104  11.622 -0.0352 -0.1295 -0.2231
  479TIP3   OH222851   3.669   0.047   3.907 -0.4112  0.5010 -0.3720
  479TIP3    H122852   3.623   0.125   3.936 -0.6386  0.7204 -1.3016
  479TIP3    H222853   3.599  -0.016   3.887 -0.2157 -0.5881  2.0263
  480TIP3   OH222854   6.496   5.951  16.668  0.0421  0.0554  0.6760
  480TIP3    H122855   6.508   5.951  16.573  0.2610  0.9844  0.6951
  480TIP3    H222856   6.430   5.883  16.684 -0.2457  0.1224 -0.1701
  481TIP3   OH222857   2.759   2.561  12.457  0.3562 -0.7950  0.5281
  481TIP3    H122858   2.722   2.487  12.409  2.2063 -0.3766 -1.6999
  481TIP3    H222859   2.854   2.545  12.457  0.8177  1.5889 -0.1062
  482TIP3   OH222860   3.646   2.684   4.527  0.2099  0.4739  0.5264
  482TIP3    H122861   3.581   2.750   4.549 -0.1119 -0.4785  2.6632
  482TIP3    H222862   3.730   2.727   4.541  0.0425  1.0182 -0.0743
  483TIP3   OH222863   2.791   0.904  12.764 -0.0048  0.1436 -0.0504
  483TIP3    H122864   2.869   0.851  12.784  0.0764  0.0462 -0.6125
  483TIP3    H222865   2.729   0.882  12.834  0.9187  1.1737  1.1453
  484TIP3   OH222866   1.259   4.975   2.759  0.1723  0.8552 -0.4400
  484TIP3    H122867   1.167   4.974   2.785  0.6914  0.9811  1.5414
  484TIP3    H222868   1.294   4.891   2.789  0.7372  0.8584 -1.0678
  485TIP3   OH222869   4.996   0.652  11.119 -0.2018 -0.2928  0.1364
  485TIP3    H122870   5.040   0.737  11.124 -1.8831  0.5986  0.4705
  485TIP3    H222871   4.991   0.633  11.025  2.3040 -1.2469  0.1047
  486TIP3   OH222872   3.060   3.872   1.117 -0.7947  0.3299 -0.2522
  486TIP3    H122873   3.010   3.848   1.040  0.3516 -1.0136 -0.6002
  486TIP3    H222874   3.094   3.789   1.152  0.6468  1.1209  0.3353
  487TIP3   OH222875   4.918   6.011  17.284  0.2676  0.0859  0.1989
  487TIP3    H122876   4.986   5.944  17.281  0.4268  0.2793 -1.6811
  487TIP3    H222877   4.837   5.963  17.268  0.3183  0.2427 -0.5708
  488TIP3   OH222878   4.458   0.752   4.812  0.4465  0.5662  0.2970
  488TIP3    H122879   4.457   0.659   4.787 -0.6417  0.5302  0.3946
  488TIP3    H222880   4.549   0.770   4.834  0.5921 -0.6229  0.7833
  489TIP3   OH222881   3.990   4.890   5.511 -0.0647 -0.4803  0.3901
  489TIP3    H122882   3.970   4.926   5.425  2.7238 -1.9539 -0.9979
  489TIP3    H222883   3.981   4.796   5.500  2.4338 -0.8586  1.0050
  490TIP3   OH222884   1.795   1.920  16.380  0.4040  0.1156  0.3676
  490TIP3    H122885   1.731   1.858  16.345  1.3076 -0.0717 -1.0433
  490TIP3    H222886   1.745   2.001  16.392  0.0368  0.2003 -1.4461
  491TIP3   OH222887   4.051   2.376  12.337  0.0741  0.0185 -0.0659
  491TIP3    H122888   4.107   2.375  12.260 -0.2247  1.8193 -0.3549
  491TIP3    H222889   4.027   2.468  12.349 -0.8697 -0.3714  1.4680
  492TIP3   OH222890   6.658   6.393  12.854 -0.0919  0.7748 -0.5619
  492TIP3    H122891   6.708   6.439  12.922 -1.2214 -1.8545  2.2771
  492TIP3    H222892   6.584   6.451  12.835 -0.2659  1.1766  1.2020
  493TIP3   OH222893   4.069   3.987   1.057 -0.3668  0.0158 -0.5638
  493TIP3    H122894   3.997   3.943   1.011 -0.9343 -0.9703  1.1507
  493TIP3    H222895   4.088   3.929   1.131  2.3501  0.1520 -1.0479
  494TIP3   OH222896   1.323   2.050   2.213  0.1195  0.1224  0.3037
  494TIP3    H122897   1.414   2.077   2.202  0.1635  0.7572  1.9778
  494TIP3    H222898   1.328   1.960   2.246  0.0829 -0.2835 -0.7461
  495TIP3   OH222899   6.080   1.471  10.984  0.7775  0.2656  0.0914
  495TIP3    H122900   5.995   1.513  10.968  1.6070  1.8109 -0.5332
  495TIP3    H222901   6.076   1.443  11.075  0.0159  1.3852  0.4299
  496TIP3   OH222902   4.946   4.852  14.869  0.4223 -0.1408  1.0382
  496TIP3    H122903   4.980   4.866  14.957  0.0618  1.5239  0.9586
  496TIP3    H222904   4.871   4.794  14.880  0.7151 -0.3906  1.7452
  497TIP3   OH222905   1.468   3.670  11.311  0.4764  0.2022 -0.1463
  497TIP3    H122906   1.416   3.744  11.279  0.6656 -0.4761 -2.1223
  497TIP3    H222907   1.541   3.663  11.250  1.0906 -0.9276  0.6725
  498TIP3   OH222908   2.703   0.652  15.249 -0.1906  0.1261  0.0700
  498TIP3    H122909   2.781   0.603  15.274 -0.3300  0.7360  1.8217
  498TIP3    H222910   2.658   0.595  15.186  0.9930 -0.8073  0.0427
  499TIP3   OH222911   1.769   2.389   2.333 -0.6803  0.6066 -0.5034
  499TIP3    H122912   1.839   2.417   2.392  1.7794 -0.0033 -2.9327
  499TIP3    H222913   1.721   2.323   2.382  0.2039  1.3138  1.4016
  500TIP3   OH222914   1.055   3.438  12.715  0.2174 -0.2976 -0.1138
  500TIP3    H122915   1.149   3.429  12.700  0.4299  0.0973  0.9689
  500TIP3    H222916   1.028   3.506  12.653  1.1952  1.7270  1.5677
  501TIP3   OH222917   6.144   6.323  14.400  0.4611  0.2450  0.1221
  501TIP3    H122918   6.182   6.236  14.391 -1.6253 -0.6461 -0.5328
  501TIP3    H222919   6.218   6.382  14.389  2.0331 -1.4231  1.1477
  502TIP3   OH222920   0.718   0.849  14.095  0.4048 -0.0579 -0.3887
  502TIP3    H122921   0.774   0.859  14.017  0.5386  0.1841 -0.2620
  502TIP3    H222922   0.684   0.759  14.088 -1.7433  0.7864 -2.1804
  503TIP3   OH222923   1.647   0.481   4.711 -0.7795 -0.6180  0.2349
  503TIP3    H122924   1.620   0.523   4.630 -1.1091 -0.2112  0.5471
  503TIP3    H222925   1.621   0.543   4.780 -0.3781 -0.8901  0.6387
  504TIP3   OH222926   4.002   5.851  15.139 -0.4791 -0.0175 -0.4838
  504TIP3    H122927   4.025   5.773  15.189 -1.0610 -0.6888 -1.2430
  504TIP3    H222928   4.009   5.825  15.048 -0.2566  0.9530 -0.7591
  505TIP3   OH222929   3.947   0.898  17.020  0.2479  0.7520  0.6455
  505TIP3    H122930   3.900   0.906  16.937  0.0751  0.1688  0.6792
  505TIP3    H222931   4.039   0.915  16.997  0.5266 -1.4332 -0.0869
  506TIP3   OH222932   5.268   1.490  12.774 -0.0798  0.0841  0.1221
  506TIP3    H122933   5.355   1.450  12.777 -0.0536  0.1788  0.8463
  506TIP3    H222934   5.225   1.458  12.853  0.0094  1.6309  0.8252
  507TIP3   OH222935   3.348   1.002  15.512  0.3457 -0.6887 -0.3821
  507TIP3    H122936   3.358   1.051  15.594 -0.0753 -0.5689 -0.4027
  507TIP3    H222937   3.422   0.941  15.511  1.0498  0.1517 -0.5011
  508TIP3   OH222938   1.001   2.305   3.870 -0.2604  0.0152  0.0991
  508TIP3    H122939   0.962   2.325   3.955 -2.2508 -2.1054 -0.2088
  508TIP3    H222940   1.064   2.235   3.888  0.4469  0.6300  0.0306
  509TIP3   OH222941   0.588   4.638  13.871  0.1432 -0.6488 -0.8741
  509TIP3    H122942   0.655   4.697  13.834  0.0604 -0.4762 -0.7502
  509TIP3    H222943   0.610   4.632  13.964 -0.6272  0.2546 -0.6186
  510TIP3   OH222944   6.475   5.392  17.295 -0.1103 -0.3136  0.2346
  510TIP3    H122945   6.527   5.353  17.224 -1.6966 -1.2551 -0.4642
  510TIP3    H222946   6.449   5.318  17.350 -0.9514  0.0854  0.3968
  511TIP3   OH222947   0.031   6.000  17.145 -0.0566 -0.3837  0.6432
  511TIP3    H122948   0.018   5.942  17.220  0.0122 -0.5221  0.5452
  511TIP3    H222949  -0.057   6.012  17.108  0.0367 -1.0333  0.2032
  512TIP3   OH222950   6.641   1.793   3.791  0.6977 -0.3681 -0.0024
  512TIP3    H122951   6.563   1.801   3.846  0.2001  1.1127 -0.8774
  512TIP3    H222952   6.665   1.700   3.797 -0.2074 -0.5363  1.5036
  513TIP3   OH222953   3.881   3.183  14.940 -0.0137  0.1406  0.5215
  513TIP3    H122954   3.909   3.107  14.890 -1.9793 -1.0247  1.0740
  513TIP3    H222955   3.853   3.246  14.874 -1.0219 -0.7393  0.0814
  514TIP3   OH222956   3.381   6.728  10.859 -0.2710  0.5781 -0.1873
  514TIP3    H122957   3.363   6.665  10.789  0.9200  1.0576 -0.9312
  514TIP3    H222958   3.358   6.813  10.822 -0.7527  0.7219  0.4201
  515TIP3   OH222959   1.479   0.654  16.762  0.0770  0.1080 -0.0594
  515TIP3    H122960   1.514   0.736  16.796 -0.3245  0.4204 -0.3985
  515TIP3    H222961   1.501   0.589  16.829  3.2499 -0.1663 -1.1640
  516TIP3   OH222962   4.669   3.002   6.303 -0.3069 -0.0048 -0.1206
  516TIP3    H122963   4.592   2.960   6.265  0.2442 -1.0021 -0.1545
  516TIP3    H222964   4.717   3.037   6.228 -0.0427 -0.5619 -0.2137
  517TIP3   OH222965   5.010   5.698   1.248 -0.0465 -0.2242 -0.2047
  517TIP3    H122966   5.008   5.651   1.331 -2.5185 -1.2034 -0.7255
  517TIP3    H222967   5.024   5.790   1.272  0.8573 -0.6983  1.1449
  518TIP3   OH222968   3.083   4.964  13.284 -0.4968 -0.2994  0.2138
  518TIP3    H122969   3.140   4.915  13.225  2.5308  0.9624  1.8917
  518TIP3    H222970   3.081   4.913  13.364  0.5270  0.9507  1.0743
  519TIP3   OH222971   4.252   6.178   0.659  0.4236 -0.3077  0.2577
  519TIP3    H122972   4.277   6.123   0.585  0.5669  0.2978 -0.1470
  519TIP3    H222973   4.300   6.260   0.646 -1.3218  0.6748 -0.2367
  520TIP3   OH222974   2.657   2.803  13.165 -0.3131  0.6944 -0.0977
  520TIP3    H122975   2.659   2.893  13.197 -1.4649  0.6576  0.1217
  520TIP3    H222976   2.627   2.810  13.074 -0.4733  0.5278 -0.0578
  521TIP3   OH222977   3.133   1.943  13.983  0.4438 -0.3414 -0.2938
  521TIP3    H122978   3.209   1.967  13.929  2.9653 -1.5949  2.3777
  521TIP3    H222979   3.128   2.013  14.049 -0.9388 -0.1274 -0.6088
  522TIP3   OH222980   1.549   2.652   1.424  0.0469 -0.4679  0.1105
  522TIP3    H122981   1.490   2.669   1.497  0.1620 -2.7419  0.7797
  522TIP3    H222982   1.622   2.603   1.462 -0.0713 -2.0487 -1.5514
  523TIP3   OH222983   5.961   3.612   3.132 -0.0779  0.3693  0.2197
  523TIP3    H122984   5.960   3.538   3.192  0.5245  1.7771  2.0458
  523TIP3    H222985   6.035   3.595   3.074 -0.9153 -1.2179 -0.4533
  524TIP3   OH222986   3.063   4.364  15.334 -0.2507  0.2758 -0.4715
  524TIP3    H122987   3.145   4.319  15.350 -1.2722 -1.5869 -0.1397
  524TIP3    H222988   3.070   4.396  15.244  1.4701  1.7033  0.1116
  525TIP3   OH222989   1.296   2.727  16.635 -0.3753  0.6810 -0.2325
  525TIP3    H122990   1.379   2.724  16.683 -0.7560 -1.5558  0.4420
  525TIP3    H222991   1.245   2.794  16.680 -0.6346 -1.1628  2.5450
  526TIP3   OH222992   0.974   1.722   3.229 -0.5262 -0.0231 -0.1950
  526TIP3    H122993   0.970   1.663   3.305  0.1505  0.2610  0.0670
  526TIP3    H222994   1.052   1.775   3.244  0.5216 -1.0166 -1.8470
  527TIP3   OH222995   5.174   2.569  12.474 -0.0105  0.1676  0.5995
  527TIP3    H122996   5.194   2.566  12.380 -1.6541  1.1159  0.1653
  527TIP3    H222997   5.253   2.604  12.515  0.4793  0.4369 -0.5489
  528TIP3   OH222998   3.175   4.737  10.703 -0.3079  0.2239 -0.5456
  528TIP3    H122999   3.238   4.710  10.770 -1.6776 -0.4084  0.5426
  528TIP3    H223000   3.199   4.684  10.627  1.8714  1.6457 -0.9317
  529TIP3   OH223001   4.459   3.074   4.916 -0.2735  0.1668 -0.1792
  529TIP3    H123002   4.437   3.166   4.900 -0.8948  0.0727  0.1064
  529TIP3    H223003   4.544   3.077   4.959 -0.5734  0.6467  0.3964
  530TIP3   OH223004   2.110   4.883   0.368  0.0041  0.3481  0.1991
  530TIP3    H123005   2.146   4.837   0.443 -1.4042 -1.3015 -0.0710
  530TIP3    H223006   2.183   4.933   0.332  1.5807 -1.5640  0.6176
  531TIP3   OH223007   0.435   4.697  12.068  0.4929  0.1662  0.5577
  531TIP3    H123008   0.439   4.689  11.973  0.7668 -1.3247  0.6710
  531TIP3    H223009   0.493   4.771  12.089  1.6455 -0.4551 -0.3239
  532TIP3   OH223010   0.139   3.313   3.995 -0.0258  0.2608 -0.4342
  532TIP3    H123011   0.177   3.226   4.006 -0.6016  0.0602 -0.0052
  532TIP3    H223012   0.146   3.331   3.901  0.8831  0.1247 -0.4075
  533TIP3   OH223013   3.792   2.722  15.840 -0.1866 -0.6796  0.2746
  533TIP3    H123014   3.734   2.733  15.765  1.6126 -0.2465 -1.1414
  533TIP3    H223015   3.792   2.807  15.884  0.5283 -0.2090 -0.6148
  534TIP3   OH223016   2.250   5.663  16.186 -0.1739 -0.3471 -0.2091
  534TIP3    H123017   2.293   5.749  16.181  0.2419 -0.6091 -1.7767
  534TIP3    H223018   2.201   5.657  16.104 -2.3643 -0.5338  1.0144
  535TIP3   OH223019   4.291   0.874   4.988  0.4654  0.7989 -0.3733
  535TIP3    H123020   4.350   0.830   4.928  1.7316  1.0183  0.6602
  535TIP3    H223021   4.204   0.842   4.964  1.0091  0.3112 -1.7997
  536TIP3   OH223022   0.144   4.010  11.369  0.2730  0.5146  0.4343
  536TIP3    H123023   0.090   3.937  11.401 -2.2946  1.5623 -1.1749
  536TIP3    H223024   0.206   3.970  11.309 -0.7884 -0.4357 -0.0654
  537TIP3   OH223025   4.441   1.924  12.255  0.1912 -0.4973  0.3560
  537TIP3    H123026   4.347   1.940  12.268  0.1892  1.4585 -1.5369
  537TIP3    H223027   4.484   1.987  12.313  0.3161 -0.4672  0.2311
  538TIP3   OH223028   4.067   2.614   1.285  0.1918 -0.2991 -0.0171
  538TIP3    H123029   4.059   2.593   1.378  0.9360 -0.4200  0.0313
  538TIP3    H223030   4.151   2.575   1.260  0.1211 -0.0299 -0.6700
  539TIP3   OH223031   3.198   5.762   0.950  0.0552 -0.0862 -0.0388
  539TIP3    H123032   3.225   5.775   0.860 -0.6385 -0.3107 -0.2871
  539TIP3    H223033   3.180   5.668   0.957 -3.3844  0.3821 -0.7112
  540TIP3   OH223034   3.498   4.279   5.394 -0.0570  0.1112  0.1535
  540TIP3    H123035   3.579   4.245   5.432 -1.0778 -2.6991  0.0600
  540TIP3    H223036   3.494   4.240   5.307 -2.3868 -1.4493  0.8588
  541TIP3   OH223037   3.770   6.722  13.568  0.0731 -0.0537 -0.3840
  541TIP3    H123038   3.853   6.699  13.526  0.9937  1.9215  0.2045
  541TIP3    H223039   3.727   6.780  13.505 -0.3922 -0.2663 -0.2643
  542TIP3   OH223040   1.555   2.285   5.678 -0.8311  0.0426  0.3643
  542TIP3    H123041   1.556   2.333   5.595  0.0317  1.8178  1.3588
  542TIP3    H223042   1.595   2.201   5.657  1.8183  1.4264 -0.5210
  543TIP3   OH223043   1.317   3.903   6.168  0.1371  0.2888  0.0836
  543TIP3    H123044   1.328   3.888   6.074 -0.3022  0.3679  0.0129
  543TIP3    H223045   1.258   3.834   6.196  0.2582  0.2740  0.2992
  544TIP3   OH223046   6.321   1.024  16.724  0.3995 -0.6533  0.0002
  544TIP3    H123047   6.375   1.094  16.687 -0.1455 -0.3936 -0.3235
  544TIP3    H223048   6.286   1.062  16.805 -0.3802 -0.3205 -0.4804
  545TIP3   OH223049   0.060   5.612  13.045  0.0162  0.1619  0.3859
  545TIP3    H123050   0.053   5.521  13.074 -0.4867  0.1525  0.2542
  545TIP3    H223051  -0.030   5.636  13.021 -0.0671  1.0626  1.5442
  546TIP3   OH223052   5.343   6.711   5.498 -0.0064  0.6736 -0.9817
  546TIP3    H123053   5.371   6.798   5.468  1.8734 -0.1312 -1.7322
  546TIP3    H223054   5.355   6.655   5.422  0.2626 -0.5267 -0.0851
  547TIP3   OH223055   1.775   6.273   5.431  0.9579 -0.0903 -0.6609
  547TIP3    H123056   1.690   6.231   5.416 -0.7112  1.9353  2.0560
  547TIP3    H223057   1.839   6.206   5.412 -1.1958 -1.5413 -3.4475
  548TIP3   OH223058   3.448   6.484   4.799  0.0029 -0.2582 -0.5407
  548TIP3    H123059   3.458   6.393   4.828 -0.7449 -0.1888 -0.0317
  548TIP3    H223060   3.384   6.480   4.728  2.2282 -0.4964 -2.6479
  549TIP3   OH223061   1.847   2.208   3.059 -0.5382  0.5857 -0.0957
  549TIP3    H123062   1.859   2.244   2.971 -3.4031 -1.6701 -1.5911
  549TIP3    H223063   1.764   2.246   3.090  0.8166  2.0067  2.1196
  550TIP3   OH223064   6.268   1.999   0.633 -0.1074  0.2659 -0.2984
  550TIP3    H123065   6.218   1.973   0.555 -1.8730  0.0174  0.8655
  550TIP3    H223066   6.218   1.963   0.706  1.6756  0.2304  0.9591
  551TIP3   OH223067   1.636   3.069  13.619 -0.0360 -0.0620  0.0032
  551TIP3    H123068   1.613   2.976  13.614 -1.7518  0.3619 -0.4726
  551TIP3    H223069   1.591   3.109  13.545 -0.4918  1.3820  1.0207
  552TIP3   OH223070   1.029   5.744   5.601  0.4584  0.3049 -0.8234
  552TIP3    H123071   1.098   5.787   5.551  0.0878  1.2257 -0.5583
  552TIP3    H223072   0.957   5.807   5.603  1.2635  1.3348  2.8305
  553TIP3   OH223073   5.974   0.270   2.549  0.7354 -0.1935  0.2327
  553TIP3    H123074   5.945   0.181   2.569 -0.1432  0.2494  1.0073
  553TIP3    H223075   5.924   0.295   2.472  1.1162 -0.4336 -0.0938
  554TIP3   OH223076   2.641   5.349   4.890 -0.5431  0.5521 -0.0636
  554TIP3    H123077   2.545   5.339   4.894 -0.3205 -2.1854  0.1225
  554TIP3    H223078   2.675   5.274   4.939  1.7299  0.9840 -0.8785
  555TIP3   OH223079   4.754   5.116   3.459  0.6166  0.0374  0.1616
  555TIP3    H123080   4.674   5.068   3.479 -0.1249  0.2562 -2.0724
  555TIP3    H223081   4.810   5.052   3.415  1.1671  0.2462  0.5378
  556TIP3   OH223082   3.828   5.666   5.803  0.5297 -0.6155  0.2178
  556TIP3    H123083   3.814   5.738   5.742  0.2242 -0.5426  0.3690
  556TIP3    H223084   3.920   5.643   5.793  1.1403  1.0444  1.5250
  557TIP3   OH223085   3.560   2.244   6.630 -0.6113  0.5675  0.1054
  557TIP3    H123086   3.622   2.252   6.703 -0.5022  1.6862 -0.0827
  557TIP3    H223087   3.542   2.151   6.623  0.7262  0.2750  0.4386
  558TIP3   OH223088   2.924   4.725  17.183 -0.0388 -0.5411 -0.3807
  558TIP3    H123089   2.868   4.660  17.224  0.2979 -0.4300  0.2803
  558TIP3    H223090   3.011   4.710  17.222  0.0780  0.1861 -0.3375
  559TIP3   OH223091   2.008   1.715   6.011 -0.1694  0.5996  0.7117
  559TIP3    H123092   2.054   1.749   6.088  0.9519 -0.7468  0.6897
  559TIP3    H223093   1.997   1.791   5.954  3.5281  0.8016  0.0156
  560TIP3   OH223094   2.831   0.028   1.481 -0.9009  0.0576 -0.0901
  560TIP3    H123095   2.865  -0.049   1.435  3.4936 -0.0386  2.6761
  560TIP3    H223096   2.810   0.090   1.412 -0.6226 -2.1433 -2.2947
  561TIP3   OH223097   1.530   3.464   1.288  0.4675  0.0426  0.3334
  561TIP3    H123098   1.515   3.383   1.239 -0.7594  0.0795  0.6131
  561TIP3    H223099   1.472   3.456   1.364  1.2322  0.6530  0.9915
  562TIP3   OH223100   4.984   4.237   4.493 -0.3358 -0.7235  0.0649
  562TIP3    H123101   4.940   4.155   4.469 -2.2347  0.1201  0.4492
  562TIP3    H223102   5.036   4.259   4.415  1.5135 -3.0353  0.5082
  563TIP3   OH223103   5.069   4.735   5.423  0.3976 -0.1234  0.3288
  563TIP3    H123104   5.016   4.783   5.486 -0.7129 -0.6968 -0.1530
  563TIP3    H223105   5.140   4.698   5.476  0.2708  0.5543  0.9967
  564TIP3   OH223106   2.909   4.792  16.061 -0.4050  0.1614  0.2714
  564TIP3    H123107   2.995   4.835  16.065 -0.4306  0.1988  0.4386
  564TIP3    H223108   2.917   4.718  16.120 -0.1456 -0.4584 -0.5253
  565TIP3   OH223109   3.339   3.240  12.004  0.2627  0.5540 -0.1365
  565TIP3    H123110   3.326   3.291  12.084  2.8071  2.0538 -0.5926
  565TIP3    H223111   3.279   3.166  12.014 -1.0449  1.7940  2.1526
  566TIP3   OH223112   0.393   6.450  12.974  0.6282  0.9813  0.0210
  566TIP3    H123113   0.354   6.460  12.888  0.3857  0.6582  0.0941
  566TIP3    H223114   0.411   6.540  13.003  0.0424  1.1252 -0.0559
  567TIP3   OH223115   2.380   4.840   2.248  0.0435  0.0970  0.3071
  567TIP3    H123116   2.430   4.898   2.306 -0.5397  1.0675 -0.1398
  567TIP3    H223117   2.324   4.899   2.197  0.3125 -0.7639 -1.0233
  568TIP3   OH223118   0.180   1.335  15.916 -0.1610 -0.3347  0.4399
  568TIP3    H123119   0.199   1.245  15.890  0.8796  0.1432 -0.5214
  568TIP3    H223120   0.089   1.348  15.888  0.9537  0.2413 -3.4773
  569TIP3   OH223121   0.057   3.990   6.374 -0.1519  0.1107 -0.0026
  569TIP3    H123122   0.130   4.000   6.313  1.5677 -0.0311  1.9314
  569TIP3    H223123   0.056   3.896   6.395 -1.5374 -0.0609 -0.7290
  570TIP3   OH223124   3.285   2.363   1.002  0.0270 -0.8095  0.7234
  570TIP3    H123125   3.310   2.281   1.045 -0.8480 -1.7851 -0.5687
  570TIP3    H223126   3.292   2.345   0.908 -0.4814  0.5079  0.4034
  571TIP3   OH223127   3.128   3.611  14.113  0.2722  0.3438 -0.5928
  571TIP3    H123128   3.202   3.670  14.125 -0.1283  0.7792 -0.2149
  571TIP3    H223129   3.071   3.657  14.051  0.8561 -0.5038 -1.7771
  572TIP3   OH223130   1.799   2.604   3.040  0.0358  0.0765 -0.5512
  572TIP3    H123131   1.781   2.619   3.133  0.1839 -2.4982 -0.0185
  572TIP3    H223132   1.891   2.579   3.037  0.1372  0.5423 -1.4530
  573TIP3   OH223133   3.144   6.381   2.113  0.3327 -0.2193 -0.3670
  573TIP3    H123134   3.236   6.410   2.109 -0.1841  1.3987 -2.2839
  573TIP3    H223135   3.123   6.357   2.023 -1.4869  0.7033 -0.2270
  574TIP3   OH223136   3.709   1.350   4.521  0.2201  0.4854 -0.0511
  574TIP3    H123137   3.728   1.393   4.438  0.7983 -1.1184 -0.7877
  574TIP3    H223138   3.756   1.402   4.586  0.3688  1.3343 -0.8159
  575TIP3   OH223139   2.744   0.965   0.858  0.1377 -0.3258 -0.4491
  575TIP3    H123140   2.684   1.036   0.833 -1.5324 -1.1418  1.0617
  575TIP3    H223141   2.691   0.886   0.854  1.9187 -1.5283 -1.8796
  576TIP3   OH223142   1.946   1.795  11.805 -0.1570 -0.0017  0.0511
  576TIP3    H123143   1.953   1.724  11.741  0.4273 -0.7779  0.9465
  576TIP3    H223144   2.018   1.854  11.782 -1.3067  0.9075 -1.3784
  577TIP3   OH223145   2.404   1.366   4.201  0.1207  0.4791 -0.0835
  577TIP3    H123146   2.499   1.374   4.191  0.3271  0.5363  1.5524
  577TIP3    H223147   2.372   1.456   4.207 -0.2179  0.5037 -1.7880
  578TIP3   OH223148   0.725   0.623   0.244  0.2933 -0.4412  0.3517
  578TIP3    H123149   0.724   0.712   0.210 -0.1888  0.1554  1.8586
  578TIP3    H223150   0.701   0.568   0.170 -0.4093  0.7683 -0.3333
  579TIP3   OH223151   4.728   2.327  15.522  0.5468  0.3106  0.5342
  579TIP3    H123152   4.759   2.337  15.432 -2.1920  1.5061 -0.3839
  579TIP3    H223153   4.749   2.236  15.545  2.3651  0.3338 -0.8363
  580TIP3   OH223154   2.380   0.224  12.519 -0.0445  0.3354  0.9624
  580TIP3    H123155   2.474   0.225  12.501 -0.0339 -0.9539  0.8542
  580TIP3    H223156   2.350   0.312  12.497  1.1263  0.7514  0.9709
  581TIP3   OH223157   2.221   6.600   6.798 -0.2480 -0.2070  0.4669
  581TIP3    H123158   2.167   6.522   6.788 -1.2220  0.2618  1.8809
  581TIP3    H223159   2.311   6.568   6.789 -0.6715 -1.2833 -0.1594
  582TIP3   OH223160   4.240   0.868   1.561 -0.8239 -0.0333  0.3682
  582TIP3    H123161   4.204   0.943   1.514  0.1046  0.9739  1.2070
  582TIP3    H223162   4.267   0.903   1.646  2.0205 -0.7041 -0.1401
  583TIP3   OH223163   0.240   3.613  15.849  0.4167  0.3412 -0.5492
  583TIP3    H123164   0.188   3.640  15.774  1.9912 -0.2844 -1.9373
  583TIP3    H223165   0.325   3.589  15.812  0.9938 -0.7677  1.3449
  584TIP3   OH223166   0.120   5.093  17.145 -0.1742  0.0929 -0.0243
  584TIP3    H123167   0.173   5.025  17.102 -0.2547  0.3260 -0.5052
  584TIP3    H223168   0.184   5.153  17.182 -0.1025 -0.1172  0.1933
  585TIP3   OH223169   6.517   3.629   5.752  0.3056 -0.1134 -0.0756
  585TIP3    H123170   6.485   3.649   5.663 -0.9725 -0.1578  0.3492
  585TIP3    H223171   6.493   3.537   5.765  0.9380 -0.2500  0.1382
  586TIP3   OH223172   3.003   1.411  17.001 -0.0201  0.3349 -0.3862
  586TIP3    H123173   2.996   1.406  16.906  0.4880 -0.3495 -0.3912
  586TIP3    H223174   2.958   1.493  17.024  1.7051  1.6188 -1.4025
  587TIP3   OH223175   2.130   3.970  17.151  0.7051  1.1272 -0.4246
  587TIP3    H123176   2.150   3.918  17.073 -0.6776 -0.7539  0.3729
  587TIP3    H223177   2.206   4.026  17.163  1.2327  0.9854 -2.7279
  588TIP3   OH223178   5.111   3.004  12.828  0.1539 -0.3341  0.0745
  588TIP3    H123179   5.138   2.920  12.867  1.8920  0.3119  0.3371
  588TIP3    H223180   5.169   3.069  12.868 -1.1628  1.0089 -0.1342
  589TIP3   OH223181   0.999   4.159  12.195  0.1199 -0.5182  0.3169
  589TIP3    H123182   1.052   4.230  12.159 -0.2878  0.1678  1.0375
  589TIP3    H223183   0.934   4.141  12.127 -0.0525  0.1160  0.3098
  590TIP3   OH223184   1.465   6.364   1.456  0.2612  0.0416 -0.0892
  590TIP3    H123185   1.491   6.426   1.388  2.2052 -2.5511 -1.8922
  590TIP3    H223186   1.386   6.322   1.422  2.1571 -2.4659 -1.7809
  591TIP3   OH223187   6.123   5.631  15.404  0.4083  0.6264 -0.5811
  591TIP3    H123188   6.096   5.704  15.349 -0.3308  0.4031 -0.5217
  591TIP3    H223189   6.212   5.653  15.431  0.8244  0.6995 -1.9443
  592TIP3   OH223190   4.207   2.883   0.462  0.3053  0.3983  0.0400
  592TIP3    H123191   4.290   2.878   0.509  0.0919  1.3177  0.5283
  592TIP3    H223192   4.145   2.836   0.518  0.2517  0.6980  0.2338
  593TIP3   OH223193   0.303   5.514   6.211  0.5799  0.1661  0.3310
  593TIP3    H123194   0.346   5.463   6.142  0.5765  1.3971 -0.5964
  593TIP3    H223195   0.209   5.501   6.195  0.5219 -1.9313  1.9205
  594TIP3   OH223196   2.350   5.595  13.684  0.4723  0.0610 -0.0563
  594TIP3    H123197   2.343   5.559  13.772 -1.3464 -0.4361 -0.3721
  594TIP3    H223198   2.350   5.519  13.627  0.8710  0.4154 -0.5404
  595TIP3   OH223199   5.668   3.770   0.487  0.2152  0.3411 -0.5779
  595TIP3    H123200   5.617   3.714   0.429 -2.0148  1.5080  0.1396
  595TIP3    H223201   5.667   3.856   0.446 -1.4426  1.2006  1.1170
  596TIP3   OH223202   0.782   3.297   4.578 -0.2170  0.5103 -0.2218
  596TIP3    H123203   0.714   3.249   4.531 -1.5320  0.1945  1.8737
  596TIP3    H223204   0.809   3.237   4.649  0.9611  1.3318  0.0470
  597TIP3   OH223205   0.323   1.678   5.926 -0.1745  0.0029 -0.0661
  597TIP3    H123206   0.412   1.712   5.939 -0.2891 -0.3783  2.0055
  597TIP3    H223207   0.296   1.647   6.012 -1.6423 -1.5684 -1.0295
  598TIP3   OH223208   1.297   6.307  14.774  0.3116  0.3437  0.0796
  598TIP3    H123209   1.208   6.304  14.740  0.9330  1.3922 -1.7800
  598TIP3    H223210   1.336   6.383  14.731  1.7328  0.6752  1.8326
  599TIP3   OH223211   3.196   1.646   2.734 -0.2174  0.2265 -0.5338
  599TIP3    H123212   3.283   1.614   2.757 -0.3946 -1.1886 -1.6722
  599TIP3    H223213   3.207   1.687   2.648 -0.7218 -0.3029 -0.8633
  600TIP3   OH223214   0.474   0.898  11.556  0.1454  0.0780  0.3490
  600TIP3    H123215   0.513   0.916  11.641  1.2120  1.0220 -0.3191
  600TIP3    H223216   0.549   0.888  11.497 -0.5844 -0.1259 -0.5666
  601TIP3   OH223217   3.631   0.584   3.631 -0.6005  0.0444  0.3584
  601TIP3    H123218   3.625   0.669   3.674 -0.1017 -0.0116  0.5441
  601TIP3    H223219   3.724   0.575   3.609 -0.9027  0.2755 -1.1405
  602TIP3   OH223220   5.530   0.738  11.280 -0.5323  0.4159  0.2463
  602TIP3    H123221   5.578   0.817  11.305 -1.2530  1.0996 -0.4714
  602TIP3    H223222   5.597   0.671  11.269  0.2783  1.3536 -0.7613
  603TIP3   OH223223   5.732   2.550  16.621 -0.0267 -0.2910  0.0675
  603TIP3    H123224   5.797   2.613  16.593  0.4621 -0.4545  0.8067
  603TIP3    H223225   5.685   2.594  16.692  0.1606 -0.6618  0.4275
  604TIP3   OH223226   5.321   3.533   5.796  0.5322 -0.1985  0.1928
  604TIP3    H123227   5.226   3.525   5.796  0.2792  2.1115 -1.0467
  604TIP3    H223228   5.342   3.575   5.879  0.5628 -1.2563  0.7367
  605TIP3   OH223229   3.014   6.426   3.013  0.7051  0.5254  0.2095
  605TIP3    H123230   2.989   6.517   3.030  0.2261  0.2825  0.8328
  605TIP3    H223231   2.951   6.395   2.948  1.5785  0.9783 -0.8878
  606TIP3   OH223232   5.635   3.243   3.623  0.7373 -0.0469  0.2227
  606TIP3    H123233   5.692   3.288   3.686 -2.1362 -0.4899  3.4483
  606TIP3    H223234   5.614   3.160   3.665 -4.0100  1.0004  0.5117
  607TIP3   OH223235   2.773   4.871   1.911  0.3747  0.7178 -0.3497
  607TIP3    H123236   2.819   4.793   1.942  0.1360  0.2764 -1.0848
  607TIP3    H223237   2.700   4.837   1.860  0.6255  1.4142 -1.2067
  608TIP3   OH223238   5.829   0.826   3.630 -0.3090 -0.0598 -0.3037
  608TIP3    H123239   5.751   0.783   3.664  0.1063 -1.4726 -1.0477
  608TIP3    H223240   5.895   0.757   3.625  0.7016  0.8832 -0.6188
  609TIP3   OH223241   3.971   2.367   1.029 -0.0604  0.3784  0.2221
  609TIP3    H123242   4.058   2.327   1.034 -0.0143  0.4040 -0.3878
  609TIP3    H223243   3.969   2.429   1.103 -0.2292 -0.9175  1.3345
  610TIP3   OH223244   6.520   1.920   3.270 -0.0732  0.5670  0.3084
  610TIP3    H123245   6.537   1.858   3.199 -0.6878 -1.8105  2.1103
  610TIP3    H223246   6.605   1.935   3.310 -0.4122 -3.2367  2.9541
  611TIP3   OH223247   0.742   5.368  14.333 -0.5008 -0.2797  0.2887
  611TIP3    H123248   0.669   5.414  14.291 -0.5126 -1.1309 -0.6565
  611TIP3    H223249   0.820   5.404  14.291 -0.4612 -0.4973  0.1766
  612TIP3   OH223250   1.617   6.403   6.167 -0.3673 -0.5855 -0.0421
  612TIP3    H123251   1.603   6.322   6.216 -1.5979 -0.9003 -0.8647
  612TIP3    H223252   1.686   6.382   6.104 -0.8839 -1.1049 -0.4501
  613TIP3   OH223253   3.861   2.027   0.618  0.1168 -0.0459  0.4372
  613TIP3    H123254   3.809   2.039   0.539  1.1915 -1.4396 -0.5238
  613TIP3    H223255   3.946   2.067   0.598  0.3720 -0.3305  0.9303
  614TIP3   OH223256   5.190   0.583   5.731  0.5921  0.3559 -0.6094
  614TIP3    H123257   5.197   0.542   5.817 -0.0552  0.6787 -0.3946
  614TIP3    H223258   5.100   0.615   5.727  0.9314  1.3245 -0.9565
  615TIP3   OH223259   0.246   1.532  14.840 -0.2164  0.1583  0.1288
  615TIP3    H123260   0.158   1.499  14.822 -0.2810  0.0339  0.6570
  615TIP3    H223261   0.305   1.468  14.800 -0.3722  0.5455 -0.7279
  616TIP3   OH223262   2.170   5.011   5.663  0.6734 -0.0221  0.1194
  616TIP3    H123263   2.246   4.995   5.606 -0.1637 -1.3026 -0.6986
  616TIP3    H223264   2.153   5.104   5.656  1.6511  0.1345 -0.3458
  617TIP3   OH223265   3.974   5.616  13.225  0.2700  0.3537 -0.3925
  617TIP3    H123266   3.901   5.611  13.163  0.7317 -3.9052 -0.8970
  617TIP3    H223267   4.043   5.661  13.177 -0.3092 -0.3347 -1.9544
  618TIP3   OH223268   2.307   6.100  13.457 -0.2522 -0.0107 -0.1242
  618TIP3    H123269   2.365   6.038  13.414 -0.8179 -0.5276 -0.1453
  618TIP3    H223270   2.289   6.061  13.543 -2.6689 -1.1777 -1.0850
  619TIP3   OH223271   2.288   4.801   5.077 -0.2207 -0.2332 -0.5469
  619TIP3    H123272   2.324   4.848   5.001 -1.5686  2.9147  0.6221
  619TIP3    H223273   2.204   4.768   5.047 -0.2122 -0.0471 -0.7819
  620TIP3   OH223274   2.916   2.061  14.312  0.3773  0.2874  0.0308
  620TIP3    H123275   2.828   2.076  14.345  0.4522  1.1410 -0.1442
  620TIP3    H223276   2.947   1.985  14.361 -0.7780 -0.5884 -0.5411
  621TIP3   OH223277   1.856   3.390  13.971 -0.0334  0.7770 -0.0970
  621TIP3    H123278   1.783   3.360  13.917 -0.8148 -0.1331  1.4274
  621TIP3    H223279   1.924   3.324  13.960  0.6768  1.6826 -1.6081
  622TIP3   OH223280   2.151   2.344   4.434  0.0091 -0.2941  0.1602
  622TIP3    H123281   2.138   2.350   4.528 -0.7699  1.2848 -0.0253
  622TIP3    H223282   2.080   2.288   4.403 -1.0387  0.9322  0.2705
  623TIP3   OH223283   4.776   0.281   3.043 -0.4888 -0.2428 -0.5740
  623TIP3    H123284   4.743   0.285   3.133  0.1654  1.2045 -0.3651
  623TIP3    H223285   4.700   0.301   2.989 -0.2314  2.2909 -0.1331
  624TIP3   OH223286   2.819   6.185  12.849 -0.3392  0.6700 -0.2834
  624TIP3    H123287   2.819   6.103  12.800 -2.8429  1.6125 -2.0659
  624TIP3    H223288   2.750   6.172  12.915 -0.5047  1.1866 -0.3519
  625TIP3   OH223289   0.838   0.703   1.099 -0.1154  1.0722 -0.3272
  625TIP3    H123290   0.770   0.654   1.146  0.4230  1.1609  0.5588
  625TIP3    H223291   0.902   0.637   1.073  0.4672  1.2328  0.6201
  626TIP3   OH223292   3.927   2.991  14.747  0.0382 -0.4969 -0.2655
  626TIP3    H123293   3.981   2.944  14.811  0.7504 -0.8703 -1.1212
  626TIP3    H223294   3.990   3.034  14.690 -0.5976  1.8944  0.7420
  627TIP3   OH223295   3.255   4.431   2.389  0.3575  0.1359 -0.0186
  627TIP3    H123296   3.227   4.378   2.464  0.1779 -0.2632 -0.3631
  627TIP3    H223297   3.302   4.505   2.428  0.5530 -0.2399  0.4751
  628TIP3   OH223298   4.643   0.420   5.986  0.2462  0.1205 -0.3766
  628TIP3    H123299   4.646   0.338   5.937 -0.2640  0.4595 -0.9987
  628TIP3    H223300   4.650   0.488   5.919 -0.5809  0.5933 -0.0027
  629TIP3   OH223301   3.308   6.515  11.050  0.3779  0.7844  0.1537
  629TIP3    H123302   3.370   6.549  10.985  0.2562  0.2996 -0.2275
  629TIP3    H223303   3.238   6.477  10.997 -1.8475  4.0123  0.5065
  630TIP3   OH223304   4.861   2.122   2.560 -0.5376  0.0328 -0.5125
  630TIP3    H123305   4.877   2.032   2.533  2.6381  0.2598  0.2217
  630TIP3    H223306   4.915   2.134   2.638 -1.1819  2.4573 -0.3537
  631TIP3   OH223307   0.201   2.090  15.114 -0.2120 -0.5636 -0.8036
  631TIP3    H123308   0.232   2.079  15.024 -0.6904 -0.4098 -0.9920
  631TIP3    H223309   0.105   2.094  15.106 -0.2054  1.2178 -0.4959
  632TIP3   OH223310   2.612   5.530   4.667  0.1121  0.3755 -0.3748
  632TIP3    H123311   2.632   5.514   4.759  1.6440 -1.2290 -0.9279
  632TIP3    H223312   2.516   5.528   4.662 -0.0132  1.1593  1.2591
  633TIP3   OH223313   5.754   1.690   6.331  0.3261 -0.3597 -0.7821
  633TIP3    H123314   5.694   1.665   6.401  1.9818  1.4319  1.4566
  633TIP3    H223315   5.747   1.786   6.326  2.0844 -0.2191 -1.2793
  634TIP3   OH223316   1.535   4.398   1.173  0.6536 -0.3695  0.4911
  634TIP3    H123317   1.566   4.487   1.154  1.0004  0.2896  3.5056
  634TIP3    H223318   1.612   4.343   1.159  1.0022  0.1150  0.4473
  635TIP3   OH223319   3.277   6.459  13.594 -0.2833 -0.3737 -0.1736
  635TIP3    H123320   3.294   6.551  13.575 -1.8091  0.3227  1.5362
  635TIP3    H223321   3.345   6.433  13.655  1.1188 -0.9119 -1.8788
  636TIP3   OH223322   2.594   2.047  11.955 -0.3412  0.3199 -0.1147
  636TIP3    H123323   2.585   2.093  12.039  1.8507  0.7438 -0.0529
  636TIP3    H223324   2.617   1.957  11.979  1.0435  0.6254 -0.2326
  637TIP3   OH223325   2.855   4.172   3.727  0.0649  0.3040 -0.1259
  637TIP3    H123326   2.808   4.198   3.649  0.3112  1.1920  0.0170
  637TIP3    H223327   2.813   4.091   3.755 -0.1886  0.1210 -1.0260
  638TIP3   OH223328   1.362   0.141  10.969  0.3696  0.2193  0.1938
  638TIP3    H123329   1.418   0.122  11.044  1.2488 -0.2609 -0.5625
  638TIP3    H223330   1.273   0.129  11.002  0.7615 -0.4588  1.0422
  639TIP3   OH223331   2.995   0.974   2.168  0.0104  0.1945 -0.0042
  639TIP3    H123332   2.904   0.989   2.143 -0.0673 -0.8736 -0.4320
  639TIP3    H223333   2.992   0.897   2.225  0.4444  1.2732  1.5235
  640TIP3   OH223334   1.861   2.106   4.165  0.0155  0.1648  0.0242
  640TIP3    H123335   1.935   2.081   4.220 -0.4149  0.7516  0.8872
  640TIP3    H223336   1.886   2.191   4.128  0.4187 -0.3478 -0.9280
  641TIP3   OH223337   6.154   5.330  17.082  0.4430  0.6955 -0.6688
  641TIP3    H123338   6.103   5.272  17.026  2.0726 -0.8766 -0.6067
  641TIP3    H223339   6.223   5.275  17.118  0.7639  2.1776  1.1710
  642TIP3   OH223340   4.711   1.880  17.225  0.6081 -0.3318 -0.4673
  642TIP3    H123341   4.617   1.873  17.236  0.2898 -0.6530 -2.8990
  642TIP3    H223342   4.742   1.922  17.306 -1.7481  0.9447 -0.1555
  643TIP3   OH223343   4.554   0.882  12.625  0.4291  0.4234  0.9802
  643TIP3    H123344   4.608   0.961  12.620 -0.1243  0.7543 -3.2689
  643TIP3    H223345   4.597   0.819  12.568 -0.9214 -1.2149  1.6741
  644TIP3   OH223346   0.090   6.067  16.527 -0.0984  0.1134 -0.0890
  644TIP3    H123347   0.171   6.101  16.491  1.1820 -0.4952  2.0325
  644TIP3    H223348   0.117   6.015  16.603 -2.4450 -0.3906  0.4972
  645TIP3   OH223349   4.959   3.709   2.995 -0.1697 -0.3790  0.2876
  645TIP3    H123350   4.968   3.614   3.009 -0.2435 -0.4581 -0.1891
  645TIP3    H223351   4.889   3.735   3.054 -0.0994 -0.6076  0.4762
  646TIP3   OH223352   4.682   5.535   2.399  0.5185 -0.3142 -0.4589
  646TIP3    H123353   4.674   5.553   2.492 -0.1230 -0.3185 -0.5104
  646TIP3    H223354   4.697   5.621   2.359  0.7402 -0.3059 -0.3570
  647TIP3   OH223355   3.256   5.049  14.568  0.5359 -0.1304  0.5418
  647TIP3    H123356   3.208   4.996  14.632 -0.7181  2.3754  1.7994
  647TIP3    H223357   3.341   5.066  14.609  0.6278 -0.4515  0.4891
  648TIP3   OH223358   6.390   1.056   2.112 -0.0104 -0.4986  0.6162
  648TIP3    H123359   6.373   1.130   2.170  0.3324 -1.2335  1.6757
  648TIP3    H223360   6.311   1.048   2.058  0.6777  1.8171 -0.8691
  649TIP3   OH223361   1.580   5.439  14.792 -0.6553  0.3708  0.5292
  649TIP3    H123362   1.608   5.365  14.739  0.4495  0.3286  1.1405
  649TIP3    H223363   1.612   5.516  14.745  1.2617  0.2899  1.6243
  650TIP3   OH223364   6.518   4.350   0.951 -0.7773 -0.0818 -0.0103
  650TIP3    H123365   6.476   4.299   1.021  0.5351 -0.0444  0.8458
  650TIP3    H223366   6.506   4.297   0.872 -0.6388 -1.0648  0.6036
  651TIP3   OH223367   0.784   2.803   2.525 -0.2413  0.4647 -0.0327
  651TIP3    H123368   0.747   2.873   2.472 -0.2194  0.2355 -0.3563
  651TIP3    H223369   0.737   2.808   2.608 -1.9662 -0.6639 -0.8904
  652TIP3   OH223370   2.441   1.164   5.548  0.2530  0.1655  0.4683
  652TIP3    H123371   2.511   1.218   5.511  0.1486  0.6942  1.0110
  652TIP3    H223372   2.367   1.225   5.557 -0.6097 -0.6193 -1.0417
  653TIP3   OH223373   6.726   5.394  15.362 -0.1771  0.2416 -0.0031
  653TIP3    H123374   6.683   5.323  15.410 -0.4030  0.8981  0.8021
  653TIP3    H223375   6.672   5.471  15.380  1.9350  1.3697  2.0693
  654TIP3   OH223376   3.798   6.414  12.745  0.8992 -0.3926 -0.0636
  654TIP3    H123377   3.829   6.342  12.690  0.9649 -0.8407  0.5441
  654TIP3    H223378   3.716   6.382  12.783 -1.0220  1.2188 -2.5527
  655TIP3   OH223379   3.598   0.936   5.895  0.6086  0.9557  0.1340
  655TIP3    H123380   3.558   1.002   5.838 -0.1454 -0.3988 -0.9608
  655TIP3    H223381   3.632   0.870   5.835  0.6349 -0.0433  1.2227
  656TIP3   OH223382   2.819   3.535   5.063 -0.2167 -0.0244 -0.1003
  656TIP3    H123383   2.769   3.494   5.134 -0.4844  2.4995  1.2856
  656TIP3    H223384   2.869   3.463   5.024 -0.2876 -1.5775  2.4605
  657TIP3   OH223385   5.994   4.740  15.162  0.1013  0.3696  0.2882
  657TIP3    H123386   6.035   4.743  15.248 -0.7137  0.4180  0.6813
  657TIP3    H223387   5.914   4.690  15.175  0.6945 -0.9284 -0.7587
  658TIP3   OH223388   5.123   4.705  17.142 -0.0823 -0.4844  0.1307
  658TIP3    H123389   5.185   4.731  17.210  0.0736 -0.2314 -0.1034
  658TIP3    H223390   5.075   4.785  17.122 -0.8100 -0.7857  0.6403
  659TIP3   OH223391   6.320   4.796  15.526 -0.1825  0.6414 -0.1573
  659TIP3    H123392   6.371   4.777  15.605 -3.5812  0.1897  2.1405
  659TIP3    H223393   6.370   4.865  15.482  2.5592 -0.0417  1.6022
  660TIP3   OH223394   6.665   0.903  15.622 -0.2063 -0.4045  0.3793
  660TIP3    H123395   6.727   0.960  15.577 -1.3143  1.5453  1.1972
  660TIP3    H223396   6.686   0.815  15.591  0.6393  0.5673 -2.0540
  661TIP3   OH223397   6.669   4.922  14.040 -0.2403  0.3707  0.1091
  661TIP3    H123398   6.642   5.004  13.997  0.2781  0.5638  0.1471
  661TIP3    H223399   6.643   4.934  14.131 -2.1133 -0.3801 -0.2823
  662TIP3   OH223400   2.932   6.097  16.650 -0.1477  0.4398 -0.4100
  662TIP3    H123401   2.931   6.192  16.664  0.0087  0.3394  0.2817
  662TIP3    H223402   2.883   6.061  16.723 -0.3699 -0.0085 -0.7731
  663TIP3   OH223403   1.327   1.881  16.815  0.0954 -0.3397  0.1899
  663TIP3    H123404   1.348   1.791  16.842  0.8120 -0.8669 -1.9590
  663TIP3    H223405   1.398   1.933  16.853  1.0614 -1.0543 -0.5473
  664TIP3   OH223406   0.092   5.978   5.097  0.2049  0.8260  0.5050
  664TIP3    H123407   0.064   5.886   5.107  0.7765  0.5563 -0.3359
  664TIP3    H223408   0.041   6.025   5.163  0.2952 -0.1793  1.3201
  665TIP3   OH223409   5.035   4.023  16.157 -0.4287 -0.0207  0.1489
  665TIP3    H123410   5.044   4.045  16.064 -0.3720  1.6041  0.5125
  665TIP3    H223411   4.944   4.046  16.179 -1.3355 -2.9549 -0.1013
  666TIP3   OH223412   6.435   3.933   2.976 -0.1268 -0.1127 -0.2085
  666TIP3    H123413   6.489   3.977   2.910  2.0146 -1.3812  0.6095
  666TIP3    H223414   6.442   3.988   3.054 -1.3995  0.5642 -0.5337
  667TIP3   OH223415   1.133   0.694  16.278 -0.0244 -0.8492  0.1405
  667TIP3    H123416   1.210   0.735  16.319 -0.8495 -1.0786  2.0133
  667TIP3    H223417   1.144   0.712  16.185  0.8193  1.6775  0.6437
  668TIP3   OH223418   0.564   6.471   5.459  0.9061 -0.0715  0.7877
  668TIP3    H123419   0.480   6.503   5.491  0.6347 -0.0618  0.0704
  668TIP3    H223420   0.554   6.465   5.364  0.9652 -2.1547  0.8532
  669TIP3   OH223421   2.108   6.006   1.855  0.9713  0.8739 -0.1794
  669TIP3    H123422   2.032   5.965   1.897  1.6516 -0.3527 -0.0949
  669TIP3    H223423   2.168   6.023   1.927  0.1642  3.3945  0.0075
  670TIP3   OH223424   0.661   5.630  12.928 -0.5324  0.3062  0.1197
  670TIP3    H123425   0.732   5.636  12.992  0.4742  1.4397 -1.0571
  670TIP3    H223426   0.605   5.560  12.961  0.9596 -0.4091  1.2387
  671TIP3   OH223427   6.602   2.078   3.656 -0.2632  0.2788  0.2786
  671TIP3    H123428   6.594   2.168   3.685 -0.2170  0.0562  0.9890
  671TIP3    H223429   6.607   2.026   3.736  0.8637 -0.2554 -0.1115
  672TIP3   OH223430   0.529   1.574  12.059 -0.0420  0.3095  0.4613
  672TIP3    H123431   0.504   1.513  12.127 -0.3648 -0.0421  0.0264
  672TIP3    H223432   0.463   1.565  11.991  0.5341  0.3116 -0.1160
  673TIP3   OH223433   0.229   0.079   0.951  0.6501  0.9792 -0.3860
  673TIP3    H123434   0.168   0.043   1.016  0.7824 -0.8583 -1.2361
  673TIP3    H223435   0.173   0.105   0.878  0.4789  3.2366  0.4691
  674TIP3   OH223436   5.399   4.547  13.073  0.5708 -0.1755 -0.4347
  674TIP3    H123437   5.391   4.641  13.091 -1.7818 -0.4334  0.2103
  674TIP3    H223438   5.454   4.542  12.995 -0.7163  1.8848 -1.5762
  675TIP3   OH223439   1.207   5.848   4.612  0.1208  0.0503  0.0503
  675TIP3    H123440   1.211   5.833   4.518  0.7418 -1.1490  0.2520
  675TIP3    H223441   1.231   5.940   4.623  3.9379 -0.6988 -0.7115
  676TIP3   OH223442   4.834   2.144  12.996 -0.0891  0.2121  0.0870
  676TIP3    H123443   4.912   2.150  12.942  0.7499  0.9388  1.3202
  676TIP3    H223444   4.788   2.227  12.982  0.1235  0.3966  0.4705
  677TIP3   OH223445   4.537   1.435  12.645 -0.3524 -0.5645  0.2596
  677TIP3    H123446   4.595   1.371  12.604  0.3914  0.5783 -0.5125
  677TIP3    H223447   4.465   1.382  12.680 -0.2935 -1.7410 -1.2608
  678TIP3   OH223448   1.571   6.193   4.116  0.2291 -0.2158 -0.0026
  678TIP3    H123449   1.517   6.269   4.096  0.2587 -0.3108 -0.4665
  678TIP3    H223450   1.646   6.201   4.056 -0.0991 -0.9566 -0.5220
  679TIP3   OH223451   2.514   1.645  16.827 -0.3493  0.1020 -0.0239
  679TIP3    H123452   2.419   1.641  16.816 -0.6317  0.5820  1.9306
  679TIP3    H223453   2.533   1.583  16.897  0.9529 -0.8266 -1.1383
  680TIP3   OH223454   1.668   0.099  17.202  0.2787  0.1417  0.4129
  680TIP3    H123455   1.714   0.052  17.272  1.4411  2.2531  1.1643
  680TIP3    H223456   1.589   0.134  17.245 -1.6697 -2.6534 -0.6361
  681TIP3   OH223457   3.957   6.478   3.792 -0.2097 -0.3379 -0.2013
  681TIP3    H123458   3.963   6.445   3.703  0.1271  0.4017 -0.4635
  681TIP3    H223459   3.970   6.401   3.847 -1.0021 -0.8985 -0.7836
  682TIP3   OH223460   6.435   4.524  10.989  0.2844 -0.3551  0.2519
  682TIP3    H123461   6.382   4.444  10.993 -0.4993  0.0160 -1.4689
  682TIP3    H223462   6.372   4.595  10.996  0.6531  0.0945 -0.7171
  683TIP3   OH223463   4.757   3.714   4.643  0.0282  0.2545  0.4971
  683TIP3    H123464   4.803   3.709   4.559 -0.9428  0.1504 -0.0416
  683TIP3    H223465   4.697   3.788   4.633  0.8010  1.0641  1.5726
  684TIP3   OH223466   0.590   4.521  15.463 -0.0664  0.4799 -0.2180
  684TIP3    H123467   0.645   4.587  15.504  1.4754 -1.6309  1.3323
  684TIP3    H223468   0.500   4.546  15.485  0.4863  1.9698  0.3819
  685TIP3   OH223469   6.594   1.583   1.025 -0.6000  0.6526  0.8901
  685TIP3    H123470   6.664   1.520   1.013 -0.4564  0.8992  0.4561
  685TIP3    H223471   6.618   1.658   0.972  1.1479  2.6778  4.2026
  686TIP3   OH223472   3.974   0.980  14.934 -0.4280 -0.5453 -0.2632
  686TIP3    H123473   3.898   1.017  14.889  0.6024  0.3521 -1.3343
  686TIP3    H223474   3.944   0.966  15.024 -0.8289  3.3837  0.4074
  687TIP3   OH223475   0.490   5.405  11.738  0.0057 -0.0522 -0.2009
  687TIP3    H123476   0.405   5.442  11.762  0.6308  0.0650  1.9998
  687TIP3    H223477   0.513   5.449  11.656 -1.3006  1.0982  0.0215
  688TIP3   OH223478   2.763   0.588  11.841  0.1881  0.3146  0.1051
  688TIP3    H123479   2.753   0.666  11.785  1.6010  0.0457 -0.5603
  688TIP3    H223480   2.857   0.571  11.841  0.0553 -0.5086  1.4868
  689TIP3   OH223481   5.776   6.080   2.829  0.2819 -0.0690  0.4173
  689TIP3    H123482   5.680   6.084   2.825  0.3002 -0.1298 -0.2568
  689TIP3    H223483   5.804   6.116   2.745  0.8451 -0.3087  0.5038
  690TIP3   OH223484   3.823   1.825   3.572 -0.5080  0.1240 -0.5112
  690TIP3    H123485   3.899   1.860   3.525 -1.1229  2.4102  0.0863
  690TIP3    H223486   3.768   1.901   3.590 -1.5006 -1.0182  1.7229
  691TIP3   OH223487   4.903   0.202   2.744 -0.2895  0.4306  0.1775
  691TIP3    H123488   4.947   0.118   2.735 -1.7945 -0.4839  0.9649
  691TIP3    H223489   4.898   0.217   2.838 -1.0338  0.8473  0.0805
  692TIP3   OH223490   5.821   3.581   1.681 -0.4710  0.1803 -0.2725
  692TIP3    H123491   5.848   3.630   1.759  2.6779 -1.4181 -0.1966
  692TIP3    H223492   5.743   3.532   1.709 -1.3376  2.0525  0.7992
  693TIP3   OH223493   6.290   5.876  13.838 -0.4235  0.0828  0.7504
  693TIP3    H123494   6.256   5.960  13.870  1.4201  0.6317  1.4111
  693TIP3    H223495   6.287   5.884  13.742  0.7191  1.3766  0.7890
  694TIP3   OH223496   0.703   4.333  13.647 -0.1455  0.2072  0.0061
  694TIP3    H123497   0.692   4.407  13.587 -2.0046 -1.1820 -1.4755
  694TIP3    H223498   0.703   4.256  13.590 -0.9107 -1.0989  1.7049
  695TIP3   OH223499   2.994   5.855  16.881 -0.0908  0.0204 -0.8852
  695TIP3    H123500   2.982   5.779  16.938  0.9756  0.3746 -0.1612
  695TIP3    H223501   2.985   5.819  16.792 -2.0822 -0.4750 -0.5345
  696TIP3   OH223502   2.885   4.442  10.512 -0.3794 -0.3481  0.7341
  696TIP3    H123503   2.976   4.472  10.513 -0.8574  1.1859  1.2384
  696TIP3    H223504   2.835   4.518  10.542 -1.6820 -1.6596  1.9973
  697TIP3   OH223505   3.609   3.710   3.160 -0.7555 -0.7867  0.3317
  697TIP3    H123506   3.589   3.798   3.192 -1.6039 -0.7672 -0.2293
  697TIP3    H223507   3.575   3.651   3.227  2.0186 -0.7100  1.9817
  698TIP3   OH223508   2.439   4.920   3.591  0.5455  0.1969 -0.6317
  698TIP3    H123509   2.496   4.915   3.669  0.6550  0.5288 -0.6858
  698TIP3    H223510   2.461   5.005   3.552 -1.5891  1.4282  0.6066
  699TIP3   OH223511   1.023   5.585  16.952 -0.1017 -0.9864 -0.1828
  699TIP3    H123512   0.945   5.631  16.919 -1.7021 -2.4266  1.4032
  699TIP3    H223513   1.034   5.618  17.041 -0.5674 -2.7303  0.5646
  700TIP3   OH223514   0.011   4.600  11.726  0.5344 -0.0242 -0.1985
  700TIP3    H123515   0.030   4.684  11.768  1.0275 -0.1439 -0.1851
  700TIP3    H223516   0.072   4.538  11.764 -0.7060 -0.7023  0.7744
  701TIP3   OH223517   5.655   1.012  11.255  0.1388  0.1352  0.1287
  701TIP3    H123518   5.617   1.085  11.206 -0.9643  0.5723  1.5663
  701TIP3    H223519   5.714   1.053  11.318  0.7772 -0.3479 -0.1443
  702TIP3   OH223520   4.288   0.617  11.492  0.2104 -0.4487 -0.5138
  702TIP3    H123521   4.372   0.579  11.519  0.6493  2.3837  2.8311
  702TIP3    H223522   4.222   0.561  11.533  0.6210 -0.4975  0.0886
  703TIP3   OH223523   2.950   3.206   5.984 -0.0611  0.2405 -0.0614
  703TIP3    H123524   2.999   3.145   6.039  1.6125 -1.1500 -2.8494
  703TIP3    H223525   2.859   3.198   6.014  0.4541 -1.9288  1.1430
  704TIP3   OH223526   2.795   5.617   0.081 -0.4035  0.5902  0.1001
  704TIP3    H123527   2.849   5.615   0.001 -0.8255 -1.2740 -0.1801
  704TIP3    H223528   2.856   5.595   0.151  0.7246  5.2829  0.9063
  705TIP3   OH223529   3.776   3.227  14.155  0.5298 -0.4190 -0.0733
  705TIP3    H123530   3.705   3.286  14.130  2.4161  1.2791 -1.7842
  705TIP3    H223531   3.788   3.244  14.249  0.4537  1.3531 -0.3398
  706TIP3   OH223532   4.416   6.244  10.695  0.0125 -0.7389  0.0496
  706TIP3    H123533   4.375   6.310  10.638 -0.9866 -2.3710 -1.2056
  706TIP3    H223534   4.500   6.226  10.655  1.5302  1.6228  1.8819
  707TIP3   OH223535   3.975   0.019   0.050  0.2466 -0.2547 -0.1608
  707TIP3    H123536   3.907   0.001   0.115 -0.4296  0.4357 -0.6568
  707TIP3    H223537   4.029   0.087   0.091 -0.0478  0.0178 -0.2118
  708TIP3   OH223538   2.746   1.408  16.113 -0.4645  0.0917  0.5824
  708TIP3    H123539   2.762   1.502  16.127  0.8448 -0.0204 -0.0306
  708TIP3    H223540   2.833   1.369  16.111 -1.0405 -1.3269  1.9829
  709TIP3   OH223541   3.224   1.811   4.197  0.3444  1.0784 -0.1755
  709TIP3    H123542   3.162   1.860   4.143 -0.3833  1.6719  1.1495
  709TIP3    H223543   3.308   1.821   4.153 -0.4149  0.5914 -1.7864
  710TIP3   OH223544   5.166   4.502   1.681 -0.3347  0.4934 -0.3181
  710TIP3    H123545   5.195   4.426   1.732 -1.6813  1.5346  2.1798
  710TIP3    H223546   5.117   4.464   1.608  2.2681 -1.0849 -1.4042
  711TIP3   OH223547   1.153   5.357  13.566 -0.0039 -0.3686 -0.0285
  711TIP3    H123548   1.178   5.444  13.535 -1.2420 -0.0565 -0.2061
  711TIP3    H223549   1.225   5.301  13.538 -0.7231  0.0011 -3.0159
  712TIP3   OH223550   1.500   1.510  14.954  0.3576  0.4055 -0.1441
  712TIP3    H123551   1.415   1.470  14.938  2.0958 -3.8862  0.1940
  712TIP3    H223552   1.552   1.489  14.876  1.6669  1.4205  0.4023
  713TIP3   OH223553   1.387   0.935   5.443 -0.4447  0.0616  0.5005
  713TIP3    H123554   1.322   0.867   5.424 -1.6242  1.1711  0.3982
  713TIP3    H223555   1.466   0.886   5.466 -0.3925 -1.3402 -2.2739
  714TIP3   OH223556   4.873   5.080   1.117  0.4252 -0.7265 -0.0283
  714TIP3    H123557   4.948   5.047   1.166  0.2018  0.6128  1.2835
  714TIP3    H223558   4.797   5.059   1.171 -0.0040 -0.6650 -0.5908
  715TIP3   OH223559   1.354   0.720   0.054  0.1306  0.3517 -0.0701
  715TIP3    H123560   1.267   0.689   0.078 -0.3053  1.4747 -0.1357
  715TIP3    H223561   1.406   0.640   0.044 -0.9667 -0.3539 -0.3421
  716TIP3   OH223562   5.913   6.548   0.297  0.0466  0.3684  0.2576
  716TIP3    H123563   5.935   6.456   0.282  0.6934  0.3072  1.4790
  716TIP3    H223564   5.962   6.572   0.375  0.8601  2.1010 -0.7141
  717TIP3   OH223565   2.318   3.500   0.288 -0.0406 -0.2383  0.1986
  717TIP3    H123566   2.274   3.482   0.205  0.2688 -0.6060  0.1116
  717TIP3    H223567   2.328   3.414   0.329 -0.1596 -0.0636  0.6041
  718TIP3   OH223568   1.885   2.855   6.140  0.1752  0.1131 -0.0559
  718TIP3    H123569   1.933   2.918   6.086  1.4989  0.3871  1.3897
  718TIP3    H223570   1.952   2.804   6.184 -0.8546 -2.6706 -1.4957
  719TIP3   OH223571   0.978   3.122   1.828  0.3002  0.4203  0.2090
  719TIP3    H123572   0.903   3.177   1.807 -1.6414 -2.0657  0.0526
  719TIP3    H223573   0.976   3.054   1.760  2.9699  0.4660 -0.0099
  720TIP3   OH223574   6.629   1.807  11.614  0.1520 -0.1074 -0.1934
  720TIP3    H123575   6.704   1.866  11.611 -0.5195  0.7476 -0.3853
  720TIP3    H223576   6.605   1.803  11.707  0.5653 -0.5642 -0.1003
  721TIP3   OH223577   0.011   2.070  11.963 -0.0359  0.1577 -0.1774
  721TIP3    H123578  -0.032   2.095  11.881  1.1354  0.5760 -0.6737
  721TIP3    H223579   0.093   2.029  11.937  0.5119  0.5961  0.7812
  722TIP3   OH223580   4.798   5.993   4.065 -0.3606 -0.2605  0.4183
  722TIP3    H123581   4.839   5.995   3.979  1.3717  1.2641  1.2016
  722TIP3    H223582   4.705   5.982   4.048 -0.1241  0.6464 -1.6819
  723TIP3   OH223583   3.724   0.969  12.806  0.4050 -0.3977  0.2816
  723TIP3    H123584   3.713   0.906  12.877  1.1033 -0.6990  0.1323
  723TIP3    H223585   3.745   0.915  12.729  0.2326 -0.0354 -0.0227
  724TIP3   OH223586   6.570   2.280   2.616  0.2068 -0.4705 -0.6620
  724TIP3    H123587   6.517   2.207   2.650  0.4223 -0.5662 -0.5249
  724TIP3    H223588   6.636   2.238   2.561 -0.5311 -0.2656 -1.7256
  725TIP3   OH223589   6.069   5.892   0.538  0.0092  0.0706 -0.2046
  725TIP3    H123590   6.105   5.978   0.517 -1.7781  0.7646 -0.6607
  725TIP3    H223591   6.103   5.834   0.469 -1.9101  1.3032 -2.3389
  726TIP3   OH223592   3.781   1.346  11.679 -0.3050  0.4208 -0.6839
  726TIP3    H123593   3.854   1.398  11.644 -1.2232  0.3267 -2.9180
  726TIP3    H223594   3.820   1.259  11.694  0.8043  1.2085  1.4021
  727TIP3   OH223595   1.921   1.772  10.468 -0.5732  0.3952  0.0190
  727TIP3    H123596   1.992   1.816  10.514 -0.6702  1.4077 -0.7881
  727TIP3    H223597   1.940   1.678  10.479  0.0087  0.6281  1.1516
  728TIP3   OH223598   3.271   5.547  14.626 -0.9435  0.8845 -0.0872
  728TIP3    H123599   3.351   5.503  14.654 -1.6630 -0.4635 -0.0160
  728TIP3    H223600   3.208   5.529  14.696 -1.5177  1.2753 -0.4936
  729TIP3   OH223601   1.689   1.637   1.807  0.3120 -0.0865  0.0474
  729TIP3    H123602   1.774   1.651   1.849 -0.0616  1.0731  0.4741
  729TIP3    H223603   1.637   1.713   1.834 -0.7679 -0.6377 -0.4360
  730TIP3   OH223604   5.508   2.236  15.283  0.9928 -0.1104  0.2604
  730TIP3    H123605   5.442   2.168  15.271  0.5286  0.3639  0.0871
  730TIP3    H223606   5.526   2.237  15.377 -0.9008  1.2729  0.6537
  731TIP3   OH223607   3.022   1.829   5.760  0.7418 -0.3993  0.3958
  731TIP3    H123608   2.930   1.810   5.779  0.6864 -1.2103 -0.5584
  731TIP3    H223609   3.031   1.811   5.666  2.7874 -4.5370  1.1292
  732TIP3   OH223610   1.011   4.474   1.275  0.3283 -0.5015  0.2369
  732TIP3    H123611   0.996   4.442   1.186  1.0594 -1.2740  0.3777
  732TIP3    H223612   1.105   4.459   1.291  0.3861  0.4096  0.8336
  733TIP3   OH223613   2.862   3.958  15.508 -0.5174 -0.0125 -0.4391
  733TIP3    H123614   2.873   4.006  15.426 -1.3133 -0.0200 -0.5603
  733TIP3    H223615   2.949   3.924  15.528 -0.2660  0.1965 -1.1491
  734TIP3   OH223616   0.653   2.122   2.574 -0.3661  0.0938  0.6425
  734TIP3    H123617   0.658   2.201   2.627 -0.1903  0.8632 -0.5009
  734TIP3    H223618   0.739   2.081   2.584  0.6822  1.6895 -1.2249
  735TIP3   OH223619   2.167   6.395  13.515  0.1303  0.3619  0.1969
  735TIP3    H123620   2.097   6.343  13.554  1.3038 -1.8020 -0.4087
  735TIP3    H223621   2.231   6.330  13.486  0.9767  2.0870 -2.0360
  736TIP3   OH223622   3.231   0.544   4.347  0.1881  0.4459  0.1706
  736TIP3    H123623   3.292   0.584   4.409  1.7206  2.3833 -2.4021
  736TIP3    H223624   3.276   0.466   4.316  1.3616  1.6901 -1.4671
  737TIP3   OH223625   4.293   6.525   3.323 -0.3541  0.1061  0.5965
  737TIP3    H123626   4.327   6.607   3.359 -0.8227  0.9287 -0.7513
  737TIP3    H223627   4.368   6.465   3.324  0.3388  0.9488  0.4433
  738TIP3   OH223628   3.491   1.530   2.486  0.0535 -0.0322 -0.1625
  738TIP3    H123629   3.524   1.476   2.415 -0.3154 -0.0919 -0.2950
  738TIP3    H223630   3.512   1.620   2.460  2.5095 -0.1919  1.0242
  739TIP3   OH223631   5.160   6.478  11.685 -0.5613 -0.1636 -0.5577
  739TIP3    H123632   5.079   6.484  11.634 -1.2908 -1.4685  0.4058
  739TIP3    H223633   5.138   6.423  11.759  1.4788 -1.4000 -0.7964
  740TIP3   OH223634   5.556   4.528   5.045 -0.4984  0.1540  0.1680
  740TIP3    H123635   5.562   4.454   4.984  1.5263  0.4910 -0.0906
  740TIP3    H223636   5.544   4.487   5.131  0.1659 -0.4642 -0.0289
  741TIP3   OH223637   5.536   5.096  12.038  0.2208  0.3191 -0.6077
  741TIP3    H123638   5.559   5.182  12.001  0.3070  0.2904 -0.6213
  741TIP3    H223639   5.550   5.035  11.966 -0.7656  0.4109 -0.8911
  742TIP3   OH223640   6.715   1.373  12.647 -0.0526  0.3071 -0.2517
  742TIP3    H123641   6.805   1.355  12.619 -0.2239  0.3555 -0.8579
  742TIP3    H223642   6.693   1.299  12.704  0.3131  0.2033 -0.2389
  743TIP3   OH223643   3.398   5.505   2.606  0.3415 -0.6664 -0.0897
  743TIP3    H123644   3.492   5.493   2.591 -0.2172 -1.1957 -4.0983
  743TIP3    H223645   3.390   5.597   2.632  2.0331 -1.1223  2.4448
  744TIP3   OH223646   3.901   0.813   2.929 -0.0564  0.3493 -0.1191
  744TIP3    H123647   3.829   0.765   2.970  0.0817  0.8303  0.7015
  744TIP3    H223648   3.914   0.889   2.985  0.4946  0.7432 -0.7700
  745TIP3   OH223649   3.206   5.832   1.378 -0.1709 -0.5046 -0.2568
  745TIP3    H123650   3.216   5.744   1.341 -0.3753 -0.1602 -1.1452
  745TIP3    H223651   3.154   5.879   1.313  1.5719  0.8509 -0.7395
  746TIP3   OH223652   3.634   1.791   5.364 -0.3957  0.3935  0.1021
  746TIP3    H123653   3.687   1.825   5.435  1.6370 -1.9504 -0.1762
  746TIP3    H223654   3.552   1.763   5.406 -0.0255  0.8408  1.1408
  747TIP3   OH223655   5.652   0.682  13.014 -0.0854 -0.2878  0.0396
  747TIP3    H123656   5.573   0.628  13.023 -1.4285  1.7531  1.1730
  747TIP3    H223657   5.659   0.728  13.098  0.6309  1.7642 -1.0888
  748TIP3   OH223658   1.305   6.402   1.068  0.3687 -0.4992 -0.0245
  748TIP3    H123659   1.282   6.317   1.106 -1.2040  0.3081  0.9451
  748TIP3    H223660   1.260   6.465   1.124 -0.5726  0.8564 -2.2205
  749TIP3   OH223661   6.331   2.226  14.019 -0.6839  0.1764  0.3930
  749TIP3    H123662   6.347   2.138  14.054 -1.8114 -0.4320 -0.5395
  749TIP3    H223663   6.261   2.261  14.074 -0.8968  0.1151  0.1601
  750TIP3   OH223664   2.899   6.591   5.159 -0.3238 -0.5473  0.6083
  750TIP3    H123665   2.906   6.617   5.067  0.4389 -1.1993  0.4666
  750TIP3    H223666   2.836   6.652   5.197 -2.0973 -1.4491 -0.7665
  751TIP3   OH223667   0.601   1.021  15.903 -0.2453  0.7011  0.3359
  751TIP3    H123668   0.662   0.952  15.876 -0.4138  0.1450  1.3230
  751TIP3    H223669   0.536   1.025  15.833 -1.0848 -1.2216  0.9267
  752TIP3   OH223670   6.710   3.608   2.253  0.7915  0.1103  0.7360
  752TIP3    H123671   6.753   3.556   2.320  0.6669 -0.4505  0.3885
  752TIP3    H223672   6.765   3.686   2.244  1.4226 -0.3359  0.6953
  753TIP3   OH223673   4.770   3.639   1.020 -0.5594 -0.0003 -0.2535
  753TIP3    H123674   4.675   3.637   1.013 -0.5603  0.6126 -0.4517
  753TIP3    H223675   4.790   3.725   1.058 -0.0747 -0.0599 -0.3635
  754TIP3   OH223676   0.422   4.914   6.468  0.1271  0.2741  0.0727
  754TIP3    H123677   0.411   4.867   6.385  0.3597  0.2998  0.0261
  754TIP3    H223678   0.333   4.936   6.495 -0.2349 -2.2047  1.2549
  755TIP3   OH223679   3.804   5.580   0.284 -0.2886 -0.2609 -0.3166
  755TIP3    H123680   3.739   5.523   0.325 -0.5010  0.9363  1.0903
  755TIP3    H223681   3.888   5.537   0.301 -0.6671 -2.2213 -2.8068
  756TIP3   OH223682   4.344   3.051  14.203 -0.5200 -0.2831  0.1925
  756TIP3    H123683   4.278   2.996  14.161 -0.8048 -0.8961  1.4061
  756TIP3    H223684   4.418   3.049  14.142 -1.9097  1.2418 -1.6936
  757TIP3   OH223685   0.484   0.244   0.606  0.2496 -0.4768  0.6396
  757TIP3    H123686   0.436   0.179   0.657 -2.7655  0.7225 -0.4208
  757TIP3    H223687   0.450   0.328   0.636  0.6337  0.3823 -1.2002
  758TIP3   OH223688   2.056   5.274   1.426  0.1804  0.2715 -0.4963
  758TIP3    H123689   1.967   5.243   1.439  0.2981  0.3556  0.6563
  758TIP3    H223690   2.049   5.344   1.361 -0.6866  0.6727  0.0121
  759TIP3   OH223691   2.243   1.153   5.109  0.1439 -0.0277 -0.4535
  759TIP3    H123692   2.336   1.164   5.093  0.3037 -1.4061 -0.6312
  759TIP3    H223693   2.209   1.112   5.029  0.1575 -3.0808  0.9306
  760TIP3   OH223694   2.976   6.498  13.413  0.4323  0.2494 -0.3152
  760TIP3    H123695   2.962   6.515  13.506 -0.6177  1.9603 -0.7443
  760TIP3    H223696   2.899   6.533  13.369  1.0109 -0.2895 -1.8671
  761TIP3   OH223697   3.236   4.780   1.163  0.3139 -0.0036  0.1001
  761TIP3    H123698   3.266   4.752   1.249 -1.4195 -0.4160  0.6093
  761TIP3    H223699   3.260   4.873   1.157  0.3755  0.0478  1.0711
  762TIP3   OH223700   0.108   6.387  12.053 -0.5972 -0.0335  0.0104
  762TIP3    H123701   0.183   6.362  11.999  0.2895  1.7050  0.3502
  762TIP3    H223702   0.132   6.362  12.142 -0.2088  0.8862  0.1799
  763TIP3   OH223703   5.760   5.009  11.629 -0.4846  0.2792  0.1044
  763TIP3    H123704   5.787   5.084  11.575  1.4476 -1.2758 -1.2337
  763TIP3    H223705   5.681   4.977  11.587 -0.7540  0.9609  0.0770
  764TIP3   OH223706   2.481   4.206   4.166  0.7259 -0.8324  0.3504
  764TIP3    H123707   2.467   4.190   4.260  0.9067 -0.4555  0.4437
  764TIP3    H223708   2.538   4.283   4.163 -0.0909 -0.2256 -0.0766
  765TIP3   OH223709   4.306   5.730   3.892 -0.5099 -0.4554  0.3606
  765TIP3    H123710   4.253   5.794   3.940  0.1347 -1.7082  2.8793
  765TIP3    H223711   4.248   5.656   3.879 -0.6751 -0.1344 -0.8726
  766TIP3   OH223712   3.457   3.311   0.044 -0.0092 -0.8165  0.2883
  766TIP3    H123713   3.410   3.275   0.120  0.9172 -1.5651  0.5242
  766TIP3    H223714   3.460   3.405   0.061 -0.5571 -0.8729  0.7544
  767TIP3   OH223715   1.142   1.373   5.022 -1.2245  0.9663  0.0838
  767TIP3    H123716   1.226   1.377   5.068 -1.3085 -1.5385  0.6113
  767TIP3    H223717   1.154   1.429   4.945  1.9285 -1.2597 -1.2846
  768TIP3   OH223718   5.286   2.343  16.233 -0.2463 -0.0841  0.6052
  768TIP3    H123719   5.202   2.385  16.216 -1.4567 -2.6410 -0.2988
  768TIP3    H223720   5.274   2.298  16.317 -0.3641 -1.7076 -0.2475
  769TIP3   OH223721   0.929   6.210   5.816  0.1492 -0.1958  0.1450
  769TIP3    H123722   0.994   6.278   5.836 -0.1770  0.4163 -0.7714
  769TIP3    H223723   0.929   6.154   5.893  0.2171  1.0218  1.0724
  770TIP3   OH223724   1.266   6.755   5.531  0.9600  0.0226 -0.4899
  770TIP3    H123725   1.222   6.823   5.479  1.2254  0.1876 -0.4985
  770TIP3    H223726   1.353   6.790   5.547  1.5198 -0.8527 -1.5337
  771TIP3   OH223727   5.095   3.251  14.630 -0.1841 -0.2776  0.2747
  771TIP3    H123728   5.018   3.233  14.577  0.4233  0.0525 -0.7653
  771TIP3    H223729   5.162   3.277  14.566  0.7983 -0.6082  1.1462
  772TIP3   OH223730   2.833   5.112  13.312 -0.2955 -0.3605  0.7376
  772TIP3    H123731   2.852   5.041  13.250  1.6828  1.1546 -0.5175
  772TIP3    H223732   2.889   5.093  13.388 -0.3479 -0.5374  0.7331
  773TIP3   OH223733   0.866   5.702  11.806  0.2674  0.2853 -0.2461
  773TIP3    H123734   0.880   5.661  11.891  0.0448 -0.2578 -0.4690
  773TIP3    H223735   0.946   5.752  11.790 -0.2292  1.5233  0.9029
  774TIP3   OH223736   0.879   0.793  15.103  0.0695  0.0890 -0.0233
  774TIP3    H123737   0.924   0.765  15.183 -1.3255  0.6001  0.9821
  774TIP3    H223738   0.950   0.818  15.043  1.3538 -3.5204 -0.2754
  775TIP3   OH223739   6.091   3.957  14.996 -0.1317  0.3404 -0.0623
  775TIP3    H123740   6.004   3.981  14.964  0.1676  1.0524 -0.3650
  775TIP3    H223741   6.145   3.955  14.918 -0.6778 -4.2840 -0.6070
  776TIP3   OH223742   0.263   3.220   5.302  0.3432  0.0071  0.0078
  776TIP3    H123743   0.349   3.257   5.285  0.5160  0.5788  1.9638
  776TIP3    H223744   0.202   3.293   5.292  0.2990  0.0388  0.5019
  777TIP3   OH223745   1.428   2.342  13.271  0.1420  0.6732  0.3097
  777TIP3    H123746   1.498   2.404  13.293  0.6789 -0.3860  1.7119
  777TIP3    H223747   1.374   2.389  13.208  0.3039  2.7359  1.6007
  778TIP3   OH223748   2.595   5.419  17.346  0.3377  0.2191  0.5009
  778TIP3    H123749   2.596   5.513  17.362  1.4284  0.4739 -0.8342
  778TIP3    H223750   2.503   5.394  17.351  0.1825  1.0133  2.5574
  779TIP3   OH223751   2.524   3.333   6.279 -0.2082  0.2196 -0.2615
  779TIP3    H123752   2.453   3.397   6.281  0.5478  1.0927  2.3991
  779TIP3    H223753   2.484   3.252   6.311 -0.8584 -0.3911 -2.4422
  780TIP3   OH223754   6.054   2.731   4.036 -0.3825  0.4217  0.0693
  780TIP3    H123755   6.144   2.704   4.018 -0.2188  0.4996  0.7491
  780TIP3    H223756   6.003   2.650   4.030 -0.4575  0.5395 -1.4041
  781TIP3   OH223757   6.565   3.735  16.697 -0.0305 -0.7629 -0.3591
  781TIP3    H123758   6.604   3.790  16.765 -0.9073  0.0013 -0.4560
  781TIP3    H223759   6.637   3.715  16.637  0.7494 -1.4414  0.7733
  782TIP3   OH223760   1.350   4.653   2.773  0.5183 -0.5592 -0.0735
  782TIP3    H123761   1.267   4.611   2.795 -0.9245  1.5254 -1.1572
  782TIP3    H223762   1.338   4.685   2.684  1.6597  1.6023  0.4627
  783TIP3   OH223763   1.588   2.644  13.993  0.0834  0.0160 -0.2484
  783TIP3    H123764   1.569   2.558  14.029  1.6051  0.5603  2.0929
  783TIP3    H223765   1.504   2.690  13.994 -0.0796 -0.2224  2.1638
  784TIP3   OH223766   5.237   4.886   3.244 -0.4895  0.8005  0.1031
  784TIP3    H123767   5.205   4.931   3.166  2.1124  0.8627 -1.0211
  784TIP3    H223768   5.318   4.931   3.266  0.0887 -0.7765  1.3771
  785TIP3   OH223769   0.722   3.354  16.388  0.0339 -0.4748 -1.2375
  785TIP3    H123770   0.783   3.301  16.336  1.2475 -0.8864  0.5226
  785TIP3    H223771   0.644   3.299  16.396  0.8935 -1.5996 -0.3083
  786TIP3   OH223772   1.147   2.393  15.876 -0.1327 -0.3185  0.3480
  786TIP3    H123773   1.225   2.353  15.836  0.3719  1.1380 -0.2339
  786TIP3    H223774   1.090   2.320  15.898 -0.4154 -1.2941 -3.0209
  787TIP3   OH223775   4.133   0.920  15.568  0.6825  0.5460  0.0094
  787TIP3    H123776   4.211   0.914  15.623  1.6499  0.3501 -1.3361
  787TIP3    H223777   4.061   0.924  15.631  1.5617 -1.7154  1.3171
  788TIP3   OH223778   3.935   2.633   3.630 -0.0023  0.5290 -0.0889
  788TIP3    H123779   3.869   2.689   3.671 -1.0276 -0.2131 -0.7036
  788TIP3    H223780   4.019   2.666   3.664 -0.6977  1.2853  0.9310
  789TIP3   OH223781   6.301   0.879   0.578  0.2619  0.0734 -0.0868
  789TIP3    H123782   6.283   0.952   0.637 -0.8390 -0.6045  0.4556
  789TIP3    H223783   6.323   0.920   0.494  0.2411  1.0213  0.3552
  790TIP3   OH223784   5.282   0.733  15.930 -0.3339  0.0722 -0.3846
  790TIP3    H123785   5.188   0.746  15.931 -0.4307 -0.3721 -1.7115
  790TIP3    H223786   5.296   0.647  15.970 -0.2465  1.1720  2.1295
  791TIP3   OH223787   0.444   5.477  14.401  0.0398 -0.1919 -0.1188
  791TIP3    H123788   0.400   5.396  14.428 -1.4279  0.4497 -0.4837
  791TIP3    H223789   0.446   5.472  14.305 -0.2054  0.2670 -0.1508
  792TIP3   OH223790   4.675   2.765   4.843  0.0176  0.5071  0.0958
  792TIP3    H123791   4.701   2.674   4.855  2.8303  1.0435 -1.1829
  792TIP3    H223792   4.727   2.814   4.907 -1.1369  1.3125  0.4714
  793TIP3   OH223793   6.662   5.926  14.049  0.2363  0.1053 -0.2273
  793TIP3    H123794   6.675   5.950  14.141 -0.1594  0.1160 -0.1740
  793TIP3    H223795   6.751   5.912  14.015  0.4017  0.4126  0.0726
  794TIP3   OH223796   4.713   4.568   0.407 -0.2932  0.0744  0.3013
  794TIP3    H123797   4.696   4.501   0.474 -1.3540  1.2687  1.2908
  794TIP3    H223798   4.653   4.639   0.429 -0.8853  0.4114 -2.1157
  795TIP3   OH223799   5.121   5.875  11.035 -0.0155  0.2547  0.1902
  795TIP3    H123800   5.117   5.909  10.946  0.4431 -0.5534 -0.1507
  795TIP3    H223801   5.161   5.945  11.086  2.0556 -0.1761 -0.7277
  796TIP3   OH223802   2.235   0.328  16.199  0.0003  0.3132  0.2537
  796TIP3    H123803   2.235   0.340  16.294  0.5517  1.0291  0.1727
  796TIP3    H223804   2.222   0.417  16.164 -0.1530  0.0614 -0.3409
  797TIP3   OH223805   5.335   4.872  11.828  0.0833 -0.2075 -0.1440
  797TIP3    H123806   5.327   4.787  11.871  1.3689 -0.5101 -0.4452
  797TIP3    H223807   5.424   4.901  11.849 -0.3672  1.1260  0.0483
  798TIP3   OH223808   5.860   2.904  12.289  0.5497  0.3990  0.0214
  798TIP3    H123809   5.937   2.854  12.260  0.5418  0.4122 -0.0217
  798TIP3    H223810   5.805   2.911  12.212  1.2929  1.8871 -0.4192
  799TIP3   OH223811   1.914   4.944  12.270 -0.1177  0.4486 -0.7445
  799TIP3    H123812   1.945   4.854  12.279 -0.6500  0.2949 -0.4248
  799TIP3    H223813   1.819   4.936  12.256 -0.1250  0.9445 -1.0373
  800TIP3   OH223814   6.066   0.929  16.651  0.0440  0.2901  0.6531
  800TIP3    H123815   6.148   0.971  16.675  0.1289  0.9670 -0.7199
  800TIP3    H223816   6.002   0.965  16.713  0.6731  0.1580  1.3925
  801TIP3   OH223817   3.800   3.123  11.900  0.1032 -0.8944 -0.4091
  801TIP3    H123818   3.856   3.045  11.895 -0.0119 -0.9463 -1.1015
  801TIP3    H223819   3.799   3.157  11.810  0.8980  0.4446  0.0585
  802TIP3   OH223820   0.505   5.238   4.199 -0.0306  0.3197 -0.4736
  802TIP3    H123821   0.430   5.215   4.253 -0.1680 -1.5449 -1.3684
  802TIP3    H223822   0.500   5.333   4.189 -1.7882  0.3198  0.1767
  803TIP3   OH223823   4.315   5.397   1.058  0.0752 -0.0164 -0.2771
  803TIP3    H123824   4.398   5.350   1.061 -0.5147 -1.1039 -0.2363
  803TIP3    H223825   4.310   5.430   0.968  0.6792  0.3106 -0.1944
  804TIP3   OH223826   5.895   6.589   0.725  1.1050  0.1393 -0.0439
  804TIP3    H123827   5.831   6.660   0.735  3.0000  1.6865  2.4390
  804TIP3    H223828   5.959   6.622   0.663  0.9587 -0.2752 -0.4256
  805TIP3   OH223829   4.173   6.402  13.305 -0.5026  0.1901  0.3229
  805TIP3    H123830   4.154   6.479  13.358  1.8273  1.1376 -0.1033
  805TIP3    H223831   4.150   6.328  13.361 -0.7559  1.1794  1.5554
  806TIP3   OH223832   5.753   2.724   0.571 -0.1411 -0.4167 -0.3780
  806TIP3    H123833   5.844   2.712   0.543 -0.3007  0.2037 -1.1983
  806TIP3    H223834   5.744   2.667   0.647  1.1576  0.0897  0.1954
  807TIP3   OH223835   0.912   1.314  14.739  0.1590  0.0063 -0.3030
  807TIP3    H123836   0.992   1.363  14.755  0.8714 -1.2747  0.1484
  807TIP3    H223837   0.934   1.253  14.668  0.6089 -2.5418  1.8691
  808TIP3   OH223838   2.373   2.020  16.646  0.3551  0.2669 -0.0076
  808TIP3    H123839   2.304   1.995  16.708  0.4648  2.3301  1.0425
  808TIP3    H223840   2.330   2.023  16.561 -1.2632  2.6473  0.7715
  809TIP3   OH223841   2.733   5.111   6.652 -0.2006  0.2080  1.1602
  809TIP3    H123842   2.781   5.138   6.574  0.3525 -2.2779  0.5334
  809TIP3    H223843   2.641   5.118   6.628 -0.0542  0.6069  0.7107
  810TIP3   OH223844   5.161   0.212   5.486  0.2539 -0.1845 -0.0434
  810TIP3    H123845   5.066   0.219   5.476  0.2226  2.5788  1.1164
  810TIP3    H223846   5.173   0.164   5.568 -0.0837 -1.2740 -0.6152
  811TIP3   OH223847   2.090   4.834  14.503 -0.0264 -0.2487 -0.2716
  811TIP3    H123848   2.144   4.908  14.473 -1.3433  0.4172 -1.0888
  811TIP3    H223849   2.011   4.838  14.449 -1.2912 -0.6768  1.4417
  812TIP3   OH223850   0.042   5.950   0.283  0.7524  0.1142  0.0918
  812TIP3    H123851   0.075   5.979   0.198 -0.8266  1.1009 -0.2392
  812TIP3    H223852  -0.044   5.991   0.290  1.4609  1.3898  2.8745
  813TIP3   OH223853   3.272   5.602   3.050  0.1578 -0.3198  0.1261
  813TIP3    H123854   3.241   5.669   2.989  2.4436 -0.6899 -1.5670
  813TIP3    H223855   3.242   5.520   3.013 -0.1995 -0.4237  0.6396
  814TIP3   OH223856   0.691   3.136   5.086 -0.6240  0.6836 -0.1390
  814TIP3    H123857   0.730   3.050   5.102  0.1187  0.7037 -1.6317
  814TIP3    H223858   0.751   3.198   5.126 -1.1063  0.5333  0.8481
  815TIP3   OH223859   2.835   0.084   5.327  0.1860 -0.2636 -0.5457
  815TIP3    H123860   2.853   0.078   5.420 -2.0950 -1.9652 -0.1209
  815TIP3    H223861   2.755   0.137   5.322  0.7618  0.5476 -1.6357
  816TIP3   OH223862   0.686   5.474  17.006  0.1262  0.1704 -0.6072
  816TIP3    H123863   0.655   5.468  16.916 -0.1219  0.7241 -0.5625
  816TIP3    H223864   0.683   5.568  17.027  1.1544  0.1643 -0.3620
  817TIP3   OH223865   1.579   6.631  15.225  0.3903 -0.2821  0.1902
  817TIP3    H123866   1.557   6.566  15.159 -0.0776  0.3430 -0.2882
  817TIP3    H223867   1.667   6.662  15.200  1.2019 -1.6699  1.2017
  818TIP3   OH223868   3.772   3.675   4.304 -0.1249  0.3701 -0.1829
  818TIP3    H123869   3.682   3.688   4.333  0.1330  1.6750  0.1134
  818TIP3    H223870   3.765   3.620   4.226 -1.0465 -0.8650  0.7285
  819TIP3   OH223871   6.597   3.256   6.009 -0.0711 -0.8321 -0.5139
  819TIP3    H123872   6.576   3.244   5.917 -1.0282  0.7863 -0.5562
  819TIP3    H223873   6.614   3.350   6.017 -1.2896 -0.7112  1.1788
  820TIP3   OH223874   2.884   1.747  15.065 -0.7128  0.1932 -0.6107
  820TIP3    H123875   2.804   1.723  15.112 -1.3389  3.0485 -0.0209
  820TIP3    H223876   2.863   1.831  15.023  2.3424  1.7680  0.6972
  821TIP3   OH223877   5.217   2.272  11.726  0.7234 -0.4113  0.2788
  821TIP3    H123878   5.130   2.292  11.760  0.8066  2.1631 -0.7649
  821TIP3    H223879   5.206   2.267  11.631  1.5664 -0.9660  0.1986
  822TIP3   OH223880   4.191   2.617  14.458 -0.2986 -0.4761  0.4238
  822TIP3    H123881   4.246   2.695  14.462  0.8766 -1.1956 -0.5946
  822TIP3    H223882   4.107   2.647  14.425  0.8308  0.0887 -2.2353
  823TIP3   OH223883   3.889   3.517   2.662 -0.4818  0.8729  0.1863
  823TIP3    H123884   3.843   3.543   2.582 -1.7306  1.8917  1.1848
  823TIP3    H223885   3.881   3.594   2.719 -0.3525 -0.1249  1.5849
  824TIP3   OH223886   2.716   4.468  16.730 -0.1432  0.3009  0.1115
  824TIP3    H123887   2.802   4.426  16.725 -0.6251 -0.5848 -1.3464
  824TIP3    H223888   2.654   4.397  16.744 -0.6848  0.8841  0.7593
  825TIP3   OH223889   4.278   6.101  17.391 -0.3362  0.0481  0.0565
  825TIP3    H123890   4.260   6.007  17.390 -0.4651  0.0553  0.7485
  825TIP3    H223891   4.193   6.142  17.408 -0.3153  0.3022 -0.4444
  826TIP3   OH223892   2.699   4.469  16.432 -0.2402 -0.5710  0.0654
  826TIP3    H123893   2.771   4.407  16.438  1.2488  0.8376 -2.1363
  826TIP3    H223894   2.717   4.534  16.501  0.7774 -0.0825 -0.6412
  827TIP3   OH223895   1.975   6.171   6.124 -0.1699  0.0030  0.0379
  827TIP3    H123896   2.049   6.231   6.123  0.4588 -0.7555 -0.6278
  827TIP3    H223897   1.949   6.166   6.215 -0.0534  1.0609  0.1420
  828TIP3   OH223898   2.824   0.968   2.647  0.1737  0.2069  0.1478
  828TIP3    H123899   2.778   0.970   2.731 -0.1513 -1.1812  0.0176
  828TIP3    H223900   2.756   0.985   2.582 -0.7107 -3.8754 -0.2192
  829TIP3   OH223901   1.560   1.550   3.703 -0.1218 -0.2170 -0.1141
  829TIP3    H123902   1.641   1.575   3.659 -0.1270  0.1796  0.1020
  829TIP3    H223903   1.517   1.490   3.642  2.3888 -4.0860  1.4730
  830TIP3   OH223904   1.830   0.825   2.154 -0.1377 -0.2784  0.1960
  830TIP3    H123905   1.905   0.863   2.108 -0.2937 -0.5759 -0.3089
  830TIP3    H223906   1.759   0.888   2.142 -0.2529 -0.4836 -0.1999
  831TIP3   OH223907   3.571   3.599   0.435 -0.0682 -0.0391 -0.3228
  831TIP3    H123908   3.502   3.617   0.371 -1.7793  1.7912  1.8805
  831TIP3    H223909   3.650   3.637   0.397 -1.1979  1.6952 -1.0511
  832TIP3   OH223910   5.782   3.811  13.986  0.4899  0.4611  0.5380
  832TIP3    H123911   5.836   3.880  13.947  0.5464 -0.2252 -0.6342
  832TIP3    H223912   5.842   3.762  14.043  0.4414  1.3741  1.4148
  833TIP3   OH223913   3.967   1.111  12.428 -0.0515 -0.4636  0.1389
  833TIP3    H123914   3.937   1.196  12.396 -0.9010 -0.2639  1.4056
  833TIP3    H223915   3.945   1.111  12.521 -2.1546 -2.9561 -0.2600
  834TIP3   OH223916   1.924   6.088  15.851  0.0452 -0.3807 -0.1818
  834TIP3    H123917   1.991   6.087  15.782  1.0920  3.5453  0.5329
  834TIP3    H223918   1.841   6.088  15.803  0.6849  0.0428 -1.3431
  835TIP3   OH223919   2.670   4.752   1.570 -0.7139  0.4089  0.3187
  835TIP3    H123920   2.760   4.723   1.581 -1.3266 -1.8007  0.0112
  835TIP3    H223921   2.627   4.728   1.652 -1.2163  0.6882  0.1433
  836TIP3   OH223922   6.751   3.121  11.713  0.1504 -0.1441  0.2879
  836TIP3    H123923   6.782   3.031  11.709 -1.4513 -0.8065  1.6428
  836TIP3    H223924   6.656   3.114  11.714 -0.0099  1.4884  1.5076
  837TIP3   OH223925   1.289   3.821  12.271  0.3375 -0.1859  0.5187
  837TIP3    H123926   1.200   3.852  12.286  0.5855  2.0541 -2.0386
  837TIP3    H223927   1.280   3.726  12.263 -2.0077  0.0891 -0.8162
  838TIP3   OH223928   0.807   1.988  14.665  0.1391  0.2137 -0.0512
  838TIP3    H123929   0.879   1.993  14.603 -0.3647  1.4588 -0.5722
  838TIP3    H223930   0.847   2.004  14.750  0.7216 -0.8095 -0.1066
  839TIP3   OH223931   5.312   6.519  14.955  0.2523 -0.1012 -0.2028
  839TIP3    H123932   5.228   6.563  14.944  0.0514 -0.4432 -0.0376
  839TIP3    H223933   5.374   6.574  14.907  0.2351  1.0610  1.0397
  840TIP3   OH223934   5.381   5.501  14.597  0.8184 -0.7102  0.1924
  840TIP3    H123935   5.296   5.540  14.618  0.8053 -0.2844 -0.6275
  840TIP3    H223936   5.438   5.575  14.579  0.4136 -1.0290 -2.8669
  841TIP3   OH223937   0.102   0.437  15.237 -0.0840 -0.4702  0.2749
  841TIP3    H123938   0.050   0.517  15.227  1.4560  0.5569  0.2479
  841TIP3    H223939   0.189   0.468  15.262  0.6411 -2.1346 -0.0934
  842TIP3   OH223940   5.684   0.788  16.596 -0.0336  0.1715 -0.6583
  842TIP3    H123941   5.599   0.798  16.639 -0.4585  0.2120 -1.4813
  842TIP3    H223942   5.666   0.735  16.519  0.8240 -0.4004 -0.4767
  843TIP3   OH223943   0.800   0.490  17.132  0.0547 -0.0869 -0.1921
  843TIP3    H123944   0.808   0.579  17.168 -0.2011 -0.0008 -0.3457
  843TIP3    H223945   0.756   0.502  17.048  3.1221  0.0339 -1.8944
  844TIP3   OH223946   1.748   3.969   2.066 -0.0924 -0.2032  0.0167
  844TIP3    H123947   1.817   3.913   2.104 -0.5459 -0.9090 -0.1854
  844TIP3    H223948   1.742   4.043   2.126  1.2782  0.1830 -0.2948
  845TIP3   OH223949   5.836   0.382   4.669 -0.3601  0.3950  0.1307
  845TIP3    H123950   5.868   0.300   4.631  0.4405  1.2857 -1.1713
  845TIP3    H223951   5.886   0.450   4.625 -0.1040  1.5497  2.0862
  846TIP3   OH223952   4.078   1.826   5.345  0.3644 -0.2545 -0.0355
  846TIP3    H123953   4.043   1.908   5.380  2.1795  0.7081 -0.3512
  846TIP3    H223954   4.157   1.810   5.396 -0.0720 -1.9416  0.1509
  847TIP3   OH223955   0.783   1.596  16.606  0.2994 -0.2832  0.0379
  847TIP3    H123956   0.799   1.508  16.641 -2.1684 -1.7384 -2.1379
  847TIP3    H223957   0.846   1.605  16.534 -0.5956 -1.0666 -0.8773
  848TIP3   OH223958   4.366   5.447  16.325  0.1210  1.1421 -0.1543
  848TIP3    H123959   4.446   5.477  16.281  0.6851 -0.0403  0.0323
  848TIP3    H223960   4.352   5.359  16.292 -0.5999  1.0041  0.4996
  849TIP3   OH223961   0.384   3.469  13.123 -0.2756 -0.1336 -0.4741
  849TIP3    H123962   0.459   3.487  13.179 -0.5862  0.4808 -0.2405
  849TIP3    H223963   0.324   3.542  13.140 -0.1793  0.3170 -1.9657
  850TIP3   OH223964   4.150   2.012  14.131 -0.0689 -0.1567 -0.3335
  850TIP3    H123965   4.144   1.916  14.127 -0.5750 -0.2952  1.9979
  850TIP3    H223966   4.228   2.028  14.185  0.8782  0.8113 -1.9367
  851TIP3   OH223967   1.830   6.701  14.847 -0.3753  0.0702 -0.5044
  851TIP3    H123968   1.793   6.789  14.851  0.3585  0.3566  0.7131
  851TIP3    H223969   1.837   6.682  14.754  0.8399  1.9128 -0.8583
  852TIP3   OH223970   6.281   0.651   5.483 -0.2775 -0.3426  0.6536
  852TIP3    H123971   6.277   0.729   5.427 -0.4337  0.2946  1.5178
  852TIP3    H223972   6.364   0.610   5.461 -2.1817 -2.6804 -3.3122
  853TIP3   OH223973   1.364   4.011  13.657  0.2067 -0.2780 -0.0670
  853TIP3    H123974   1.295   4.051  13.709  0.0085 -0.2154 -0.3753
  853TIP3    H223975   1.433   3.991  13.720  0.1117  0.1171  0.1613
  854TIP3   OH223976   5.338   3.347   3.103  0.7645  0.1316 -0.0404
  854TIP3    H123977   5.300   3.267   3.141  1.5479  0.0704  0.6742
  854TIP3    H223978   5.299   3.418   3.153 -0.0469  0.2150 -0.7779
  855TIP3   OH223979   3.590   1.935   5.789  0.4341  1.0222 -0.4981
  855TIP3    H123980   3.515   1.876   5.788  0.3553  1.0438 -3.1895
  855TIP3    H223981   3.559   2.013   5.834 -0.8708  0.7010 -0.7969
  856TIP3   OH223982   4.505   0.963   1.274  0.1744 -0.1197  0.2742
  856TIP3    H123983   4.595   0.986   1.251 -0.4011  0.9768 -1.0384
  856TIP3    H223984   4.453   0.993   1.199 -1.2123 -1.3200  0.7192
  857TIP3   OH223985   4.627   2.262  11.334 -0.3731  0.5395 -0.2498
  857TIP3    H123986   4.705   2.303  11.371  0.5184 -0.6244 -0.7716
  857TIP3    H223987   4.636   2.277  11.239  0.4580 -1.5866 -0.5569
  858TIP3   OH223988   2.809   2.770  11.096 -0.4237  0.6686 -0.0634
  858TIP3    H123989   2.739   2.835  11.096 -1.4531 -0.3944 -0.1082
  858TIP3    H223990   2.826   2.753  11.189 -0.8785  0.2708 -0.0472
  859TIP3   OH223991   0.743   6.144   1.117 -0.4723  0.4139  0.1379
  859TIP3    H123992   0.797   6.077   1.076  1.7979  0.4482  2.7733
  859TIP3    H223993   0.794   6.224   1.110  0.0954  0.4085  2.8576
  860TIP3   OH223994   0.244   4.549  12.214 -0.0694 -0.0638  0.9739
  860TIP3    H123995   0.301   4.598  12.155 -2.9485 -0.4794 -2.4959
  860TIP3    H223996   0.303   4.509  12.278  3.0864  2.0558 -0.3868
  861TIP3   OH223997   1.652   5.656  11.347 -0.5233 -0.1833 -0.8218
  861TIP3    H123998   1.733   5.701  11.370 -1.3607  0.7926  0.3323
  861TIP3    H223999   1.681   5.572  11.311  0.9803 -0.7235  1.4377
  862TIP3   OH224000   5.730   4.917  13.166  0.1022  0.3755  0.4275
  862TIP3    H124001   5.708   4.912  13.259  1.4187 -0.1760  0.7376
  862TIP3    H224002   5.773   4.833  13.147  1.1625  1.0481 -0.3054
  863TIP3   OH224003   6.019   6.717  14.318 -0.7921  0.4785 -0.0200
  863TIP3    H124004   5.989   6.807  14.333 -1.4570  0.4755 -1.2119
  863TIP3    H224005   6.072   6.722  14.238  0.4456  0.0618  0.7532
  864TIP3   OH224006   3.215   5.061   0.095 -0.1401  0.5420  0.1624
  864TIP3    H124007   3.148   5.048   0.162  0.6723  0.3108  0.9376
  864TIP3    H224008   3.271   4.984   0.101  1.6789  1.8833  1.2624
  865TIP3   OH224009   0.829   6.364  12.020  0.3360 -0.5969 -0.3492
  865TIP3    H124010   0.837   6.329  11.931  0.9767 -3.5133  0.7551
  865TIP3    H224011   0.916   6.397  12.041  0.1414  0.2562 -0.8236
  866TIP3   OH224012   5.426   5.974  11.387 -0.6094 -0.1486 -0.6241
  866TIP3    H124013   5.387   5.886  11.381 -2.3085  0.5857 -1.1117
  866TIP3    H224014   5.510   5.960  11.430 -1.8673 -1.7375  1.5514
  867TIP3   OH224015   1.679   4.207  14.913  1.3035  0.1728 -0.1708
  867TIP3    H124016   1.619   4.222  14.986  1.8825  2.7286 -0.1016
  867TIP3    H224017   1.765   4.204  14.953  1.4056 -1.4857 -0.4716
  868TIP3   OH224018   3.608   0.263   0.640  0.1219 -0.0510  1.0055
  868TIP3    H124019   3.671   0.304   0.700 -0.2331  2.3779 -0.1514
  868TIP3    H224020   3.533   0.324   0.639 -0.0181 -0.1575 -1.6172
  869TIP3   OH224021   1.121   1.117  12.508 -0.0754 -0.3144  0.1625
  869TIP3    H124022   1.193   1.179  12.522  0.2183 -1.0992  2.5563
  869TIP3    H224023   1.122   1.100  12.413  1.6479  1.1519 -0.1315
  870TIP3   OH224024   6.665   1.797   4.464  0.3565  0.1684 -0.0349
  870TIP3    H124025   6.627   1.883   4.482  0.2157  0.3125 -0.9870
  870TIP3    H224026   6.750   1.798   4.508 -0.6581 -0.1164  2.0465
  871TIP3   OH224027   2.590   4.166  13.643 -0.0046  0.3556  0.1573
  871TIP3    H124028   2.641   4.220  13.581 -1.6304  1.9204  0.1132
  871TIP3    H224029   2.589   4.217  13.723 -0.3686 -0.3152  0.5836
  872TIP3   OH224030   5.464   6.377  16.041 -0.2123 -0.1935  0.5380
  872TIP3    H124031   5.440   6.367  16.133 -0.1369  1.2768  0.7365
  872TIP3    H224032   5.548   6.423  16.042  0.7045 -1.7505 -0.2494
  873TIP3   OH224033   1.109   6.522   5.563  0.7855  0.1554 -0.3877
  873TIP3    H124034   1.142   6.612   5.557 -0.8785  1.1349  2.6818
  873TIP3    H224035   1.014   6.532   5.573  0.7190 -1.7382  1.9200
  874TIP3   OH224036   1.531   5.770   2.362  0.4058 -0.3817  0.0234
  874TIP3    H124037   1.453   5.797   2.410  0.4989 -0.3363  0.1495
  874TIP3    H224038   1.603   5.811   2.408  0.7434 -2.4561  1.4521
  875TIP3   OH224039   1.736   1.092  13.287  0.2926 -0.2648  0.1749
  875TIP3    H124040   1.808   1.068  13.345  0.7052  0.6002  0.0338
  875TIP3    H224041   1.777   1.142  13.217 -0.5200  0.7072  0.3783
  876TIP3   OH224042   0.817   1.102   5.332 -1.0931 -0.1878  0.6220
  876TIP3    H124043   0.820   1.075   5.240  2.0776  3.1034 -0.4261
  876TIP3    H224044   0.730   1.141   5.342 -1.1699  0.2402 -1.2758
  877TIP3   OH224045   6.338   0.170  13.200 -0.0932  0.2857 -0.0277
  877TIP3    H124046   6.321   0.147  13.291 -0.0979  0.5717  0.0454
  877TIP3    H224047   6.260   0.218  13.173  0.4106  1.2423  0.1792
  878TIP3   OH224048   0.587   6.706  15.271  0.0025 -0.4635 -0.7459
  878TIP3    H124049   0.559   6.718  15.180 -1.1081  0.0371 -0.3628
  878TIP3    H224050   0.514   6.741  15.323  1.0757  0.2673  0.3309
  879TIP3   OH224051   3.529   6.335   5.584  0.1320  0.1435 -0.1356
  879TIP3    H124052   3.521   6.306   5.674 -1.5139 -1.6499 -0.7921
  879TIP3    H224053   3.452   6.390   5.568 -0.5012 -0.9103 -0.8748
  880TIP3   OH224054   2.549   5.882   4.250 -0.2197 -0.6086  0.0000
  880TIP3    H124055   2.489   5.936   4.198 -0.1436 -1.2711 -0.8083
  880TIP3    H224056   2.493   5.838   4.314 -0.2896  0.3674  0.6299
  881TIP3   OH224057   5.178   5.017   4.538  0.2991  0.1157  0.2637
  881TIP3    H124058   5.196   5.110   4.549  0.3780 -0.0101  1.2827
  881TIP3    H224059   5.153   5.008   4.445  0.2719  1.1435  0.1613
  882TIP3   OH224060   5.398   5.982   2.984  0.0182 -0.1985  0.0025
  882TIP3    H124061   5.450   6.038   2.925  0.1511 -0.7445 -0.4068
  882TIP3    H224062   5.398   5.896   2.942 -3.9527  0.4558 -1.7703
  883TIP3   OH224063   5.869   3.551   5.408  0.2674 -0.7208 -0.7612
  883TIP3    H124064   5.858   3.496   5.486  0.6384 -0.8111 -0.7692
  883TIP3    H224065   5.896   3.489   5.339 -0.4420 -0.7060 -1.0676
  884TIP3   OH224066   6.661   1.056   5.674  0.6831  0.3576 -0.2284
  884TIP3    H124067   6.581   1.047   5.623  2.2168  0.0751 -2.7926
  884TIP3    H224068   6.690   0.966   5.690  1.1941  0.4629 -0.5462
  885TIP3   OH224069   5.065   2.141   5.513 -0.1022  0.2377  0.1197
  885TIP3    H124070   5.072   2.201   5.439  0.3291 -0.8922 -0.7827
  885TIP3    H224071   5.140   2.162   5.568  0.3217  0.2066 -0.4419
  886TIP3   OH224072   0.641   2.076  12.466 -0.3437 -0.6196  0.2804
  886TIP3    H124073   0.637   2.069  12.371  0.2552 -1.2800  0.2986
  886TIP3    H224074   0.557   2.116  12.491 -0.0655  0.5296 -0.6002
  887TIP3   OH224075   1.761   3.889  17.354 -0.2960 -0.3799 -0.4448
  887TIP3    H124076   1.798   3.817  17.303 -0.3155  0.2553 -1.3919
  887TIP3    H224077   1.837   3.939  17.386 -0.2819 -0.8249  0.2343
  888TIP3   OH224078   5.839   3.354   5.210  0.5847  0.3880  0.1247
  888TIP3    H124079   5.861   3.393   5.126 -0.5891  2.3124  0.6569
  888TIP3    H224080   5.755   3.392   5.233 -0.8180 -2.6663  0.6246
  889TIP3   OH224081   1.767   5.556  14.452  0.1285 -0.3680  0.2461
  889TIP3    H124082   1.851   5.556  14.496  0.4789 -1.5056 -0.3884
  889TIP3    H224083   1.722   5.633  14.486  2.4987  1.9529 -1.4835
  890TIP3   OH224084   5.623   2.253  14.169  0.0736 -0.1239  0.7974
  890TIP3    H124085   5.556   2.303  14.215  0.8691 -0.3240  2.2403
  890TIP3    H224086   5.696   2.313  14.160 -0.3983  0.2191 -1.1318
  891TIP3   OH224087   0.986   5.315  11.422 -0.0691 -0.5778 -0.0775
  891TIP3    H124088   1.026   5.355  11.345 -0.1764 -0.1909  0.0643
  891TIP3    H224089   1.005   5.222  11.413  0.8027 -0.4146 -0.0499
  892TIP3   OH224090   6.078   5.394   0.003 -0.0010 -0.3346 -0.2657
  892TIP3    H124091   6.144   5.349   0.055  0.6007  1.2510  0.4052
  892TIP3    H224092   6.079   5.349  -0.081  0.1967 -1.8799  0.5368
  893TIP3   OH224093   6.612   1.094   3.607  0.4947 -0.3506  0.0413
  893TIP3    H124094   6.548   1.041   3.654  1.1825 -1.8972 -0.6859
  893TIP3    H224095   6.646   1.036   3.539  2.4829  0.4878  0.2508
  894TIP3   OH224096   5.039   2.567  14.724  0.0650  0.2483  0.1219
  894TIP3    H124097   5.061   2.481  14.758 -0.0837  0.4211  0.6741
  894TIP3    H224098   4.961   2.552  14.670  1.5884 -0.3987 -2.0175
  895TIP3   OH224099   0.420   6.176  16.783  0.1576 -0.3374  0.4437
  895TIP3    H124100   0.366   6.132  16.849  0.4566  1.4537  1.9790
  895TIP3    H224101   0.462   6.105  16.735  0.0143 -1.7327  2.2746
  896TIP3   OH224102   1.728   1.363   4.083 -0.2641 -0.9070  0.0894
  896TIP3    H124103   1.690   1.386   3.998 -2.0242 -1.0917  0.7990
  896TIP3    H224104   1.811   1.321   4.061 -0.8002 -1.1765 -1.5547
  897TIP3   OH224105   2.670   0.973  15.679 -0.1290 -0.4658  0.3642
  897TIP3    H124106   2.685   0.918  15.602 -0.8091  0.5274 -0.4901
  897TIP3    H224107   2.754   0.973  15.725 -0.2511 -2.6733  0.7006
  898TIP3   OH224108   2.348   4.950  14.879  0.2810  0.4518  0.1476
  898TIP3    H124109   2.347   5.007  14.956  0.2889  1.9438 -0.9141
  898TIP3    H224110   2.437   4.956  14.845  0.4622 -0.7159  0.3677
  899TIP3   OH224111   4.877   1.772   3.193  0.5449  0.0590  0.1091
  899TIP3    H124112   4.958   1.753   3.240  1.6190  1.9007 -0.8578
  899TIP3    H224113   4.818   1.808   3.259  1.0295  0.0246  0.5652
  900TIP3   OH224114   6.739   5.713  15.993  0.2336  0.6455  0.0069
  900TIP3    H124115   6.767   5.722  15.902 -0.3746  1.9614 -0.0686
  900TIP3    H224116   6.815   5.740  16.044  0.4829  0.1664 -0.0984
  901TIP3   OH224117   2.356   5.729   4.420 -0.4521  0.1176  0.3317
  901TIP3    H124118   2.284   5.765   4.368 -1.5979 -1.5744  0.6517
  901TIP3    H224119   2.323   5.643   4.449  1.0261  0.0540  1.9499
  902TIP3   OH224120   3.064   3.791  15.550  0.0305 -0.0300 -0.0821
  902TIP3    H124121   3.143   3.778  15.603 -0.2602 -0.6008  0.2195
  902TIP3    H224122   3.039   3.703  15.521 -0.5838  0.1261 -0.0423
  903TIP3   OH224123   3.252   0.193   6.083  0.3017 -0.0792 -0.2846
  903TIP3    H124124   3.245   0.243   6.001  1.6158 -4.3727 -3.4085
  903TIP3    H224125   3.344   0.197   6.106 -0.0897  1.2505  1.2250
  904TIP3   OH224126   2.906   1.668   0.355  0.0712 -0.6903  0.4999
  904TIP3    H124127   2.983   1.721   0.335  0.4316 -0.3861  2.4587
  904TIP3    H224128   2.836   1.707   0.303  0.9384 -0.0971 -0.2504
  905TIP3   OH224129   5.111   3.408   4.740  0.2582 -0.4286 -0.3096
  905TIP3    H124130   5.021   3.437   4.760  0.2688 -0.1976 -0.5884
  905TIP3    H224131   5.166   3.466   4.791  0.2684 -0.1392 -0.6402
  906TIP3   OH224132   6.410   3.159   3.574  0.5321  0.3173 -0.1211
  906TIP3    H124133   6.444   3.088   3.520  1.1577 -0.4061  1.1775
  906TIP3    H224134   6.320   3.170   3.545 -0.8703 -3.5513  2.0336
  907TIP3   OH224135   1.598   1.499  13.368  0.4945  0.6995 -0.2558
  907TIP3    H124136   1.511   1.536  13.352  0.6201 -0.0296 -3.0237
  907TIP3    H224137   1.658   1.559  13.325  1.1009 -0.2731 -0.8019
  908TIP3   OH224138   0.937   0.948   4.624  0.0832  0.0382 -0.1405
  908TIP3    H124139   0.889   1.021   4.663 -0.1671 -1.3457  2.3274
  908TIP3    H224140   1.029   0.976   4.627 -0.2154  1.5098 -2.2478
  909TIP3   OH224141   6.292   5.725  15.837 -0.3266 -0.4231 -0.6658
  909TIP3    H124142   6.284   5.704  15.931  0.8154  2.7096  0.2564
  909TIP3    H224143   6.202   5.723  15.805 -0.8964 -0.3330  0.8177
  910TIP3   OH224144   0.648   6.017   5.955  0.2296  0.2074 -0.1385
  910TIP3    H124145   0.577   6.033   5.892  1.0835  0.7778 -0.9719
  910TIP3    H224146   0.608   5.960   6.021 -1.7390  2.4073  0.7327
  911TIP3   OH224147   1.143   6.317   4.149 -0.5720 -0.1011 -0.3041
  911TIP3    H124148   1.182   6.326   4.236  1.6647 -0.8968 -1.1724
  911TIP3    H224149   1.129   6.407   4.119  0.1382  0.1876  0.2269
  912TIP3   OH224150   6.186   4.795  14.257  0.0324  0.2546  0.1941
  912TIP3    H124151   6.093   4.803  14.232 -0.0749 -1.1084  0.0931
  912TIP3    H224152   6.220   4.729  14.197  0.4436 -1.1186  1.8793
  913TIP3   OH224153   5.396   5.696  12.925 -0.1699  0.1052 -0.6597
  913TIP3    H124154   5.347   5.660  12.999 -1.5677 -0.6250 -1.8950
  913TIP3    H224155   5.427   5.620  12.877 -0.8401  0.5375 -1.8166
  914TIP3   OH224156   1.063   0.784  14.917  0.3523 -0.9720 -0.3127
  914TIP3    H124157   1.127   0.735  14.865  0.4963 -0.6059 -0.4887
  914TIP3    H224158   1.030   0.851  14.856  1.2420  0.0933  0.3302
  915TIP3   OH224159   3.791   2.313   5.399  0.1280 -0.2966 -0.4674
  915TIP3    H124160   3.750   2.309   5.485  0.0878  0.3149 -0.4524
  915TIP3    H224161   3.851   2.388   5.404  1.2275 -1.1561 -0.5004
  916TIP3   OH224162   1.354   1.301  12.008 -0.0646  0.5998 -0.5957
  916TIP3    H124163   1.403   1.331  12.084  0.6590  1.4978 -1.3887
  916TIP3    H224164   1.265   1.289  12.040  0.5877 -0.8746  0.8303
  917TIP3   OH224165   5.143   5.973   6.098 -0.0211  0.3030  0.2218
  917TIP3    H124166   5.188   5.890   6.085 -0.7307 -0.1352  0.4830
  917TIP3    H224167   5.199   6.038   6.056  0.6315 -0.2829  0.1721
  918TIP3   OH224168   1.618   5.028   3.285 -0.3863 -0.5642  1.0170
  918TIP3    H124169   1.687   5.083   3.321 -0.8323  0.5291  0.2624
  918TIP3    H224170   1.537   5.066   3.320 -0.7675 -0.0176 -0.3786
  919TIP3   OH224171   0.839   5.478  11.976 -0.3183  0.4857 -0.5377
  919TIP3    H124172   0.911   5.439  12.025  0.7625  1.0127 -1.6389
  919TIP3    H224173   0.782   5.405  11.953  1.1229 -0.3411 -1.6718
  920TIP3   OH224174   2.948   2.624  14.865 -0.0019  0.4739 -0.1340
  920TIP3    H124175   3.024   2.664  14.908 -1.5271  2.4871  0.8532
  920TIP3    H224176   2.876   2.685  14.883 -1.6315 -0.8270 -1.9402
  921TIP3   OH224177   1.377   3.804   5.462 -0.3476  0.4330 -0.5784
  921TIP3    H124178   1.448   3.767   5.515  1.1382  0.6947 -2.2809
  921TIP3    H224179   1.357   3.735   5.398 -1.9462  0.2080  0.1189
  922TIP3   OH224180   5.287   6.660   0.292  0.0027  0.0607 -0.1899
  922TIP3    H124181   5.329   6.637   0.375 -0.4677  2.1710  0.6940
  922TIP3    H224182   5.358   6.697   0.239 -0.3217  2.0636  0.6781
  923TIP3   OH224183   3.906   5.455   5.545  0.5756 -0.3700 -0.2322
  923TIP3    H124184   3.857   5.458   5.627  0.9357 -2.1459  0.0905
  923TIP3    H224185   3.850   5.499   5.481  0.1677  0.7861  0.8977
  924TIP3   OH224186   0.739   2.951   3.331 -0.0796 -0.1578 -0.0260
  924TIP3    H124187   0.833   2.957   3.347 -0.3596 -0.6857  2.1357
  924TIP3    H224188   0.713   3.041   3.310  0.5544  0.5368  1.8739
  925TIP3   OH224189   1.206   2.870   5.747  0.6592 -0.3416 -0.0601
  925TIP3    H124190   1.293   2.855   5.784  0.5923  0.4709  0.4487
  925TIP3    H224191   1.148   2.872   5.823  0.3495  0.1714 -0.3070
  926TIP3   OH224192   2.735   1.784  12.383  0.0094 -0.6051 -0.0223
  926TIP3    H124193   2.651   1.766  12.341 -0.0232 -1.2058  0.2815
  926TIP3    H224194   2.714   1.794  12.476 -0.0047  1.3225 -0.1947
  927TIP3   OH224195   1.842   2.846  13.509 -0.0126  0.2459  0.1228
  927TIP3    H124196   1.915   2.788  13.488 -0.2408  0.1496 -0.3927
  927TIP3    H224197   1.822   2.827  13.601  0.4681  0.1216  0.2064
  928TIP3   OH224198   2.378   0.059  14.682 -0.0911  0.7164 -0.4681
  928TIP3    H124199   2.431   0.040  14.759  0.8971  1.4829 -0.9217
  928TIP3    H224200   2.334  -0.023  14.661 -0.9567  0.6818  1.3204
  929TIP3   OH224201   0.168   0.431  13.547 -0.2437  0.1521  0.9006
  929TIP3    H124202   0.085   0.415  13.502 -0.5448 -0.9798  1.8024
  929TIP3    H224203   0.149   0.503  13.607  0.0014  1.2684 -0.3201
  930TIP3   OH224204   6.325   5.658  11.900  0.2900  0.5125 -0.3043
  930TIP3    H124205   6.418   5.648  11.878  0.1150  0.4363 -1.0283
  930TIP3    H224206   6.310   5.752  11.901  0.9279  0.6657  2.2435
  931TIP3   OH224207   0.994   4.217   3.091 -0.5725  0.0834 -0.2429
  931TIP3    H124208   1.042   4.232   3.010 -0.4141  0.1139 -0.1439
  931TIP3    H224209   0.909   4.182   3.063 -0.8601  0.9332 -0.4630
  932TIP3   OH224210   6.145   6.302   0.940  0.3146  0.6501  0.5799
  932TIP3    H124211   6.090   6.225   0.952  0.9202  0.0879 -0.1696
  932TIP3    H224212   6.198   6.282   0.863  1.5240  1.1875  1.2397
  933TIP3   OH224213   4.765   2.985  11.968  0.1823 -0.2807 -0.2181
  933TIP3    H124214   4.832   3.032  12.016 -0.2011 -0.2350  0.2786
  933TIP3    H224215   4.812   2.939  11.898  1.0023 -1.7428  1.2293
  934TIP3   OH224216   2.765   2.550   2.985 -0.0198 -0.1077  0.0315
  934TIP3    H124217   2.733   2.582   2.901 -1.0608  0.0121  0.4569
  934TIP3    H224218   2.859   2.562   2.981  0.0961 -1.1609 -1.5720
  935TIP3   OH224219   5.257   5.091  13.993  0.4817  0.4513  0.2527
  935TIP3    H124220   5.298   5.008  14.019  1.0289  0.4527 -0.5832
  935TIP3    H224221   5.216   5.123  14.074 -0.9077 -1.2849  0.3126
  936TIP3   OH224222   1.830   3.719  14.895  0.0087  0.0897 -0.2799
  936TIP3    H124223   1.745   3.693  14.860 -0.2523 -0.9966  1.0672
  936TIP3    H224224   1.841   3.666  14.974  1.4094  1.0766  0.2346
  937TIP3   OH224225   3.406   0.187  10.612 -0.4720  0.4730  0.4210
  937TIP3    H124226   3.495   0.221  10.623 -0.7883  1.7775 -0.7552
  937TIP3    H224227   3.353   0.265  10.591 -1.2338 -0.7297 -2.5265
  938TIP3   OH224228   1.474   5.868   1.869  0.1099  0.3378  0.3325
  938TIP3    H124229   1.445   5.829   1.787  1.2764  1.2126 -0.5154
  938TIP3    H224230   1.445   5.806   1.936 -2.1780  0.3299 -0.5830
  939TIP3   OH224231   4.925   2.548  13.735 -0.0069  0.0498  0.1731
  939TIP3    H124232   4.912   2.544  13.830 -0.5924  0.3966  0.1112
  939TIP3    H224233   4.896   2.636  13.711 -0.5898 -0.3000 -0.4310
  940TIP3   OH224234   6.723   3.820   1.588  0.2473  0.8114  0.0997
  940TIP3    H124235   6.641   3.773   1.573 -1.0315  2.2294  2.1620
  940TIP3    H224236   6.725   3.887   1.519 -0.5211  1.0067  0.2608
  941TIP3   OH224237   3.876   3.318  15.609  0.3836 -0.4651  0.1795
  941TIP3    H124238   3.793   3.365  15.608  1.2196  1.0775 -0.9959
  941TIP3    H224239   3.933   3.370  15.666  1.2930 -0.0181 -1.0727
  942TIP3   OH224240   1.240   1.508   2.118  0.2814  0.1249 -0.9187
  942TIP3    H124241   1.235   1.586   2.173  3.7662  1.7157 -2.5719
  942TIP3    H224242   1.294   1.534   2.044 -0.0757 -3.3387 -2.5897
  943TIP3   OH224243   1.035   0.984   0.491 -0.4527  0.3927  0.6134
  943TIP3    H124244   0.986   1.066   0.499  1.4935  1.8518 -1.1396
  943TIP3    H224245   1.061   0.981   0.399  0.8397 -1.4077  0.9883
  944TIP3   OH224246   5.262   2.970  12.530  0.1852 -0.0121 -0.0143
  944TIP3    H124247   5.192   2.971  12.595 -0.3254  2.4361 -0.5023
  944TIP3    H224248   5.342   2.983  12.581 -0.1563  1.3260  0.2097
  945TIP3   OH224249   0.646   2.566  17.225  0.4268 -0.4902  0.3895
  945TIP3    H124250   0.634   2.644  17.278 -0.8505 -1.3412  1.4149
  945TIP3    H224251   0.680   2.500  17.287  0.0711 -1.1611 -0.1204
  946TIP3   OH224252   4.683   0.774  15.195  0.4512 -0.3223  0.1895
  946TIP3    H124253   4.662   0.854  15.148 -1.3140 -0.9907 -0.2458
  946TIP3    H224254   4.769   0.748  15.160  1.6930  1.9881  1.2664
  947TIP3   OH224255   3.035   5.905  13.247  0.4006 -0.2501  0.5420
  947TIP3    H124256   3.037   5.990  13.202  0.0002 -0.6839 -0.3294
  947TIP3    H224257   2.997   5.846  13.182  2.0002 -1.3999  0.6146
  948TIP3   OH224258   2.244   0.053   0.188  0.0052 -0.6157  0.4354
  948TIP3    H124259   2.226   0.134   0.236  0.5500  1.2370 -2.2416
  948TIP3    H224260   2.339   0.040   0.197  0.2280  0.1387 -0.6458
  949TIP3   OH224261   0.164   5.840   1.052 -0.3056  0.3442  0.0709
  949TIP3    H124262   0.244   5.787   1.050 -0.2086  0.4943 -0.0381
  949TIP3    H224263   0.099   5.786   1.007 -0.1321  0.4361 -0.2947
  950TIP3   OH224264   2.593   0.529  14.190 -0.1208  0.3451 -0.0992
  950TIP3    H124265   2.578   0.440  14.160  0.8809  0.1068  0.0522
  950TIP3    H224266   2.611   0.579  14.110  2.2346 -0.2236  0.0018
  951TIP3   OH224267   5.644   4.780  10.581  0.4708  0.3752 -0.2485
  951TIP3    H124268   5.728   4.792  10.624  0.1616 -0.2124  0.5444
  951TIP3    H224269   5.623   4.867  10.545  0.8667  0.8156  0.5574
  952TIP3   OH224270   5.587   1.188   6.241 -0.1778  0.0001 -0.2769
  952TIP3    H124271   5.531   1.124   6.286  1.7379 -1.8670 -0.4184
  952TIP3    H224272   5.664   1.138   6.213  2.2051  2.6610  1.0171
  953TIP3   OH224273   4.696   5.772  17.007  0.2219 -0.2415  0.2551
  953TIP3    H124274   4.753   5.789  17.082  0.8878 -1.9631  0.1825
  953TIP3    H224275   4.651   5.856  16.992 -0.4682 -0.0297  2.9764
  954TIP3   OH224276   6.671   3.981  16.147 -0.5350  0.1734  0.1437
  954TIP3    H124277   6.642   4.004  16.059 -0.3684  1.1541  0.3386
  954TIP3    H224278   6.765   3.965  16.138 -0.6389 -0.4164  0.0220
  955TIP3   OH224279   1.401   0.561  13.899 -0.7285 -0.3481  0.1722
  955TIP3    H124280   1.441   0.620  13.964 -2.6657  0.1175  0.9944
  955TIP3    H224281   1.475   0.530  13.846  0.4780  2.2326  0.1896
  956TIP3   OH224282   2.982   1.170  14.156 -0.2863 -0.2883 -0.0880
  956TIP3    H124283   3.036   1.247  14.174 -0.0051 -0.6179  0.5289
  956TIP3    H224284   3.044   1.100  14.135 -0.5794 -0.1355 -1.5598
  957TIP3   OH224285   0.096   6.460  15.874 -0.3980  0.2206 -0.0883
  957TIP3    H124286   0.173   6.489  15.923  0.1180 -0.9925 -0.1530
  957TIP3    H224287   0.022   6.485  15.928 -0.1061  2.9817 -0.8065
  958TIP3   OH224288   2.244   4.067   5.439 -0.4812  0.1741 -0.1101
  958TIP3    H124289   2.338   4.057   5.448 -0.2988  0.0407 -1.8496
  958TIP3    H224290   2.225   4.151   5.483  0.1807 -0.4850  1.5355
  959TIP3   OH224291   1.892   6.178  14.402 -0.1267 -0.3305  0.1999
  959TIP3    H124292   1.906   6.246  14.336 -2.1409  1.7105  1.7024
  959TIP3    H224293   1.979   6.160  14.437  0.7185 -0.0672 -1.6745
  960TIP3   OH224294   6.384   3.023   3.979  0.0693 -0.2126 -0.3581
  960TIP3    H124295   6.432   3.098   3.943 -0.5131  1.0579  1.4060
  960TIP3    H224296   6.436   2.996   4.055 -0.3813 -0.8173 -0.2607
  961TIP3   OH224297   5.896   4.829  10.754 -0.2168  0.3374 -0.0181
  961TIP3    H124298   5.922   4.738  10.744 -0.8214  0.1131  0.3536
  961TIP3    H224299   5.927   4.873  10.675  0.2548 -0.1459 -0.1045
  962TIP3   OH224300   1.457   6.478  16.132 -0.1163 -0.0129  0.1459
  962TIP3    H124301   1.415   6.408  16.081 -1.1009  0.3281  0.4673
  962TIP3    H224302   1.543   6.489  16.091 -0.9356  0.3711 -1.5777
  963TIP3   OH224303   3.514   1.752   4.734  0.1767  0.1535  0.3026
  963TIP3    H124304   3.457   1.768   4.809 -0.8728  0.5332 -0.5576
  963TIP3    H224305   3.455   1.729   4.663  1.2190 -1.0875 -0.2027
  964TIP3   OH224306   1.599   5.521   2.279 -0.4500 -0.1100 -0.0149
  964TIP3    H124307   1.575   5.611   2.301 -0.4425 -0.4941  1.7365
  964TIP3    H224308   1.561   5.505   2.193 -0.6241  1.4946 -0.2520
  965TIP3   OH224309   5.460   5.358   0.720  0.5166  0.5388  0.2734
  965TIP3    H124310   5.448   5.276   0.767  1.8206  0.9414  1.3868
  965TIP3    H224311   5.503   5.333   0.638  0.6038  0.0817  0.4589
  966TIP3   OH224312   0.544   6.301  14.669 -0.1208 -0.7986  0.8733
  966TIP3    H124313   0.607   6.230  14.679  1.2230  0.1707 -0.2568
  966TIP3    H224314   0.459   6.259  14.673  0.6057 -2.9527 -2.4264
  967TIP3   OH224315   1.820   4.374  16.596  0.2074  1.0626 -0.0508
  967TIP3    H124316   1.749   4.360  16.659  1.2038  0.3202  0.9351
  967TIP3    H224317   1.840   4.468  16.604 -0.2401  1.1494  0.1050
  968TIP3   OH224318   1.657   0.575   0.825 -0.4684  0.0522 -0.1384
  968TIP3    H124319   1.703   0.655   0.850  0.0281 -0.6837  1.4557
  968TIP3    H224320   1.598   0.602   0.754 -0.9528  2.0017  0.9376
  969TIP3   OH224321   4.276   1.550   5.317 -0.1974  0.4095  0.2827
  969TIP3    H124322   4.305   1.597   5.395  0.5522 -0.1761  0.3626
  969TIP3    H224323   4.188   1.518   5.340 -0.4281  1.1677  0.4777
  970TIP3   OH224324   5.902   4.223   1.122 -0.5241 -0.2636 -0.5118
  970TIP3    H124325   5.854   4.287   1.069  0.5868 -0.1444 -1.4184
  970TIP3    H224326   5.889   4.140   1.075  1.9616  0.1387 -2.1035
  971TIP3   OH224327   4.334   3.023   2.611 -0.0277  0.1225  0.3029
  971TIP3    H124328   4.418   2.994   2.646  0.3314  0.5815 -0.1637
  971TIP3    H224329   4.348   3.115   2.589 -0.7508  0.2936  0.5221
  972TIP3   OH224330   2.274   3.211   2.337  0.8499 -0.3370 -0.6864
  972TIP3    H124331   2.254   3.169   2.421 -0.1856 -0.9876 -1.2386
  972TIP3    H224332   2.215   3.286   2.333  0.7398 -0.4333 -0.9155
  973TIP3   OH224333   0.264   0.981  16.125  0.0547 -0.1476 -0.5964
  973TIP3    H124334   0.261   1.073  16.151  0.0821 -0.4342  0.4770
  973TIP3    H224335   0.339   0.945  16.172  0.7497 -0.4618 -1.9181
  974TIP3   OH224336   5.805   3.751  15.433 -0.0930  1.1874 -0.3082
  974TIP3    H124337   5.815   3.725  15.524  0.7794 -2.7594 -1.3348
  974TIP3    H224338   5.892   3.778  15.405  0.6159 -1.4493 -0.8809
  975TIP3   OH224339   6.211   0.240   4.556  0.6454  0.0641 -0.5627
  975TIP3    H124340   6.222   0.251   4.462 -1.5019 -0.1376 -0.9029
  975TIP3    H224341   6.236   0.324   4.594  0.9969  0.3338 -1.3769
  976TIP3   OH224342   4.174   4.511   1.998 -0.0151  0.1643 -0.1127
  976TIP3    H124343   4.246   4.481   2.054 -0.2885 -0.4659 -0.0846
  976TIP3    H224344   4.108   4.442   2.007  0.3618 -0.5047 -2.0553
  977TIP3   OH224345   5.609   0.008   4.965 -0.0421  0.1698 -0.0065
  977TIP3    H124346   5.516   0.025   4.979 -0.4287  0.0180 -2.0319
  977TIP3    H224347   5.619  -0.086   4.982 -0.8504 -0.3795 -2.1887
  978TIP3   OH224348   2.413   6.747   2.406 -0.5302 -0.6030  0.0534
  978TIP3    H124349   2.408   6.813   2.336  1.3594 -0.0474  0.3849
  978TIP3    H224350   2.441   6.667   2.361 -0.7851 -0.6404 -0.0408
  979TIP3   OH224351   4.903   2.193  16.510 -0.6896  0.2504  0.3202
  979TIP3    H124352   4.930   2.103  16.495 -1.2824  0.0922  0.1733
  979TIP3    H224353   4.837   2.187  16.579 -1.0622  0.5203 -0.0073
  980TIP3   OH224354   4.802   2.562   4.175  0.4038 -0.0316  0.9452
  980TIP3    H124355   4.862   2.552   4.248  0.8317  0.2178  0.6300
  980TIP3    H224356   4.732   2.617   4.209  1.1302  0.9695  0.8609
  981TIP3   OH224357   1.877   2.816   2.407 -0.1575 -0.0130 -0.0064
  981TIP3    H124358   1.808   2.798   2.471  0.2607 -1.4631  0.0700
  981TIP3    H224359   1.949   2.759   2.433  1.6541  2.4424  0.7509
  982TIP3   OH224360   3.409   3.760  14.455 -0.2983  0.6256 -0.2422
  982TIP3    H124361   3.425   3.855  14.455 -5.7550  1.8639 -1.2948
  982TIP3    H224362   3.351   3.745  14.529  0.9330 -2.1776  0.2969
  983TIP3   OH224363   5.241   0.416   5.957  0.3949 -0.1470  0.1828
  983TIP3    H124364   5.324   0.419   6.005  0.7330  0.3525 -0.4140
  983TIP3    H224365   5.207   0.329   5.974  1.0807 -0.3897  0.3770
  984TIP3   OH224366   0.154   2.422   2.538 -0.0475  0.2866  0.0393
  984TIP3    H124367   0.210   2.424   2.461 -1.5884 -1.1162 -1.2110
  984TIP3    H224368   0.119   2.332   2.539 -3.7324  1.5440 -0.4521
  985TIP3   OH224369   1.048   5.307  13.028  0.6244  0.2233  0.5789
  985TIP3    H124370   1.122   5.329  12.971 -0.7039  1.4217 -0.7676
  985TIP3    H224371   1.041   5.382  13.088  0.7482 -0.0784  0.9729
  986TIP3   OH224372   4.148   6.355  11.872  0.0773  0.8649 -0.6832
  986TIP3    H124373   4.107   6.439  11.853  0.1979  0.8869 -0.8422
  986TIP3    H224374   4.130   6.300  11.796  0.7486  1.0253 -0.9637
  987TIP3   OH224375   5.042   6.347  14.150 -0.1203  0.1803  0.4170
  987TIP3    H124376   5.035   6.354  14.055  1.7325 -2.5684 -0.0528
  987TIP3    H224377   5.134   6.360  14.168 -0.0746 -1.3932  1.5391
  988TIP3   OH224378   4.242   3.385   6.416 -0.1394 -0.3376 -0.2924
  988TIP3    H124379   4.243   3.306   6.362 -0.1590 -0.3059 -0.3393
  988TIP3    H224380   4.169   3.373   6.476 -1.0035  0.2555 -1.2073
  989TIP3   OH224381   3.560   3.097   5.844 -0.1471 -0.1188  0.1594
  989TIP3    H124382   3.576   3.004   5.826 -0.9287 -0.0665 -0.8760
  989TIP3    H224383   3.509   3.127   5.769  0.5716  1.2846  0.2134
  990TIP3   OH224384   6.694   0.442  17.302  0.4159  0.4295  1.0620
  990TIP3    H124385   6.775   0.402  17.270  0.9515  2.0826  0.2577
  990TIP3    H224386   6.678   0.401  17.387  1.4279 -0.7907  0.6873
  991TIP3   OH224387   5.883   3.320  12.470 -0.7989  0.6478 -0.4373
  991TIP3    H124388   5.962   3.352  12.515 -0.7271 -0.3911  0.2162
  991TIP3    H224389   5.869   3.233  12.506 -3.0427  1.3044  0.4540
  992TIP3   OH224390   1.620   6.723  12.578 -0.6975 -0.1409  0.6843
  992TIP3    H124391   1.588   6.720  12.668  0.1140 -0.0120  0.9931
  992TIP3    H224392   1.542   6.736  12.524 -1.4355 -2.0084  1.2149
  993TIP3   OH224393   2.317   5.235   2.472  0.3602  0.5867 -0.0919
  993TIP3    H124394   2.222   5.250   2.472  0.3380  0.4429 -0.4998
  993TIP3    H224395   2.355   5.322   2.484  0.1771  0.6225  0.2580
  994TIP3   OH224396   3.492   1.788  12.276  0.0322 -0.3107  0.3511
  994TIP3    H124397   3.582   1.788  12.308 -0.1109  0.1150  0.7470
  994TIP3    H224398   3.475   1.878  12.251  0.3139 -0.7051 -1.4399
  995TIP3   OH224399   2.419   4.653  13.799 -0.2826 -0.3373  0.1538
  995TIP3    H124400   2.446   4.653  13.707 -1.2965  0.9210 -0.1716
  995TIP3    H224401   2.377   4.568  13.811 -2.4230  0.4270 -1.2968
  996TIP3   OH224402   5.683   4.549   5.687 -0.7302 -0.3345  0.0640
  996TIP3    H124403   5.648   4.610   5.753 -0.4650 -0.7996  0.6446
  996TIP3    H224404   5.617   4.480   5.682 -0.9990 -0.0400 -0.5461
  997TIP3   OH224405   5.833   3.859  11.556 -0.2285 -0.1888 -0.1122
  997TIP3    H124406   5.909   3.918  11.557 -2.1455  2.4707 -0.4343
  997TIP3    H224407   5.845   3.805  11.634  1.2538  1.1827  0.7019
  998TIP3   OH224408   1.536   5.095   2.495 -0.0330  0.4251 -0.0481
  998TIP3    H124409   1.585   5.079   2.575 -0.0384  0.2508 -0.0791
  998TIP3    H224410   1.492   5.012   2.476 -1.1947  0.8808  0.5556
  999TIP3   OH224411   2.449   0.730  15.390 -0.1297  0.4796 -0.5017
  999TIP3    H124412   2.533   0.714  15.347 -0.1156  2.1966 -1.1992
  999TIP3    H224413   2.462   0.699  15.480  0.8200 -0.4415 -0.9339
 1000TIP3   OH224414   1.814   3.368   1.875 -0.1170 -0.5907  0.7034
 1000TIP3    H124415   1.784   3.295   1.929 -0.8864 -0.8684 -0.0803
 1000TIP3    H224416   1.749   3.374   1.805  1.6030 -1.1379 -1.0086
 1001TIP3   OH224417   2.116   4.497  16.336  0.4641  0.1738  0.0838
 1001TIP3    H124418   2.189   4.444  16.304 -0.4488 -0.5359 -0.8798
 1001TIP3    H224419   2.143   4.523  16.424  1.3797 -1.0498  0.2007
 1002TIP3   OH224420   1.614   0.287  13.625  0.2571 -0.0911 -0.0548
 1002TIP3    H124421   1.693   0.318  13.669 -0.1599  0.8967  0.0228
 1002TIP3    H224422   1.638   0.282  13.533  0.0733  1.4284 -0.2176
 1003TIP3   OH224423   5.294   5.849  13.371  0.0634 -0.0838 -0.0077
 1003TIP3    H124424   5.270   5.924  13.317  1.6449  1.2228  0.9931
 1003TIP3    H224425   5.266   5.873  13.460  3.2603  0.7961  0.9017
 1004TIP3   OH224426   0.873   0.349  13.577 -0.4515 -0.3778 -0.1676
 1004TIP3    H124427   0.823   0.270  13.601  0.3260 -1.0331 -0.6519
 1004TIP3    H224428   0.823   0.388  13.505 -2.1527  0.9424  1.6171
 1005TIP3   OH224429   3.969   4.092  12.313  0.5928  0.2421  0.0514
 1005TIP3    H124430   3.939   4.009  12.277  2.3619 -0.3677 -0.1297
 1005TIP3    H224431   3.889   4.137  12.340 -0.6145 -0.3953 -2.1899
 1006TIP3   OH224432   2.609   3.232  17.153  0.0438  0.2392  0.1131
 1006TIP3    H124433   2.602   3.299  17.085 -0.5769 -0.1575 -0.2235
 1006TIP3    H224434   2.560   3.268  17.227 -2.0467 -0.6454 -0.7404
 1007TIP3   OH224435   5.573   5.204  16.926 -0.5218  0.0004 -0.2533
 1007TIP3    H124436   5.535   5.117  16.929 -0.9739  0.1705  2.9969
 1007TIP3    H224437   5.500   5.263  16.944  0.0103  0.9551 -1.1334
 1008TIP3   OH224438   1.655   3.699   1.341 -0.0689 -0.1538 -0.8698
 1008TIP3    H124439   1.605   3.630   1.298 -0.0874 -0.6725 -0.0475
 1008TIP3    H224440   1.698   3.746   1.270 -0.3928 -0.7526 -1.4733
 1009TIP3   OH224441   5.755   2.208  17.168 -0.5012 -0.2747 -0.2627
 1009TIP3    H124442   5.748   2.272  17.097 -0.1019 -2.2481 -2.1983
 1009TIP3    H224443   5.823   2.244  17.226  1.0908  0.1972 -2.3019
 1010TIP3   OH224444   1.876   4.637  16.617 -0.2941  0.5726  0.3411
 1010TIP3    H124445   1.941   4.701  16.647  0.9379 -0.9210  0.9435
 1010TIP3    H224446   1.793   4.686  16.617  0.7337  2.4167 -0.0836
 1011TIP3   OH224447   6.669   1.729   4.788  0.0746 -0.0838  0.0768
 1011TIP3    H124448   6.625   1.678   4.719  0.0075 -0.9606  0.7397
 1011TIP3    H224449   6.657   1.820   4.762 -1.0933 -0.3469 -0.3979
 1012TIP3   OH224450   6.428   2.957  14.129 -0.2523 -0.2471 -0.6973
 1012TIP3    H124451   6.407   2.972  14.036  0.7346  1.3398 -0.6920
 1012TIP3    H224452   6.523   2.949  14.132 -0.1061  1.3703  0.3535
 1013TIP3   OH224453   4.480   3.725  12.925  0.0463  0.2106 -0.2938
 1013TIP3    H124454   4.488   3.734  12.830 -0.0406 -0.2525 -0.3463
 1013TIP3    H224455   4.426   3.799  12.952  1.3476  1.2319 -0.4037
 1014TIP3   OH224456   5.151   6.576   0.061 -0.5064  0.4380 -0.3432
 1014TIP3    H124457   5.201   6.592   0.142 -1.3225 -1.4123  0.5722
 1014TIP3    H224458   5.061   6.601   0.083 -0.9312 -1.0356 -0.3169
 1015TIP3   OH224459   1.292   4.864   4.292  0.2108 -0.2006 -0.3793
 1015TIP3    H124460   1.254   4.899   4.373 -0.5359  0.5588 -1.0463
 1015TIP3    H224461   1.309   4.942   4.238  2.5684 -0.5035 -0.1941
 1016TIP3   OH224462   1.500   0.226  13.186 -0.3674  0.3096  0.6050
 1016TIP3    H124463   1.406   0.228  13.202 -1.0379 -0.5539 -2.5572
 1016TIP3    H224464   1.519   0.307  13.139  0.0681 -0.2982 -0.3195
 1017TIP3   OH224465   2.845   3.103   4.619  0.3147 -0.2372  0.2228
 1017TIP3    H124466   2.838   3.056   4.702 -0.3713  0.9674  0.8674
 1017TIP3    H224467   2.933   3.083   4.588  0.6057 -0.6691  1.2674
 1018TIP3   OH224468   1.500   6.162   5.366  0.8114 -0.5717 -0.1610
 1018TIP3    H124469   1.505   6.082   5.418  0.6133 -0.2621  0.3430
 1018TIP3    H224470   1.436   6.217   5.412  1.5725  0.2265 -0.0202
 1019TIP3   OH224471   3.608   0.336  11.500  0.2058  0.1000 -0.2082
 1019TIP3    H124472   3.617   0.251  11.458  0.6730 -1.5308  2.9055
 1019TIP3    H224473   3.514   0.356  11.496  0.1016 -0.5258 -0.9945
 1020TIP3   OH224474   4.525   0.175   4.149  0.7048 -0.4996 -0.0794
 1020TIP3    H124475   4.445   0.222   4.170  0.8221  0.6417 -1.9161
 1020TIP3    H224476   4.559   0.146   4.233 -1.2990 -0.4762  0.7906
 1021TIP3   OH224477   6.561   5.070  11.890 -0.2372  0.5067  0.2119
 1021TIP3    H124478   6.526   5.041  11.807  0.2710  0.6736 -0.0698
 1021TIP3    H224479   6.487   5.070  11.950 -0.6404  0.5419 -0.2837
 1022TIP3   OH224480   3.491   0.464   4.216  0.2362 -0.1526  0.2038
 1022TIP3    H124481   3.543   0.417   4.150  0.4573 -1.5784  1.3341
 1022TIP3    H224482   3.555   0.493   4.281  0.0314  1.2980 -0.2175
 1023TIP3   OH224483   0.458   1.890   4.709  0.2811  0.6443  0.2049
 1023TIP3    H124484   0.479   1.815   4.765  1.4249  0.4196 -0.4809
 1023TIP3    H224485   0.426   1.957   4.769 -2.6505 -0.9776  0.6366
 1024TIP3   OH224486   3.804   5.874  16.663  0.3109  0.1993 -0.1990
 1024TIP3    H124487   3.859   5.924  16.603  1.0801 -0.4094 -0.0274
 1024TIP3    H224488   3.718   5.871  16.621 -0.0043  2.3694  0.1950
 1025TIP3   OH224489   1.802   5.031  11.674 -0.0359 -0.0118  0.5749
 1025TIP3    H124490   1.891   5.058  11.695 -0.4320  1.2410  0.7445
 1025TIP3    H224491   1.751   5.112  11.680 -1.3058 -0.8353  1.1970
 1026TIP3   OH224492   2.658   1.037  13.353  0.0929 -0.1763 -0.1670
 1026TIP3    H124493   2.575   0.989  13.351  1.1749 -2.1410 -0.1925
 1026TIP3    H224494   2.660   1.078  13.440 -1.6882  1.4850 -0.8185
 1027TIP3   OH224495   4.674   1.386   1.540  0.3046 -0.5071  0.1866
 1027TIP3    H124496   4.700   1.298   1.513  1.9852  0.5495 -1.8790
 1027TIP3    H224497   4.591   1.373   1.586  1.0691 -3.2668  0.9613
 1028TIP3   OH224498   1.779   3.922  11.940 -0.3916 -0.0848  0.6860
 1028TIP3    H124499   1.712   3.989  11.955 -0.3948 -0.4700  2.6559
 1028TIP3    H224500   1.862   3.969  11.946 -0.4104 -0.1403  1.4779
 1029TIP3   OH224501   0.625   3.535   1.978  0.1608  0.2330 -0.2703
 1029TIP3    H124502   0.558   3.528   2.045  0.7571  0.4143  0.3642
 1029TIP3    H224503   0.699   3.577   2.023  0.7284 -0.0493 -0.9157
 1030TIP3   OH224504   2.940   4.461   5.647 -0.4156 -0.2280  0.0220
 1030TIP3    H124505   2.858   4.422   5.676 -0.5719  0.4206  0.4617
 1030TIP3    H224506   2.953   4.536   5.705 -0.1489  0.4210 -0.8705
 1031TIP3   OH224507   3.734   4.756  12.068 -0.0057  0.2849 -0.0905
 1031TIP3    H124508   3.828   4.773  12.064 -0.1604  1.1290 -0.3716
 1031TIP3    H224509   3.726   4.662  12.051  0.6903  0.4518 -1.5186
 1032TIP3   OH224510   5.221   0.221  14.044 -0.1100  0.2192 -0.2100
 1032TIP3    H124511   5.232   0.145  13.987 -0.1377  1.4131 -1.8896
 1032TIP3    H224512   5.126   0.230  14.054 -0.1001 -1.2400  1.8750
 1033TIP3   OH224513   3.276   2.398  11.796  0.0664 -0.2803 -0.2806
 1033TIP3    H124514   3.342   2.340  11.833 -0.6999  0.5030  2.5903
 1033TIP3    H224515   3.203   2.340  11.773  0.4949 -0.7838 -0.3689
 1034TIP3   OH224516   5.249   5.271   5.439  0.0714 -0.0155  0.0026
 1034TIP3    H124517   5.331   5.305   5.402  0.4658 -2.0632 -1.1538
 1034TIP3    H224518   5.192   5.348   5.443  0.8983  0.8489 -2.4783
 1035TIP3   OH224519   4.748   1.822   4.231  0.7687  0.7823  0.0116
 1035TIP3    H124520   4.733   1.730   4.252 -0.5635 -0.4370 -5.0558
 1035TIP3    H224521   4.808   1.821   4.157  0.8071  4.0322 -0.1466
 1036TIP3   OH224522   1.542   0.822  16.965 -0.9418  0.5776  0.7444
 1036TIP3    H124523   1.515   0.830  17.057 -2.0449 -0.5552  0.5441
 1036TIP3    H224524   1.637   0.811  16.969 -1.0897 -0.5843  1.8558
 1037TIP3   OH224525   0.644   0.264   1.393 -0.0652  0.3038  0.1775
 1037TIP3    H124526   0.716   0.211   1.427 -1.3341 -0.7579  1.3745
 1037TIP3    H224527   0.645   0.343   1.447  0.1823  0.2694  0.2249
 1038TIP3   OH224528   1.222   0.750   3.534  0.1600  0.1644 -0.3950
 1038TIP3    H124529   1.166   0.827   3.531  0.8200  0.6166 -1.6214
 1038TIP3    H224530   1.310   0.785   3.545  0.2012 -0.5594  2.5861
 1039TIP3   OH224531   2.541   6.314   3.326 -0.2688  0.4640  0.0847
 1039TIP3    H124532   2.603   6.266   3.272  1.5301  2.0466  0.6494
 1039TIP3    H224533   2.552   6.278   3.414  0.3375  1.2004  0.3125
 1040TIP3   OH224534   5.748   3.430  15.813  0.2764 -0.3578  0.0631
 1040TIP3    H124535   5.717   3.398  15.898 -0.5772 -1.7326 -0.7381
 1040TIP3    H224536   5.758   3.352  15.759  1.3640  0.4422 -0.9420
 1041TIP3   OH224537   5.545   2.565   5.067 -0.1008  0.0118  0.0557
 1041TIP3    H124538   5.499   2.485   5.042 -2.3309  1.5599 -1.1545
 1041TIP3    H224539   5.522   2.578   5.159  0.4449 -0.7887  0.3229
 1042TIP3   OH224540   1.986   6.507   3.063 -0.1237 -0.0113 -0.3962
 1042TIP3    H124541   2.069   6.547   3.038 -0.1249  0.0623 -0.2845
 1042TIP3    H224542   2.011   6.432   3.117 -0.1527  0.8369  0.8453
 1043TIP3   OH224543   4.306   4.047  16.311 -0.1242 -0.7254 -0.3116
 1043TIP3    H124544   4.265   4.013  16.390  0.8995  0.1506  0.6371
 1043TIP3    H224545   4.235   4.089  16.263 -0.3712  0.9220  1.3772
 1044TIP3   OH224546   5.252   2.341   0.664  0.5792 -0.1364  0.0783
 1044TIP3    H124547   5.225   2.430   0.643  1.6610  0.3732  0.7050
 1044TIP3    H224548   5.332   2.328   0.612 -0.1934 -1.1777 -0.8886
 1045TIP3   OH224549   0.265   0.809   1.692  0.6561  0.5821 -0.0924
 1045TIP3    H124550   0.267   0.843   1.602 -0.3328 -0.3481 -0.4961
 1045TIP3    H224551   0.176   0.829   1.722  1.0419  1.0510  0.7540
 1046TIP3   OH224552   2.202   1.675  16.220 -0.1582  0.0979 -0.1915
 1046TIP3    H124553   2.156   1.609  16.169  0.1299 -1.9994  2.1161
 1046TIP3    H224554   2.137   1.744  16.235 -2.0856 -1.9307  1.4307
 1047TIP3   OH224555   1.629   3.404  12.625  0.3320  0.0621 -0.7489
 1047TIP3    H124556   1.638   3.336  12.691 -1.5584  0.9823  0.5314
 1047TIP3    H224557   1.681   3.373  12.551  2.6530 -0.9325  1.1823
 1048TIP3   OH224558   3.303   2.484   6.458 -0.0528 -0.2221 -0.0944
 1048TIP3    H124559   3.366   2.464   6.526 -0.0757 -0.0744 -0.0278
 1048TIP3    H224560   3.235   2.534   6.503  0.9436  1.6903 -0.6044
 1049TIP3   OH224561   4.669   0.641   1.889  0.4304  0.2219  0.4254
 1049TIP3    H124562   4.626   0.650   1.804  0.2650  1.3498  0.6105
 1049TIP3    H224563   4.762   0.659   1.871  0.0532  3.0456  0.8510
 1050TIP3   OH224564   4.449   5.845   3.305 -0.8232 -0.1890  0.3961
 1050TIP3    H124565   4.460   5.766   3.253 -0.1403 -0.4480  0.9160
 1050TIP3    H224566   4.410   5.909   3.245 -1.0872 -0.8225 -0.1110
 1051TIP3   OH224567   5.494   6.121   2.759 -0.3129  0.0800 -0.3659
 1051TIP3    H124568   5.500   6.216   2.749 -1.4119  0.2082  0.1142
 1051TIP3    H224569   5.409   6.098   2.723 -0.3245 -0.6378  0.1044
 1052TIP3   OH224570   6.361   1.593   0.867  0.2597 -0.3511 -0.1422
 1052TIP3    H124571   6.428   1.637   0.814 -0.3935 -0.8493 -1.4311
 1052TIP3    H224572   6.404   1.574   0.950  0.7291  2.2215  0.2676
 1053TIP3   OH224573   0.860   3.879  16.251 -0.5889  0.5984 -0.2486
 1053TIP3    H124574   0.790   3.926  16.205 -0.3379  2.4031  1.0917
 1053TIP3    H224575   0.929   3.871  16.186 -0.6519  2.1252 -0.5472
 1054TIP3   OH224576   1.876   4.482  14.373 -0.0522 -0.0358  0.0849
 1054TIP3    H124577   1.872   4.551  14.307  0.9277  0.9616  1.0383
 1054TIP3    H224578   1.790   4.483  14.415  0.1007  0.9321  0.3946
 1055TIP3   OH224579   3.706   5.074  17.267 -0.5469 -0.9207  0.0975
 1055TIP3    H124580   3.775   5.083  17.201  0.6214  0.5319  1.4621
 1055TIP3    H224581   3.689   4.980  17.271  1.7649 -1.3816  0.1402
 1056TIP3   OH224582   4.922   3.298  13.608 -0.0847  0.0306  0.0256
 1056TIP3    H124583   4.863   3.366  13.642  1.6222  1.5018  0.1967
 1056TIP3    H224584   4.864   3.224  13.590 -1.9942  1.3937  0.1371
 1057TIP3   OH224585   3.764   3.171  15.855 -0.0826  0.1959  0.3750
 1057TIP3    H124586   3.753   3.132  15.768 -0.4757  0.2216  0.4108
 1057TIP3    H224587   3.681   3.213  15.873  0.3321  1.0419  0.3510
 1058TIP3   OH224588   6.509   1.406  15.517  0.6584 -0.0057 -0.5550
 1058TIP3    H124589   6.423   1.440  15.540  0.3715 -1.0818  0.0064
 1058TIP3    H224590   6.566   1.483  15.516  0.6949  0.2708  3.6723
 1059TIP3   OH224591   6.313   6.218  13.413 -0.5574 -0.1944 -0.7196
 1059TIP3    H124592   6.316   6.180  13.325  0.5188  3.3274 -2.3983
 1059TIP3    H224593   6.399   6.260  13.423  0.0865 -1.9645  2.8691
 1060TIP3   OH224594   1.149   4.768  11.182 -0.3634  0.6872  0.0589
 1060TIP3    H124595   1.097   4.793  11.259 -0.3393 -0.5675  0.5047
 1060TIP3    H224596   1.200   4.847  11.161  1.9566  0.2270  3.2330
 1061TIP3   OH224597   1.632   5.727  15.578 -0.6682 -0.3559  0.3442
 1061TIP3    H124598   1.705   5.695  15.631 -1.0876  0.7377  1.6414
 1061TIP3    H224599   1.577   5.651  15.564  0.9021 -1.2968 -1.0078
 1062TIP3   OH224600   2.334   3.895   4.275  0.4176  0.3283  0.1873
 1062TIP3    H124601   2.322   3.965   4.339  0.7073  0.0955  0.4967
 1062TIP3    H224602   2.314   3.937   4.191  2.5725  1.3492  0.1350
 1063TIP3   OH224603   0.999   0.621  13.866  0.2167  0.2348 -0.8179
 1063TIP3    H124604   0.995   0.528  13.888  1.4725  0.5330  0.8660
 1063TIP3    H224605   1.010   0.622  13.771  0.4606 -1.3491 -0.8434
 1064TIP3   OH224606   0.340   6.455   3.955  0.0510 -0.2685  0.4352
 1064TIP3    H124607   0.253   6.489   3.936  0.5925  1.5021  0.8579
 1064TIP3    H224608   0.381   6.525   4.006  1.8576 -0.8933 -0.1045
 1065TIP3   OH224609   5.732   0.224  13.440  0.0744  0.3630  0.0130
 1065TIP3    H124610   5.650   0.182  13.467  0.7286  0.5930  2.6254
 1065TIP3    H224611   5.792   0.151  13.422  0.7749  0.0432  3.1337
 1066TIP3   OH224612   6.585   0.395   3.767 -0.1073 -0.5468  0.2774
 1066TIP3    H124613   6.621   0.421   3.853  1.8405  1.9413 -1.1421
 1066TIP3    H224614   6.502   0.441   3.761  0.8692  1.2370 -0.0788
 1067TIP3   OH224615   3.026   4.524   6.070 -0.1002  0.0498 -0.0676
 1067TIP3    H124616   2.954   4.461   6.071  0.3359 -0.4422  0.6395
 1067TIP3    H224617   3.014   4.576   6.150  1.0896 -0.9138  0.7698
 1068TIP3   OH224618   1.175   3.648  11.421 -0.2474  0.3738  0.3912
 1068TIP3    H124619   1.087   3.630  11.387 -1.2565  2.4712  1.6890
 1068TIP3    H224620   1.195   3.736  11.391  1.0417  0.2541  0.8429
 1069TIP3   OH224621   6.302   2.954  13.869 -0.3633  0.0921  0.0012
 1069TIP3    H124622   6.332   2.863  13.860  0.6011  0.0934  2.4330
 1069TIP3    H224623   6.363   3.005  13.815 -1.3352 -0.7183 -1.9409
 1070TIP3   OH224624   4.581   2.125   0.555 -0.3797 -0.3716  0.3772
 1070TIP3    H124625   4.641   2.110   0.628  2.6489  0.4910 -1.7397
 1070TIP3    H224626   4.562   2.038   0.521 -1.3785 -0.7421  1.7907
 1071TIP3   OH224627   5.286   2.840  11.127  0.4475 -0.3834  0.3638
 1071TIP3    H124628   5.278   2.916  11.185  0.9837 -0.3610  0.4203
 1071TIP3    H224629   5.379   2.815  11.134 -0.0625 -2.0993  1.6881
 1072TIP3   OH224630   3.449   5.730   3.970 -0.2318 -0.1164 -0.3392
 1072TIP3    H124631   3.449   5.799   3.904 -0.1916  0.6464  0.4331
 1072TIP3    H224632   3.356   5.713   3.987 -0.2853  1.2081  0.9141
 1073TIP3   OH224633   0.427   5.702   4.362  0.0983 -0.4362  0.1545
 1073TIP3    H124634   0.417   5.788   4.322 -0.9030 -0.6939 -0.1642
 1073TIP3    H224635   0.452   5.721   4.453 -0.6962  0.1997  0.2503
 1074TIP3   OH224636   1.766   2.422   6.020 -0.0782  0.0554  0.4442
 1074TIP3    H124637   1.696   2.378   5.972  0.2872 -0.5600  0.4656
 1074TIP3    H224638   1.728   2.439   6.106  0.2164 -1.4908  0.9123
 1075TIP3   OH224639   0.227   1.652  12.445 -0.2103 -0.2891  0.0445
 1075TIP3    H124640   0.150   1.649  12.502 -0.4790 -0.1057 -0.3089
 1075TIP3    H224641   0.202   1.601  12.368 -0.4029  0.7290 -0.5824
 1076TIP3   OH224642   4.101   0.309   4.827  0.2144  0.2423  0.0607
 1076TIP3    H124643   4.076   0.282   4.739 -0.2089  1.6361 -0.2734
 1076TIP3    H224644   4.152   0.389   4.815  1.6751 -0.4990  0.9899
 1077TIP3   OH224645   0.235   0.574   3.381 -0.2745  0.5359  0.4336
 1077TIP3    H124646   0.300   0.520   3.336  0.2353  0.8550  0.7775
 1077TIP3    H224647   0.182   0.612   3.311  0.4819  0.9898  0.1057
 1078TIP3   OH224648   3.586   1.841   0.430 -0.3501 -0.6441  0.1981
 1078TIP3    H124649   3.619   1.752   0.447 -0.3618 -0.3853  1.7551
 1078TIP3    H224650   3.512   1.851   0.490 -1.5077 -0.1946 -1.2436
 1079TIP3   OH224651   1.900   1.496   5.883  0.2041 -0.2953  0.6693
 1079TIP3    H124652   1.904   1.426   5.948  0.5978 -0.5086  0.4189
 1079TIP3    H224653   1.951   1.568   5.921  2.2225 -1.1699 -0.2989
 1080TIP3   OH224654   2.754   0.217   4.667  0.1530  0.1167 -0.3011
 1080TIP3    H124655   2.673   0.231   4.618  0.5822  1.3208 -0.6969
 1080TIP3    H224656   2.735   0.250   4.755  0.7174  2.0379 -0.8519
 1081TIP3   OH224657   6.066   4.075   1.861  0.0762  1.2072 -0.0822
 1081TIP3    H124658   6.032   4.075   1.772  0.1913  0.0879 -0.1362
 1081TIP3    H224659   6.158   4.050   1.851  0.0953  1.1027  0.3469
 1082TIP3   OH224660   4.306   1.794   5.850  0.0665 -0.1807 -0.2660
 1082TIP3    H124661   4.375   1.756   5.795 -0.0957 -1.3463  0.3012
 1082TIP3    H224662   4.353   1.843   5.917  0.3699 -1.1147  0.2221
 1083TIP3   OH224663   4.763   6.599   0.090  0.0021 -0.5453  0.0279
 1083TIP3    H124664   4.830   6.600   0.159 -1.5164 -1.3284  1.5877
 1083TIP3    H224665   4.774   6.513   0.048 -0.8323 -1.2429  1.1714
 1084TIP3   OH224666   2.499   5.919  13.354  0.0205 -0.3425 -0.1318
 1084TIP3    H124667   2.514   5.896  13.445 -2.6966 -1.8670  0.0455
 1084TIP3    H224668   2.574   5.974  13.330  0.9585 -0.1164  2.9002
 1085TIP3   OH224669   4.425   6.363   5.170  0.2572 -0.0625  0.1161
 1085TIP3    H124670   4.414   6.400   5.258  1.0014 -1.5385  0.8825
 1085TIP3    H224671   4.485   6.422   5.126 -0.1740  0.7321  0.5672
 1086TIP3   OH224672   4.193   1.139   0.316 -0.2806  0.0837 -0.8390
 1086TIP3    H124673   4.180   1.233   0.303  0.3572  0.1794 -0.8540
 1086TIP3    H224674   4.286   1.125   0.295  0.1759 -0.1778  1.2136
 1087TIP3   OH224675   2.797   5.531   5.112  0.2266  0.7176  0.2393
 1087TIP3    H124676   2.702   5.526   5.100  0.1024 -0.0500  1.3903
 1087TIP3    H224677   2.832   5.470   5.048 -0.0623  0.9613 -0.1544
 1088TIP3   OH224678   2.775   3.049   1.539  0.9083  0.3373 -0.2905
 1088TIP3    H124679   2.798   2.956   1.539 -0.7391 -0.1039  0.3637
 1088TIP3    H224680   2.769   3.072   1.631  0.4626  0.8724 -0.4493
 1089TIP3   OH224681   5.628   0.454  12.045 -0.1070 -0.0199 -0.1843
 1089TIP3    H124682   5.644   0.362  12.069  0.2417  0.2609  0.7189
 1089TIP3    H224683   5.711   0.497  12.064 -0.6551  0.7120  0.6051
 1090TIP3   OH224684   0.732   4.140  13.472 -0.3707 -0.0888  0.4244
 1090TIP3    H124685   0.728   4.052  13.434 -0.8167 -0.0892  0.4700
 1090TIP3    H224686   0.796   4.186  13.417  0.2290 -0.5821  0.7022
 1091TIP3   OH224687   6.731   4.906  11.082  0.5384 -0.3866  0.2626
 1091TIP3    H124688   6.754   4.845  11.012 -0.2073 -0.8298  0.3901
 1091TIP3    H224689   6.636   4.899  11.090  0.5351  0.1760  0.8518
 1092TIP3   OH224690   0.969   5.876  13.882 -0.3013  0.0914  0.0878
 1092TIP3    H124691   0.940   5.873  13.791 -3.7569  0.7646  1.0279
 1092TIP3    H224692   0.946   5.964  13.912  1.9918  0.3564  1.3216
 1093TIP3   OH224693   4.240   1.290  12.043 -0.9946 -0.0993  0.3403
 1093TIP3    H124694   4.242   1.308  12.137 -1.7393  1.3150  0.1193
 1093TIP3    H224695   4.332   1.295  12.016 -0.7320 -0.8693  1.0362
 1094TIP3   OH224696   4.628   2.610  12.438 -0.0501 -0.0194 -0.5621
 1094TIP3    H124697   4.572   2.625  12.362  0.2161  0.1702 -0.7237
 1094TIP3    H224698   4.706   2.662  12.420 -0.2242  0.4969  0.1063
 1095TIP3   OH224699   4.731   2.951  15.249 -0.3125 -0.3602 -0.3617
 1095TIP3    H124700   4.669   2.978  15.316  1.8495  1.3841  1.0997
 1095TIP3    H224701   4.753   3.032  15.202  0.2692 -1.0636 -1.3396
 1096TIP3   OH224702   5.992   3.883   0.608  1.3732 -0.6356  0.1704
 1096TIP3    H124703   5.974   3.851   0.519  0.4440  1.8218 -0.6378
 1096TIP3    H224704   6.086   3.868   0.620  1.3412 -1.8293 -0.8615
 1097TIP3   OH224705   6.561   4.884  11.663 -0.0574 -0.2012  0.2547
 1097TIP3    H124706   6.650   4.850  11.664 -0.2898 -0.8315  1.6426
 1097TIP3    H224707   6.545   4.908  11.572  0.8411 -1.9249 -0.3906
 1098TIP3   OH224708   0.513   5.992  15.303  0.4208 -0.2770  0.4648
 1098TIP3    H124709   0.556   6.049  15.238  0.8061  0.2391  1.1630
 1098TIP3    H224710   0.546   5.905  15.283 -0.9644 -0.4600 -1.2877
 1099TIP3   OH224711   0.253   6.494  12.748 -0.4332  0.5568  0.0043
 1099TIP3    H124712   0.198   6.492  12.670  0.5350  1.4523 -0.7431
 1099TIP3    H224713   0.234   6.579  12.788  0.5305  0.9901 -0.4004
 1100TIP3   OH224714   0.598   2.706   0.523  0.2528  1.1342  0.5008
 1100TIP3    H124715   0.577   2.748   0.606 -0.0889  0.8435  0.5642
 1100TIP3    H224716   0.513   2.683   0.485  0.4145  1.0167  0.2007
 1101TIP3   OH224717   3.545   4.986   2.820 -0.4080 -1.0347 -0.3012
 1101TIP3    H124718   3.576   4.914   2.765  2.7311  0.0430 -0.1566
 1101TIP3    H224719   3.589   4.972   2.904 -2.8733 -1.0636  1.0808
 1102TIP3   OH224720   1.113   5.279   2.960  0.2226 -0.2347 -0.1706
 1102TIP3    H124721   1.030   5.319   2.985  0.1508  1.6713 -2.9667
 1102TIP3    H224722   1.090   5.195   2.922 -0.1823 -0.6670  1.0120
 1103TIP3   OH224723   5.949   4.982   0.539  0.1559 -0.5127 -0.0199
 1103TIP3    H124724   5.957   5.033   0.619 -0.4038 -0.4069 -0.0233
 1103TIP3    H224725   6.004   5.027   0.476 -0.7891  0.4510 -0.1896
 1104TIP3   OH224726   4.781   4.680  12.901  0.7926 -0.3440  0.1449
 1104TIP3    H124727   4.719   4.609  12.916  0.3720  0.3340  1.7715
 1104TIP3    H224728   4.863   4.635  12.879 -0.1948 -1.2502 -1.9667
 1105TIP3   OH224729   3.495   1.620  14.892 -0.0262  0.2476 -0.8341
 1105TIP3    H124730   3.511   1.526  14.893 -1.0259  0.0614  0.6601
 1105TIP3    H224731   3.426   1.632  14.827  0.0078 -0.0590 -0.9284
 1106TIP3   OH224732   2.504   0.578   1.775 -0.5059 -0.6832  0.3351
 1106TIP3    H124733   2.497   0.647   1.841 -1.2728 -0.5241  0.1024
 1106TIP3    H224734   2.486   0.497   1.824  0.5842 -0.7463  0.6461
 1107TIP3   OH224735   1.811   4.644  14.173  0.3972 -0.1446 -0.6836
 1107TIP3    H124736   1.814   4.647  14.078  1.5057 -0.3591 -0.6713
 1107TIP3    H224737   1.739   4.584  14.193  0.0132  0.0814 -1.3813
 1108TIP3   OH224738   6.180   1.991   3.151  0.7639  0.0517  0.0404
 1108TIP3    H124739   6.186   2.060   3.217  0.8085 -0.7036  0.8532
 1108TIP3    H224740   6.122   1.925   3.190  0.0745 -0.0179 -1.0510
 1109TIP3   OH224741   4.542   6.136  13.177  0.3353 -0.2395 -0.0121
 1109TIP3    H124742   4.491   6.212  13.148  1.2739 -0.0621 -1.2763
 1109TIP3    H224743   4.507   6.115  13.263 -0.2335  1.3714  0.1803
 1110TIP3   OH224744   6.215   5.989   2.793  0.0647  0.1880 -0.1045
 1110TIP3    H124745   6.266   6.032   2.724  0.9508 -0.3876  0.1653
 1110TIP3    H224746   6.162   5.924   2.746 -1.2144  1.4679 -0.5011
 1111TIP3   OH224747   3.592   5.157  16.288 -0.4077 -0.2816 -0.0527
 1111TIP3    H124748   3.667   5.213  16.268  0.1018 -0.6095  0.8750
 1111TIP3    H224749   3.617   5.071  16.254  0.2035 -0.6966  1.3874
 1112TIP3   OH224750   2.242   0.522   0.714 -0.1066  0.2017  0.3128
 1112TIP3    H124751   2.326   0.504   0.673  1.3221  2.2407  2.1510
 1112TIP3    H224752   2.183   0.455   0.679  2.0959 -0.8897 -1.5076
 1113TIP3   OH224753   3.732   4.268   2.257  0.2771  0.4229  0.5263
 1113TIP3    H124754   3.821   4.304   2.253  0.8287 -0.6901  2.0207
 1113TIP3    H224755   3.743   4.174   2.241 -0.8204  0.4538 -0.6103
 1114TIP3   OH224756   3.909   5.172   0.315 -0.2982  0.3145  0.0826
 1114TIP3    H124757   3.973   5.124   0.264 -1.7990 -1.9390  0.1721
 1114TIP3    H224758   3.899   5.256   0.269  1.6520  0.1604 -0.6875
 1115TIP3   OH224759   2.221   0.839  11.157  0.0691  0.1758 -0.1301
 1115TIP3    H124760   2.173   0.844  11.075  0.5152 -0.0538 -0.4119
 1115TIP3    H224761   2.295   0.781  11.138 -0.2890 -0.5754  0.6583
 1116TIP3   OH224762   4.251   6.421   2.822  0.2701 -0.1783 -0.0463
 1116TIP3    H124763   4.328   6.365   2.815  1.7276  1.8153 -1.0532
 1116TIP3    H224764   4.241   6.437   2.915  0.6289 -1.0189  0.1453
 1117TIP3   OH224765   2.804   4.573  11.513 -0.3473 -0.2612 -0.4283
 1117TIP3    H124766   2.789   4.593  11.420  0.1994  1.2573 -0.2060
 1117TIP3    H224767   2.780   4.653  11.559  0.2315 -0.7107  0.6842
 1118TIP3   OH224768   1.639   5.793  16.428 -0.5380 -0.1614 -0.1967
 1118TIP3    H124769   1.552   5.828  16.411  0.4527  2.2322 -0.7540
 1118TIP3    H224770   1.655   5.812  16.521  0.4021  1.9994 -0.7407
 1119TIP3   OH224771   6.436   1.795   3.991 -0.6038  0.1109  0.4932
 1119TIP3    H124772   6.421   1.714   4.040  0.4127  0.6708  1.8023
 1119TIP3    H224773   6.501   1.842   4.043  1.5795  0.1489 -2.1116
 1120TIP3   OH224774   3.577   4.831   3.381 -0.6433 -0.6823 -0.3820
 1120TIP3    H124775   3.562   4.805   3.290 -1.4879  0.3667 -0.5623
 1120TIP3    H224776   3.511   4.898   3.398  1.1579  1.0581  0.1677
 1121TIP3   OH224777   2.099   1.160  14.777  0.3387  0.2809  0.2357
 1121TIP3    H124778   2.077   1.076  14.817 -2.1220 -0.7778 -2.9451
 1121TIP3    H224779   2.030   1.220  14.807 -0.5658 -0.0920 -1.0302
 1122TIP3   OH224780   1.451   1.625   4.650 -0.3433  0.1576  0.0741
 1122TIP3    H124781   1.406   1.653   4.570  0.2519  1.7714  0.2692
 1122TIP3    H224782   1.540   1.603   4.621  0.3268  2.1300  0.4328
 1123TIP3   OH224783   1.007   6.268  14.181  0.0904  0.0354 -0.4985
 1123TIP3    H124784   1.005   6.200  14.249 -0.1440 -0.6791 -1.2074
 1123TIP3    H224785   1.100   6.284  14.166  0.1454  0.0763 -0.1276
 1124TIP3   OH224786   4.887   2.301  11.465  0.1455  0.4652 -0.0694
 1124TIP3    H124787   4.970   2.266  11.432 -0.0473  0.0996 -0.1746
 1124TIP3    H224788   4.903   2.318  11.558  0.4879  0.8610 -0.2016
 1125TIP3   OH224789   0.801   2.631   3.923 -0.1140  0.3323  0.0532
 1125TIP3    H124790   0.716   2.672   3.908 -0.3041 -0.1357 -0.1784
 1125TIP3    H224791   0.798   2.551   3.870 -0.3829 -0.8122  1.7115
 1126TIP3   OH224792   6.055   3.441  13.055  0.6729 -0.2455  0.4704
 1126TIP3    H124793   5.975   3.469  13.100  0.3307  0.4936 -0.5305
 1126TIP3    H224794   6.092   3.373  13.110  0.8172  1.2977  2.3715
 1127TIP3   OH224795   1.209   3.490   3.334 -0.0292 -0.3828  0.0288
 1127TIP3    H124796   1.219   3.450   3.248  1.7106 -2.8983  1.2914
 1127TIP3    H224797   1.160   3.571   3.317  0.1014 -0.8592 -3.2565
 1128TIP3   OH224798   5.018   6.308   1.319  0.4003  0.0856 -0.7359
 1128TIP3    H124799   5.027   6.392   1.275  0.4735 -0.4815 -1.8207
 1128TIP3    H224800   5.033   6.328   1.412 -0.4406  1.4118 -0.8613
 1129TIP3   OH224801   4.398   1.946   6.054  0.1427 -0.1368 -0.1222
 1129TIP3    H124802   4.397   1.914   6.145  0.5729 -0.9339 -0.3911
 1129TIP3    H224803   4.488   1.931   6.024 -0.1066 -0.2541 -0.8165
 1130TIP3   OH224804   1.035   2.126  15.843  0.5894  0.3899 -0.0538
 1130TIP3    H124805   1.105   2.070  15.810  0.9614  1.5287 -1.2950
 1130TIP3    H224806   0.956   2.094  15.801  0.5864 -0.0034  0.2465
 1131TIP3   OH224807   2.023   3.049  11.975 -0.3831  0.6251  0.0839
 1131TIP3    H124808   2.117   3.062  11.975 -0.1644 -0.5488  2.1629
 1131TIP3    H224809   1.995   3.073  11.886  2.1374 -1.0845 -1.2909
 1132TIP3   OH224810   6.704   4.236  12.237  0.5663  0.0139 -0.3425
 1132TIP3    H124811   6.618   4.267  12.266  0.4823  0.0891 -0.6568
 1132TIP3    H224812   6.705   4.256  12.143  0.2086 -1.6116 -0.7225
 1133TIP3   OH224813   5.430   6.632   1.294 -0.0245  0.2293  0.0616
 1133TIP3    H124814   5.449   6.572   1.365 -2.7936  0.9024  1.5231
 1133TIP3    H224815   5.486   6.603   1.222  0.0060 -2.9865  1.2277
 1134TIP3   OH224816   5.230   6.537  15.622 -0.3008  0.6662  0.3370
 1134TIP3    H124817   5.255   6.589  15.546 -1.3444  0.1884 -0.3503
 1134TIP3    H224818   5.194   6.456  15.585 -0.7731  0.4085  1.3354
 1135TIP3   OH224819   0.643   1.145   6.187 -0.2559  0.1203 -0.2241
 1135TIP3    H124820   0.568   1.154   6.129 -0.4564  0.1799  0.0416
 1135TIP3    H224821   0.629   1.063   6.233 -1.1456  1.0132  1.2024
 1136TIP3   OH224822   6.519   5.861   1.042  0.2896 -0.1182 -0.0191
 1136TIP3    H124823   6.439   5.914   1.042  0.7691  0.6168  0.0032
 1136TIP3    H224824   6.549   5.863   1.133  0.8342  0.3948 -0.2005
 1137TIP3   OH224825   2.761   0.337   1.007 -0.6618 -0.0227 -0.5884
 1137TIP3    H124826   2.727   0.254   1.041 -1.0902  0.7671  0.9428
 1137TIP3    H224827   2.684   0.385   0.978 -0.2801 -0.9670 -3.5368
 1138TIP3   OH224828   5.636   3.006  11.523 -0.1776  0.2989  0.0915
 1138TIP3    H124829   5.686   2.991  11.443 -1.7167  2.0883 -1.2793
 1138TIP3    H224830   5.557   2.954  11.512 -0.5797  0.8691  0.2526
 1139TIP3   OH224831   5.800   6.662  14.935  0.8163  0.2249 -0.3181
 1139TIP3    H124832   5.886   6.649  14.895  0.3809  0.0733 -1.2274
 1139TIP3    H224833   5.818   6.709  15.016  1.8989 -1.0356  0.2220
 1140TIP3   OH224834   0.685   4.623   0.573  0.2951 -0.2952  0.8222
 1140TIP3    H124835   0.628   4.598   0.500 -1.0790  3.0037  0.6024
 1140TIP3    H224836   0.661   4.564   0.644  0.5444 -2.5281 -0.8487
 1141TIP3   OH224837   1.107   1.234   2.493  0.0890 -0.6737  0.0888
 1141TIP3    H124838   1.142   1.312   2.537 -0.3194 -1.3288  1.6447
 1141TIP3    H224839   1.124   1.249   2.400 -0.2973  1.4472  0.3058
 1142TIP3   OH224840   3.415   6.289  16.023 -0.1846 -0.6907  0.0881
 1142TIP3    H124841   3.393   6.347  16.095  0.1817 -0.1478 -0.2332
 1142TIP3    H224842   3.481   6.229  16.059 -0.1088 -0.5122  0.2438
 1143TIP3   OH224843   3.945   4.523  15.299 -0.3227 -0.3357 -0.2051
 1143TIP3    H124844   3.897   4.605  15.289  0.9580  0.3845 -0.5926
 1143TIP3    H224845   4.034   4.550  15.320  0.4211 -1.6020 -1.6095
 1144TIP3   OH224846   1.358   3.852  13.175 -0.4306  0.2257  0.0571
 1144TIP3    H124847   1.343   3.921  13.111  0.2722  0.9778  0.6680
 1144TIP3    H224848   1.320   3.886  13.256  0.3085  0.0949  0.4693
 1145TIP3   OH224849   3.400   5.698  17.232  0.1193 -0.1511  0.1146
 1145TIP3    H124850   3.438   5.615  17.202  1.4371  0.0358  1.1780
 1145TIP3    H224851   3.351   5.675  17.311  0.9199  0.1526  0.7073
 1146TIP3   OH224852   2.313   3.541   3.045 -0.0779  0.7388  0.7736
 1146TIP3    H124853   2.225   3.506   3.033 -0.1120  0.5854  1.4170
 1146TIP3    H224854   2.323   3.606   2.976 -0.1413 -0.2963 -0.2331
 1147TIP3   OH224855   1.649   1.293  10.882 -0.3578  0.2495 -0.2237
 1147TIP3    H124856   1.625   1.346  10.958 -2.0828  1.7484 -1.7143
 1147TIP3    H224857   1.729   1.334  10.847  0.9149 -0.9318  1.1583
 1148TIP3   OH224858   4.631   5.254   6.448 -0.7274 -0.0030  0.4228
 1148TIP3    H124859   4.610   5.195   6.374 -2.9763  1.9238 -0.5845
 1148TIP3    H224860   4.547   5.268   6.492 -0.1413  1.9616  0.9863
 1149TIP3   OH224861   5.729   0.542   1.062  0.6079 -0.2301 -0.1883
 1149TIP3    H124862   5.692   0.625   1.091  1.4216  1.2288 -2.9256
 1149TIP3    H224863   5.668   0.509   0.996  0.6292 -1.4817  0.3910
 1150TIP3   OH224864   3.516   0.503   4.886  0.5629 -0.2475  0.4003
 1150TIP3    H124865   3.607   0.531   4.875  1.1200 -1.6668  1.1499
 1150TIP3    H224866   3.520   0.434   4.953 -1.0617 -0.3682  0.4106
 1151TIP3   OH224867   6.611   5.559  13.288  0.1858  0.3372  0.5837
 1151TIP3    H124868   6.551   5.534  13.358 -1.8071 -2.6121 -1.9569
 1151TIP3    H224869   6.579   5.644  13.258  1.6119  2.1226  3.5699
 1152TIP3   OH224870   1.498   2.205  12.928 -0.8092  0.7151 -0.0780
 1152TIP3    H124871   1.519   2.159  13.010 -0.7683  2.1216  0.7343
 1152TIP3    H224872   1.543   2.289  12.936  1.9685 -0.3116 -3.0307
 1153TIP3   OH224873   4.408   5.680  13.160  0.0705 -0.7502 -0.0484
 1153TIP3    H124874   4.464   5.641  13.228  1.7041  0.8691 -0.3853
 1153TIP3    H224875   4.463   5.747  13.119 -1.4304 -0.5530 -1.8824
 1154TIP3   OH224876   4.361   6.039  12.021 -0.4374 -0.4944 -0.4825
 1154TIP3    H124877   4.435   6.026  11.963  1.0630  0.5913  1.0613
 1154TIP3    H224878   4.330   6.128  12.001 -0.0806 -0.2170  0.1386
 1155TIP3   OH224879   4.897   0.781  11.555 -0.1589  0.2223  0.2667
 1155TIP3    H124880   4.947   0.859  11.576  0.5457  0.1413 -0.9911
 1155TIP3    H224881   4.849   0.805  11.475 -0.0179 -0.5781 -0.0685
 1156TIP3   OH224882   6.229   6.539   2.665  0.2143  0.6459 -0.1363
 1156TIP3    H124883   6.179   6.621   2.671  0.5462  0.8228  0.2663
 1156TIP3    H224884   6.195   6.496   2.587 -0.2459  0.9805 -0.1227
 1157TIP3   OH224885   4.884   5.085   1.930  0.3860 -0.4866  0.3088
 1157TIP3    H124886   4.790   5.068   1.922  0.4254 -0.2165 -0.7886
 1157TIP3    H224887   4.925   5.025   1.868  0.8128  0.5970 -0.4919
 1158TIP3   OH224888   1.683   0.889  16.071  0.4194 -0.3641 -0.1571
 1158TIP3    H124889   1.659   0.816  16.129 -0.8598 -0.4017 -0.6975
 1158TIP3    H224890   1.600   0.914  16.030  1.1121  0.4156 -1.0978
 1159TIP3   OH224891   3.415   3.877   0.905  0.0553  0.0767  0.0666
 1159TIP3    H124892   3.392   3.949   0.964 -2.6798 -0.5548 -0.1249
 1159TIP3    H224893   3.368   3.896   0.824  0.5331 -1.1529 -0.5338
 1160TIP3   OH224894   4.052   4.356  12.541 -0.1613 -0.0176  0.2827
 1160TIP3    H124895   4.026   4.446  12.560  0.9822  0.1121  1.3467
 1160TIP3    H224896   4.008   4.304  12.608 -0.0245 -0.1442  0.2745
 1161TIP3   OH224897   0.854   1.655   0.843  0.4038  0.1168  0.6810
 1161TIP3    H124898   0.768   1.622   0.818  0.6899 -0.7666  0.8483
 1161TIP3    H224899   0.873   1.722   0.778  0.0464 -0.4082  0.0221
 1162TIP3   OH224900   1.125   3.265  15.392 -0.2346 -0.1183 -0.4178
 1162TIP3    H124901   1.055   3.291  15.451 -1.4260 -0.2147 -1.7323
 1162TIP3    H224902   1.130   3.170  15.400 -0.7792 -0.1920 -0.8492
 1163TIP3   OH224903   2.906   6.340   1.391  0.0804  0.9929  0.3510
 1163TIP3    H124904   2.997   6.320   1.409 -0.1966  1.2257  2.2178
 1163TIP3    H224905   2.895   6.323   1.297  1.5977 -0.6322  0.4288
 1164TIP3   OH224906   5.862   4.297   3.799  0.1938  0.4136  0.0534
 1164TIP3    H124907   5.878   4.226   3.737  2.0414 -1.5550  2.6141
 1164TIP3    H224908   5.767   4.309   3.796 -0.4054 -3.0732  0.3487
 1165TIP3   OH224909   5.421   2.836   2.606 -0.2557  0.4356  0.4597
 1165TIP3    H124910   5.485   2.906   2.615  1.6860 -1.0505 -1.0237
 1165TIP3    H224911   5.464   2.759   2.645 -0.9137 -0.7105 -0.9832
 1166TIP3   OH224912   4.701   0.582  13.832 -0.0128 -0.4404 -0.1138
 1166TIP3    H124913   4.692   0.541  13.918 -0.1777 -2.0357 -0.8636
 1166TIP3    H224914   4.790   0.562  13.805 -0.6710 -1.9554 -1.2808
 1167TIP3   OH224915   1.633   5.470  12.290  0.2916 -0.5929  0.6314
 1167TIP3    H124916   1.585   5.445  12.211  0.4681 -1.3647  0.7567
 1167TIP3    H224917   1.659   5.387  12.330  3.6327 -0.3166 -0.5714
 1168TIP3   OH224918   5.643   5.283   3.735 -0.1598  0.3676 -0.8816
 1168TIP3    H124919   5.634   5.375   3.761 -1.3565  0.3065 -1.0621
 1168TIP3    H224920   5.729   5.257   3.770 -0.3144  1.2131  0.1730
 1169TIP3   OH224921   2.955   3.893  14.996 -0.1237 -0.1405  0.0152
 1169TIP3    H124922   2.960   3.821  15.059 -1.8229 -0.0667  0.2863
 1169TIP3    H224923   2.927   3.851  14.914  0.6963 -0.0384 -0.3229
 1170TIP3   OH224924   1.849   5.885  13.393 -0.0945  0.9985 -0.0641
 1170TIP3    H124925   1.918   5.946  13.420  0.4784 -0.0371  0.9360
 1170TIP3    H224926   1.772   5.913  13.442  0.1988  0.8554  0.4886
 1171TIP3   OH224927   1.384   5.420  16.019 -0.7217 -0.0986  0.9538
 1171TIP3    H124928   1.317   5.381  16.075 -0.2237  0.6566  2.1159
 1171TIP3    H224929   1.338   5.441  15.938 -1.5741 -0.7630  1.2456
 1172TIP3   OH224930   5.716   6.421   0.592  0.5779  0.0098  0.0989
 1172TIP3    H124931   5.772   6.479   0.643 -0.2428 -0.6033  1.7538
 1172TIP3    H224932   5.662   6.481   0.540  0.3350  0.7205  1.1346
 1173TIP3   OH224933   0.002   1.593  16.078 -0.0747  0.0445 -0.4709
 1173TIP3    H124934   0.092   1.602  16.109 -0.0042 -2.8748  0.5451
 1173TIP3    H224935   0.010   1.547  15.994 -0.5687 -3.3764  1.1814
 1174TIP3   OH224936   3.543   5.426  11.966 -0.0244  0.3257  0.0507
 1174TIP3    H124937   3.633   5.437  11.938 -0.6711  1.6361 -1.6599
 1174TIP3    H224938   3.550   5.387  12.054  2.1951  1.3130  0.3805
 1175TIP3   OH224939   6.716   3.792   3.537  0.0084  0.1977  0.1388
 1175TIP3    H124940   6.803   3.795   3.498 -0.3942 -0.5640 -0.8523
 1175TIP3    H224941   6.680   3.708   3.511 -0.3131 -0.3592  2.1665
 1176TIP3   OH224942   3.190   0.262  16.852  0.5578  0.2714 -0.0906
 1176TIP3    H124943   3.153   0.174  16.854 -0.0481  0.5327  0.2613
 1176TIP3    H224944   3.259   0.261  16.919 -0.7165  0.6187  1.2589
 1177TIP3   OH224945   2.766   6.004   1.835 -0.1843 -0.3714 -0.3598
 1177TIP3    H124946   2.837   6.061   1.806  0.4656 -0.4495  0.9885
 1177TIP3    H224947   2.689   6.034   1.786  0.6105  0.2103 -1.2841
 1178TIP3   OH224948   3.987   1.903   2.617  0.2076  0.5842 -0.4338
 1178TIP3    H124949   4.042   1.834   2.654  0.3010  0.2468 -1.1881
 1178TIP3    H224950   4.030   1.984   2.643  0.0076  0.3730  0.6060
 1179TIP3   OH224951   4.667   2.003   3.122 -0.0496  0.1424 -0.2305
 1179TIP3    H124952   4.761   2.019   3.134 -0.1486  0.1759  0.5726
 1179TIP3    H224953   4.640   1.956   3.202 -0.7426  0.2710 -0.3802
 1180TIP3   OH224954   0.679   1.199  17.020  0.1314  0.4568  0.3787
 1180TIP3    H124955   0.673   1.282  16.972  0.4903 -0.4909 -1.3849
 1180TIP3    H224956   0.634   1.136  16.963  1.0391 -0.8169  1.0417
 1181TIP3   OH224957   0.393   4.430   4.691  0.3212  0.4603 -0.3499
 1181TIP3    H124958   0.471   4.375   4.690  0.4802  0.6773  0.0525
 1181TIP3    H224959   0.425   4.519   4.705 -0.0669  0.4136  0.9769
 1182TIP3   OH224960   1.691   2.460  16.318  0.5995  0.5692 -1.0139
 1182TIP3    H124961   1.627   2.509  16.266  1.3576  0.9600 -1.5883
 1182TIP3    H224962   1.678   2.491  16.407  0.6226  1.3369 -1.2680
 1183TIP3   OH224963   4.378   1.990   3.815  0.1810  0.1989 -0.4675
 1183TIP3    H124964   4.342   2.065   3.863 -2.9536 -1.6946  0.4133
 1183TIP3    H224965   4.456   1.965   3.865 -0.8520  0.6198  1.4683
 1184TIP3   OH224966   4.856   1.355   0.085  0.4268  0.1054 -0.3572
 1184TIP3    H124967   4.879   1.262   0.089  1.4021  0.3367 -0.1456
 1184TIP3    H224968   4.774   1.358   0.036  0.6030 -0.8359 -0.7322
 1185TIP3   OH224969   4.808   5.626   3.958 -0.0112  0.2550  0.0423
 1185TIP3    H124970   4.756   5.555   3.995  0.7869  0.2359  1.1827
 1185TIP3    H224971   4.803   5.613   3.863 -0.7188 -0.7043  0.1962
 1186TIP3   OH224972   5.555   3.586  13.556  0.2481 -0.2538 -0.1347
 1186TIP3    H124973   5.622   3.545  13.502 -1.2910 -2.5747 -0.4165
 1186TIP3    H224974   5.595   3.667  13.587  2.3455 -0.4572 -2.0813
 1187TIP3   OH224975   6.667   1.388   0.040 -0.4223  0.5146  0.3088
 1187TIP3    H124976   6.625   1.470   0.065  0.7419  1.9106 -1.9709
 1187TIP3    H224977   6.605   1.320   0.065 -2.2511  2.2058  0.5964
 1188TIP3   OH224978   2.831   1.089  16.290 -0.1595  0.2089  0.2327
 1188TIP3    H124979   2.743   1.115  16.263 -0.1038  0.0085 -0.1558
 1188TIP3    H224980   2.861   1.029  16.220  0.5981  0.9178 -0.0694
 1189TIP3   OH224981   4.386   3.292  12.921 -0.3099 -0.2300  0.5360
 1189TIP3    H124982   4.322   3.297  12.992  0.1068  0.9101  0.8558
 1189TIP3    H224983   4.456   3.353  12.947 -0.3476  0.5437 -1.0465
 1190TIP3   OH224984   1.363   6.293  15.976  0.7472  0.6350  0.4401
 1190TIP3    H124985   1.358   6.199  15.962 -1.8121  1.0146 -2.0548
 1190TIP3    H224986   1.371   6.330  15.888 -1.2258  2.8159  1.0825
 1191TIP3   OH224987   0.624   2.061  15.284 -0.2251 -0.5206  0.4524
 1191TIP3    H124988   0.568   2.115  15.228 -0.5689 -1.5891 -0.2646
 1191TIP3    H224989   0.627   2.108  15.367 -3.3234 -1.0701  1.0131
 1192TIP3   OH224990   1.359   0.332   2.049  0.0345 -0.0114 -0.2117
 1192TIP3    H124991   1.417   0.330   2.125 -0.6544  0.2060  0.3354
 1192TIP3    H224992   1.418   0.339   1.974  0.6964  1.2358  0.3833
 1193TIP3   OH224993   2.612   0.384  13.657  0.0083 -0.3419 -0.2851
 1193TIP3    H124994   2.659   0.302  13.670  0.5406  0.2021  1.6238
 1193TIP3    H224995   2.654   0.424  13.582  0.6327 -1.2139 -0.4204
 1194TIP3   OH224996   4.791   4.492  11.823  0.1926 -0.1940 -0.1115
 1194TIP3    H124997   4.861   4.454  11.769  0.8362  0.5579  0.1576
 1194TIP3    H224998   4.729   4.528  11.759 -0.6795 -2.0878 -0.3711
 1195TIP3   OH224999   4.954   2.086  11.831  0.2169 -1.0694  0.0015
 1195TIP3    H125000   5.045   2.060  11.845  0.6296 -0.2399 -1.0302
 1195TIP3    H225001   4.917   2.094  11.919  0.8646 -2.3280  0.4074
 1196TIP3   OH225002   3.683   6.038  15.200 -0.1100  0.4456  0.5133
 1196TIP3    H125003   3.652   5.952  15.172  1.7194  0.0220 -0.3661
 1196TIP3    H225004   3.641   6.099  15.139  1.4514 -0.2041 -1.3226
 1197TIP3   OH225005   5.812   3.673   1.114  0.7599 -0.3098  0.5209
 1197TIP3    H125006   5.827   3.745   1.053 -1.8104 -1.2592 -1.3636
 1197TIP3    H225007   5.860   3.599   1.077  0.2907 -0.5481  0.3896
 1198TIP3   OH225008   4.050   5.649  16.596 -0.2118  0.5365 -0.3706
 1198TIP3    H125009   4.050   5.650  16.500  0.2911  1.4685 -0.3699
 1198TIP3    H225010   4.139   5.675  16.620  0.3648 -1.8186  0.3602
 1199TIP3   OH225011   1.142   4.489   2.819 -0.5253  0.5277  0.1087
 1199TIP3    H125012   1.105   4.484   2.731  0.6329 -0.3464 -0.3457
 1199TIP3    H225013   1.087   4.553   2.864 -1.4357  0.6253 -1.0943
 1200TIP3   OH225014   0.515   6.349  16.539 -0.2273 -0.6860 -0.0285
 1200TIP3    H125015   0.430   6.352  16.495 -0.9681 -1.2632  1.3104
 1200TIP3    H225016   0.578   6.370  16.470 -1.2385 -2.5077 -1.6207
 1201TIP3   OH225017   4.672   2.458   5.945  0.0016  0.4016 -0.0452
 1201TIP3    H125018   4.697   2.366   5.947  0.2163  0.4671  1.1050
 1201TIP3    H225019   4.721   2.495   5.872  1.0201 -0.0999  0.3665
 1202TIP3   OH225020   6.758   2.770   1.126  0.4023  0.2820 -0.5083
 1202TIP3    H125021   6.824   2.743   1.063 -1.6384  1.0266 -3.1309
 1202TIP3    H225022   6.732   2.858   1.098 -1.3372  0.2166  0.6931
 1203TIP3   OH225023   6.266   3.434   2.895 -0.4942  0.0615 -0.1800
 1203TIP3    H125024   6.357   3.427   2.925  0.4849 -0.3551 -2.9985
 1203TIP3    H225025   6.253   3.527   2.880  0.2150 -0.0742 -1.7831
 1204TIP3   OH225026   1.189   5.115   2.540 -0.4587 -0.3311  0.4391
 1204TIP3    H125027   1.164   5.192   2.593  0.5786 -0.5414  1.2733
 1204TIP3    H225028   1.223   5.053   2.604 -1.8646 -1.7610 -0.1479
 1205TIP3   OH225029   0.606   0.423  12.675 -0.0861 -0.4276 -0.2254
 1205TIP3    H125030   0.637   0.332  12.676  0.2568 -0.3114 -0.1322
 1205TIP3    H225031   0.672   0.471  12.626  0.0151 -0.1321  0.1883
 1206TIP3   OH225032   5.033   6.437   3.987 -0.0941  0.2821  0.8740
 1206TIP3    H125033   5.106   6.462   4.043  0.4629  1.4394 -0.3191
 1206TIP3    H225034   4.969   6.507   3.998  0.3642  0.9397 -0.5322
 1207TIP3   OH225035   4.509   3.853   0.473  0.5868  0.1200 -0.0558
 1207TIP3    H125036   4.560   3.812   0.543  0.4486  2.6659  1.6624
 1207TIP3    H225037   4.538   3.944   0.473 -1.1831  0.7433 -1.7252
 1208TIP3   OH225038   0.294   0.892   5.763  0.0843 -0.3792  0.2767
 1208TIP3    H125039   0.333   0.867   5.847  0.1504 -1.2977 -0.0225
 1208TIP3    H225040   0.280   0.987   5.771 -2.6782 -0.8298  2.5105
 1209TIP3   OH225041   3.230   5.687  12.108  0.4197  0.1180  0.7718
 1209TIP3    H125042   3.247   5.624  12.038  0.0053  0.4347  0.3799
 1209TIP3    H225043   3.238   5.773  12.066 -3.6635  0.3652  0.0693
 1210TIP3   OH225044   1.383   6.230   5.733 -0.0200 -0.1967 -0.1621
 1210TIP3    H125045   1.379   6.320   5.766  0.6761 -0.4455  0.6547
 1210TIP3    H225046   1.327   6.230   5.656  0.7132  1.1741 -0.7425
 1211TIP3   OH225047   2.754   1.059  13.112 -0.0356 -0.2396  0.0720
 1211TIP3    H125048   2.843   1.095  13.105 -0.2772  0.1222 -1.8354
 1211TIP3    H225049   2.732   1.066  13.205  0.9326  2.1610  0.2087
 1212TIP3   OH225050   0.650   4.362  14.711  0.1626 -0.5052  0.5506
 1212TIP3    H125051   0.677   4.441  14.664 -2.4369  0.7187  0.9565
 1212TIP3    H225052   0.730   4.332  14.754  1.7667  0.4933 -1.5072
 1213TIP3   OH225053   2.554   4.719   1.815 -0.3845 -0.2088  0.1639
 1213TIP3    H125054   2.575   4.626   1.805 -1.1211 -0.8219  3.2627
 1213TIP3    H225055   2.478   4.732   1.758 -0.0080 -1.4066 -0.6509
 1214TIP3   OH225056   6.179   3.755   6.732  1.0957  0.1123 -0.0636
 1214TIP3    H125057   6.140   3.690   6.790  1.8725  0.7991  1.2857
 1214TIP3    H225058   6.255   3.712   6.694  2.0064  0.4020  1.3522
 1215TIP3   OH225059   0.942   0.560  15.797 -0.2042 -0.0581 -0.0252
 1215TIP3    H125060   0.994   0.597  15.727  0.3665 -0.4233  0.1950
 1215TIP3    H225061   1.005   0.514  15.852 -0.4598  1.1489  1.3522
 1216TIP3   OH225062   0.905   6.385   1.374  0.0136  0.5097  0.0176
 1216TIP3    H125063   0.964   6.352   1.306  0.9151  1.3933  0.3498
 1216TIP3    H225064   0.821   6.395   1.329  0.3905  0.2903 -0.7548
 1217TIP3   OH225065   5.180   1.510   5.114  0.0617  0.0743 -0.6318
 1217TIP3    H125066   5.271   1.539   5.108  0.5306 -0.9135  1.1020
 1217TIP3    H225067   5.150   1.508   5.023  1.3579  1.6226 -1.1394
 1218TIP3   OH225068   4.444   0.684  15.066 -0.7531  0.4435 -0.4436
 1218TIP3    H125069   4.373   0.740  15.096 -0.2344  0.1265  1.5307
 1218TIP3    H225070   4.524   0.731  15.090 -0.2646  0.3095 -1.6773
 1219TIP3   OH225071   2.744   3.283   0.405  0.0109  0.0505  0.6502
 1219TIP3    H125072   2.777   3.339   0.475  0.7111  1.4574 -0.7458
 1219TIP3    H225073   2.693   3.342   0.350 -0.8542 -1.1160  0.1674
 1220TIP3   OH225074   2.161   6.732  12.270 -0.5096 -0.0100 -0.1252
 1220TIP3    H125075   2.211   6.716  12.350  2.1111 -1.4096 -1.8975
 1220TIP3    H225076   2.179   6.824  12.248 -1.0647  0.3148  0.7679
 1221TIP3   OH225077   5.062   1.830  16.275 -0.3381  0.2788 -0.0604
 1221TIP3    H125078   5.036   1.843  16.366 -0.5584  2.2443 -0.3560
 1221TIP3    H225079   5.012   1.895  16.226 -0.2231 -0.7401 -1.6008
 1222TIP3   OH225080   2.217   4.261  16.973  0.0205 -0.2078  0.1885
 1222TIP3    H125081   2.123   4.277  16.979 -0.0619 -1.0392  1.3611
 1222TIP3    H225082   2.257   4.347  16.983 -0.5563 -0.1006  1.9402
 1223TIP3   OH225083   5.699   4.423   6.616 -0.0080 -0.0921 -0.3961
 1223TIP3    H125084   5.691   4.415   6.521 -1.6890 -2.2441 -0.1714
 1223TIP3    H225085   5.612   4.401   6.649  0.5390  0.5981  1.6652
 1224TIP3   OH225086   0.697   3.059   2.396  0.3306 -0.3797  0.3169
 1224TIP3    H125087   0.770   3.108   2.434 -0.1704  0.6472 -0.0089
 1224TIP3    H225088   0.619   3.099   2.434 -0.3063  1.8424 -2.9139
 1225TIP3   OH225089   0.531   1.843  12.184 -0.9818  0.8935  0.0169
 1225TIP3    H125090   0.439   1.869  12.178 -1.0342  0.7116  0.0363
 1225TIP3    H225091   0.534   1.754  12.150 -1.2492 -0.0576  2.2701
 1226TIP3   OH225092   0.646   3.415   0.965  0.2987  0.2649 -0.2571
 1226TIP3    H125093   0.550   3.420   0.971  0.2803 -1.3993  2.4010
 1226TIP3    H225094   0.663   3.400   0.872 -1.9472  1.4970 -0.9402
 1227TIP3   OH225095   5.810   6.520  11.937 -0.4900  0.1986  0.0424
 1227TIP3    H125096   5.787   6.438  11.893  0.9508  0.7144 -1.7710
 1227TIP3    H225097   5.726   6.562  11.953 -1.1937 -1.1441  0.0556
 1228TIP3   OH225098   1.547   5.969  14.061 -0.1679  0.4085  0.5291
 1228TIP3    H125099   1.458   6.005  14.071 -0.7334 -0.4624 -1.0169
 1228TIP3    H225100   1.576   6.002  13.976  1.0709  0.8044  1.0933
 1229TIP3   OH225101   0.640   2.913   3.044  0.2570 -0.4499  0.0457
 1229TIP3    H125102   0.683   2.914   3.129  2.6105  1.3851 -1.0499
 1229TIP3    H225103   0.553   2.951   3.060  0.9598  0.6349  1.5010
 1230TIP3   OH225104   6.569   5.671  12.886  0.0175 -0.1878  0.1242
 1230TIP3    H125105   6.563   5.634  12.797  2.0965 -0.3282 -0.0260
 1230TIP3    H225106   6.487   5.717  12.899 -1.0883 -1.6774 -1.1758
 1231TIP3   OH225107   5.269   3.407   2.332  0.3079 -0.0162  0.8778
 1231TIP3    H125108   5.208   3.464   2.378 -0.9196 -0.8532  0.3423
 1231TIP3    H225109   5.282   3.450   2.247 -1.8865 -1.2352 -0.1766
 1232TIP3   OH225110   5.740   1.657   0.496  0.0917 -0.5481  0.0545
 1232TIP3    H125111   5.662   1.659   0.440  0.4933  1.4780 -0.4972
 1232TIP3    H225112   5.750   1.565   0.519 -1.6326 -1.0569 -1.0400
 1233TIP3   OH225113   6.627   3.301  11.973 -0.0854 -0.1474  0.0658
 1233TIP3    H125114   6.661   3.300  11.884  0.1614 -1.6855  0.1416
 1233TIP3    H225115   6.540   3.261  11.965 -0.1707 -0.0441  0.4691
 1234TIP3   OH225116   2.282   0.150  11.599  0.1668 -0.2258  0.0792
 1234TIP3    H125117   2.314   0.069  11.560 -2.8142 -1.1669 -0.7018
 1234TIP3    H225118   2.222   0.186  11.533 -0.1760  1.4972  1.2697
 1235TIP3   OH225119   0.997   1.353   4.621  0.0647  0.0790  0.5751
 1235TIP3    H125120   0.962   1.267   4.642 -1.0282  0.0486 -1.1296
 1235TIP3    H225121   0.920   1.410   4.619  0.6844  0.9430  1.0047
 1236TIP3   OH225122   2.593   2.405   3.904  1.0585 -0.2108 -0.0919
 1236TIP3    H125123   2.592   2.455   3.986 -0.0370 -0.6119  0.1643
 1236TIP3    H225124   2.683   2.412   3.872  1.1476  1.1700  0.3911
 1237TIP3   OH225125   4.588   3.090   0.671  0.5638 -0.0511  0.3349
 1237TIP3    H125126   4.555   3.102   0.760 -0.6065 -0.3472 -0.0445
 1237TIP3    H225127   4.599   3.179   0.637 -0.9353  0.0744  0.0988
 1238TIP3   OH225128   6.614   0.931  15.209 -0.2300 -0.1310  0.0291
 1238TIP3    H125129   6.579   0.991  15.275  1.6125  1.8369 -0.6641
 1238TIP3    H225130   6.596   0.973  15.125  2.3166  0.2707 -0.4150
 1239TIP3   OH225131   5.108   5.278  11.567 -0.0091 -0.3843  0.1001
 1239TIP3    H125132   5.173   5.243  11.627 -0.0056  0.0321  0.3406
 1239TIP3    H225133   5.085   5.204  11.510  0.2649 -0.6757  0.3689
 1240TIP3   OH225134   2.125   5.243   0.958  0.2135  0.1138  0.4845
 1240TIP3    H125135   2.151   5.314   0.899  1.4169 -0.2893  0.4996
 1240TIP3    H225136   2.183   5.170   0.934 -0.3747 -0.5652  1.0908
 1241TIP3   OH225137   5.541   1.149   4.367  0.7420 -0.2226  0.1308
 1241TIP3    H125138   5.560   1.199   4.447  0.5898 -1.4639  0.9761
 1241TIP3    H225139   5.456   1.108   4.384 -0.2403  1.0155 -1.4737
 1242TIP3   OH225140   3.355   0.791  13.469 -0.0584 -0.2623  0.0994
 1242TIP3    H125141   3.260   0.797  13.458 -0.0542  0.0862  0.2528
 1242TIP3    H225142   3.389   0.868  13.425  0.1522 -0.3680  0.0781
 1243TIP3   OH225143   5.083   0.080   0.244 -0.3383  0.3480  0.1875
 1243TIP3    H125144   5.156   0.037   0.288  0.8454  1.6621 -0.4162
 1243TIP3    H225145   5.101   0.069   0.150 -0.9409  0.6420  0.0306
 1244TIP3   OH225146   2.452   1.224   2.687 -0.2306 -0.4837  0.1683
 1244TIP3    H125147   2.390   1.283   2.644  1.7160  0.6938 -1.1698
 1244TIP3    H225148   2.496   1.279   2.752  0.3382 -0.9513  0.1810
 1245TIP3   OH225149   0.752   2.402   0.021 -0.2347 -0.5261  0.0816
 1245TIP3    H125150   0.760   2.408   0.117 -0.6634  0.2338  0.0806
 1245TIP3    H225151   0.730   2.311   0.004  0.1664 -0.7421  0.6843
 1246TIP3   OH225152   0.678   6.492   2.056 -0.2892  0.0278 -0.7269
 1246TIP3    H125153   0.765   6.451   2.055 -0.1220  0.3748 -0.4201
 1246TIP3    H225154   0.668   6.528   1.968 -1.1173 -2.0647 -1.5767
 1247TIP3   OH225155   6.387   5.184   4.592 -0.3623 -0.3682 -0.0288
 1247TIP3    H125156   6.347   5.259   4.548  0.0687 -0.3093 -0.3207
 1247TIP3    H225157   6.480   5.191   4.571 -0.3683 -1.1742 -0.3464
 1248TIP3   OH225158   1.659   6.122  12.459  0.5136  0.5949 -0.2056
 1248TIP3    H125159   1.634   6.214  12.463  0.3445  0.5228  0.5983
 1248TIP3    H225160   1.591   6.081  12.404  0.3921  0.8856 -0.2752
 1249TIP3   OH225161   5.562   0.542   0.612 -0.4168 -0.1284 -0.2437
 1249TIP3    H125162   5.549   0.603   0.684 -1.3854 -1.6421  0.9134
 1249TIP3    H225163   5.499   0.472   0.627  0.6982 -1.4677 -1.4795
 1250TIP3   OH225164   1.446   6.513  13.831  0.7321  0.7584  0.0821
 1250TIP3    H125165   1.528   6.543  13.868  0.5927 -0.1272  1.1520
 1250TIP3    H225166   1.465   6.426  13.796  0.4249  0.8468 -0.3184
 1251TIP3   OH225167   5.934   3.882   5.779  0.6104 -0.0434  0.0589
 1251TIP3    H125168   5.875   3.830   5.834 -0.8618  1.8161  0.3537
 1251TIP3    H225169   5.885   3.962   5.762  1.8135  0.2374 -2.4159
 1252TIP3   OH225170   1.169   3.142  11.360 -0.1638 -0.0153  0.4180
 1252TIP3    H125171   1.190   3.063  11.409  0.6024 -1.2394 -1.7485
 1252TIP3    H225172   1.083   3.124  11.322 -0.5944  0.7690  0.9942
 1253TIP3   OH225173   0.062   6.008  15.476  0.2261 -0.3119  0.0013
 1253TIP3    H125174   0.111   6.088  15.455 -0.5062  0.2896  0.5443
 1253TIP3    H225175  -0.010   6.006  15.413 -0.1208 -0.2029  0.3899
 1254TIP3   OH225176   0.485   3.251   3.014 -0.1501 -0.1173 -0.2329
 1254TIP3    H125177   0.532   3.204   3.084 -2.4492 -1.4046  0.5383
 1254TIP3    H225178   0.517   3.341   3.021  2.5967 -0.9872 -0.1649
 1255TIP3   OH225179   4.798   0.009   5.881 -0.6152 -0.0812  0.3408
 1255TIP3    H125180   4.711  -0.011   5.915 -2.2486 -0.6546 -3.5969
 1255TIP3    H225181   4.839  -0.077   5.869 -1.3509 -0.1960 -1.8448
 1256TIP3   OH225182   0.329   3.594  17.236  0.3163 -0.1078 -0.0889
 1256TIP3    H125183   0.395   3.545  17.187 -0.3006 -0.9151 -0.1146
 1256TIP3    H225184   0.262   3.530  17.259 -1.0635  0.9139 -1.0800
 1257TIP3   OH225185   4.334   5.974   4.083  0.2110 -0.6801  0.4372
 1257TIP3    H125186   4.396   5.942   4.149  0.4396  0.4284  0.7935
 1257TIP3    H225187   4.389   6.006   4.012  0.1117  0.7525  0.9610
 1258TIP3   OH225188   6.643   1.339   2.005  0.0124  0.2054 -0.0920
 1258TIP3    H125189   6.578   1.296   1.949 -0.1085  1.4359 -0.9329
 1258TIP3    H225190   6.629   1.433   1.990  2.4633  0.4978 -0.8429
 1259TIP3   OH225191   1.696   6.400  12.552 -0.3293 -0.2385  0.0457
 1259TIP3    H125192   1.666   6.449  12.629 -0.1493  0.4111 -0.2895
 1259TIP3    H225193   1.719   6.468  12.488  1.0236 -0.7298 -0.0168
 1260TIP3   OH225194   1.194   3.480  16.303 -0.3442  0.7799  0.2951
 1260TIP3    H125195   1.217   3.573  16.302 -0.4561  0.8392  1.7525
 1260TIP3    H225196   1.227   3.447  16.219  0.2495  1.9927  0.0229
 1261TIP3   OH225197   2.537   2.126  12.210 -0.1659 -0.2771 -0.0459
 1261TIP3    H125198   2.502   2.107  12.297 -0.2136  0.1661  0.0317
 1261TIP3    H225199   2.628   2.096  12.213 -0.2607 -0.5513  0.0571
 1262TIP3   OH225200   0.137   2.071   2.779  0.0944 -0.2938  0.0810
 1262TIP3    H125201   0.159   1.978   2.791 -1.2943 -0.5019  1.3950
 1262TIP3    H225202   0.042   2.074   2.787  0.0987  1.2215 -0.1815
 1263TIP3   OH225203   2.172   0.858   4.500 -0.0951  0.0658 -0.0317
 1263TIP3    H125204   2.120   0.813   4.567 -1.2375 -0.7553 -1.4211
 1263TIP3    H225205   2.251   0.804   4.492 -0.3968 -0.3897 -0.0182
 1264TIP3   OH225206   2.223   0.050  13.123 -0.0859 -0.2999 -0.4712
 1264TIP3    H125207   2.236  -0.038  13.157  0.8198  0.2491  0.7325
 1264TIP3    H225208   2.131   0.070  13.140 -0.3407 -1.0853 -0.9376
 1265TIP3   OH225209   2.729   0.132  12.130  0.3689 -0.0735  0.1822
 1265TIP3    H125210   2.643   0.120  12.090  0.2161  0.4243  0.3473
 1265TIP3    H225211   2.710   0.148  12.223  0.7095 -1.0660  0.4375
 1266TIP3   OH225212   3.499   6.100  16.551  0.0865 -0.4991  0.1272
 1266TIP3    H125213   3.409   6.079  16.528  0.5322 -0.6050 -1.7317
 1266TIP3    H225214   3.511   6.065  16.639 -1.6293 -0.6041  0.3368
 1267TIP3   OH225215   2.532   0.480  14.526  0.3606 -0.5208  0.2187
 1267TIP3    H125216   2.468   0.549  14.508 -1.1360 -1.8360  0.2330
 1267TIP3    H225217   2.611   0.509  14.482 -0.5851  0.6232 -0.8079
 1268TIP3   OH225218   4.055   5.337   1.164 -0.6654  0.6822 -0.3317
 1268TIP3    H125219   4.142   5.353   1.128  0.3402 -0.3264  1.4743
 1268TIP3    H225220   4.041   5.409   1.226 -1.9684  1.8722 -1.8974
 1269TIP3   OH225221   4.156   1.503   4.889 -0.0277  0.2064 -0.4814
 1269TIP3    H125222   4.138   1.592   4.919  0.3735 -0.5330  2.1691
 1269TIP3    H225223   4.099   1.447   4.942  1.1341 -1.2464 -0.6965
 1270TIP3   OH225224   4.004   0.805   1.045 -0.5290  0.2340 -0.0930
 1270TIP3    H125225   3.919   0.836   1.017 -0.2059 -0.3636 -1.8429
 1270TIP3    H225226   4.064   0.833   0.976  0.7727  0.9503  1.2643
 1271TIP3   OH225227   5.075   4.251   3.739 -0.7154  0.5037  0.2651
 1271TIP3    H125228   5.158   4.296   3.753 -1.2021  0.7635  2.7378
 1271TIP3    H225229   5.093   4.159   3.759 -1.2433  0.7530  2.0726
 1272TIP3   OH225230   4.596   1.219   3.498  0.1410  0.2166 -0.4944
 1272TIP3    H125231   4.598   1.296   3.441  0.0987  0.3946 -0.2554
 1272TIP3    H225232   4.678   1.223   3.546 -0.0519  0.3453 -0.1735
 1273TIP3   OH225233   1.478   2.790   3.183 -0.4327  0.0796  0.0627
 1273TIP3    H125234   1.498   2.813   3.274  1.0654  1.1479 -0.5004
 1273TIP3    H225235   1.464   2.696   3.185  2.1423 -0.3716  1.0271
 1274TIP3   OH225236   2.039   3.585  12.625 -0.1502 -0.1960 -0.2128
 1274TIP3    H125237   1.995   3.631  12.553 -1.7941 -0.1997  0.7260
 1274TIP3    H225238   1.989   3.609  12.703  0.9792 -0.9716  0.7985
 1275TIP3   OH225239   0.135   4.474   2.983  0.1024 -0.1527 -0.0032
 1275TIP3    H125240   0.161   4.430   3.064 -0.0868  0.3806  0.3447
 1275TIP3    H225241   0.050   4.513   3.002 -0.1497 -0.3866 -0.5965
 1276TIP3   OH225242   1.373   3.350  11.407 -0.2006 -0.3114 -0.0425
 1276TIP3    H125243   1.440   3.298  11.361 -0.2298 -0.9055  0.5738
 1276TIP3    H225244   1.290   3.306  11.385 -0.3321  0.0794 -0.3351
 1277TIP3   OH225245   2.439   2.166  15.785  0.8565  0.2811  0.1291
 1277TIP3    H125246   2.439   2.262  15.787  0.5105  0.3402 -1.2493
 1277TIP3    H225247   2.531   2.142  15.791  1.0006  0.7355 -0.1884
 1278TIP3   OH225248   4.320   2.603   0.929 -0.0859  0.4082 -0.5246
 1278TIP3    H125249   4.375   2.632   0.855 -0.2999  0.8579 -0.5096
 1278TIP3    H225250   4.292   2.685   0.971 -0.6989  0.1755 -0.4822
 1279TIP3   OH225251   1.943   6.421  14.267 -0.1061  0.2639  0.0705
 1279TIP3    H125252   1.933   6.476  14.345 -1.3528  0.3331 -0.1167
 1279TIP3    H225253   1.975   6.481  14.199  0.8204  0.2398  0.4779
 1280TIP3   OH225254   5.682   0.045   2.465  0.0632  0.7086  0.0875
 1280TIP3    H125255   5.692   0.057   2.370 -0.7522  0.8431  0.0127
 1280TIP3    H225256   5.770   0.026   2.496  0.5096  1.6738 -0.5528
 1281TIP3   OH225257   1.313   2.301   1.453  0.2081  0.4058 -0.1829
 1281TIP3    H125258   1.355   2.314   1.538  0.8445 -1.4871 -0.1708
 1281TIP3    H225259   1.220   2.312   1.471  0.3339  0.0388  0.7799
 1282TIP3   OH225260   0.828   2.774  16.371 -1.0420  0.3780 -0.3606
 1282TIP3    H125261   0.764   2.845  16.382  0.4410  1.7463 -0.2426
 1282TIP3    H225262   0.867   2.790  16.286 -0.1521  0.1482 -0.0033
 1283TIP3   OH225263   2.592   1.859  16.692  0.0030  0.3055 -0.6248
 1283TIP3    H125264   2.583   1.774  16.736  2.4719 -0.8201 -2.0516
 1283TIP3    H225265   2.502   1.888  16.677 -0.9245 -1.8657  0.2537
 1284TIP3   OH225266   1.502   5.621   0.355 -0.0334  0.4799  0.0079
 1284TIP3    H125267   1.433   5.599   0.418  1.4569 -2.6714  0.7395
 1284TIP3    H225268   1.571   5.661   0.408 -0.0738  0.8369 -0.2044
 1285TIP3   OH225269   5.281   0.332   4.782  0.2192 -0.3355 -0.4856
 1285TIP3    H125270   5.362   0.340   4.730  1.1263  1.7973  1.0805
 1285TIP3    H225271   5.302   0.375   4.865 -2.4355 -0.0557  0.1266
 1286TIP3   OH225272   1.717   1.534  14.418 -0.0609  0.4275  0.2696
 1286TIP3    H125273   1.737   1.540  14.511  0.7399 -0.0699  0.1411
 1286TIP3    H225274   1.799   1.507  14.378 -0.4094  0.5989 -0.5784
 1287TIP3   OH225275   3.531   0.682   1.201 -0.7097  0.3397 -0.2753
 1287TIP3    H125276   3.505   0.607   1.253  0.5812  0.0690  0.0266
 1287TIP3    H225277   3.615   0.708   1.237 -0.4542  1.0285 -1.3086
 1288TIP3   OH225278   6.583   5.536  11.897 -0.0097 -0.5268  0.3350
 1288TIP3    H125279   6.526   5.465  11.927  1.6234 -1.3192  1.7758
 1288TIP3    H225280   6.665   5.492  11.873  1.2891  0.8742  1.9012
 1289TIP3   OH225281   2.738   5.269   0.827 -0.0421  0.3908 -0.4749
 1289TIP3    H125282   2.832   5.263   0.810  0.2773  2.2286  0.4132
 1289TIP3    H225283   2.729   5.244   0.919 -0.6009 -0.8062 -0.8262
 1290TIP3   OH225284   0.739   4.766   3.586 -0.0049  0.1429  0.7132
 1290TIP3    H125285   0.723   4.859   3.601 -0.4587  0.4336 -1.2361
 1290TIP3    H225286   0.791   4.763   3.505 -0.4019 -1.3042  0.4714
 1291TIP3   OH225287   2.339   0.256   3.363  0.0356 -0.2217 -1.0983
 1291TIP3    H125288   2.336   0.351   3.359 -1.4935 -0.1792  0.1813
 1291TIP3    H225289   2.414   0.236   3.420  0.1521  0.2190 -1.0972
 1292TIP3   OH225290   4.697   1.726  14.291  0.2046 -0.2088 -0.2765
 1292TIP3    H125291   4.752   1.797  14.323  0.3844  0.4658 -1.9936
 1292TIP3    H225292   4.757   1.667  14.245 -0.0623 -1.0730  0.4534
 1293TIP3   OH225293   3.576   4.996   2.432 -0.0961 -0.3599 -0.0300
 1293TIP3    H125294   3.578   4.916   2.380 -0.2365 -0.6457  0.3973
 1293TIP3    H225295   3.584   4.966   2.523 -0.2008  0.1047  0.1374
 1294TIP3   OH225296   2.892   1.973  13.812  0.2900 -0.5457 -0.3421
 1294TIP3    H125297   2.919   2.063  13.827 -1.7006 -0.0211  0.2462
 1294TIP3    H225298   2.901   1.930  13.897 -0.4999 -0.4311 -0.2009
 1295TIP3   OH225299   6.656   6.302   0.285  0.0886 -0.4086  0.0052
 1295TIP3    H125300   6.588   6.364   0.257 -0.3971 -0.4658  1.0106
 1295TIP3    H225301   6.629   6.275   0.373  0.3456 -1.9633 -0.3612
 1296TIP3   OH225302   0.389   1.629  15.043 -0.0201  0.1319 -0.0602
 1296TIP3    H125303   0.390   1.578  15.124  3.6182 -0.1506 -0.1280
 1296TIP3    H225304   0.349   1.571  14.978  0.1582 -0.9753  0.8060
 1297TIP3   OH225305   2.320   4.469   3.632 -0.2638  1.1052 -0.4114
 1297TIP3    H125306   2.259   4.533   3.594 -1.2343  1.2327  1.2414
 1297TIP3    H225307   2.288   4.456   3.722 -0.2262 -1.8512 -0.7296
 1298TIP3   OH225308   1.794   1.290   1.015  0.1963  0.5463  0.2034
 1298TIP3    H125309   1.773   1.271   1.106 -1.3960  1.5536  0.1033
 1298TIP3    H225310   1.737   1.231   0.965  0.5300  0.5111 -0.1370
 1299TIP3   OH225311   1.957   3.596   5.712  0.3362 -0.0935 -0.5595
 1299TIP3    H125312   1.923   3.617   5.799 -0.3952 -0.7687 -0.6699
 1299TIP3    H225313   1.929   3.670   5.657 -1.5760 -0.9062 -0.7827
 1300TIP3   OH225314   1.586   1.244   0.448 -0.2366 -0.3277  0.4043
 1300TIP3    H125315   1.589   1.313   0.515  0.6671 -1.3262  1.4449
 1300TIP3    H225316   1.677   1.236   0.419 -0.4519 -0.6248 -0.1917
 1301TIP3   OH225317   6.690   3.333   0.879 -0.0043 -0.2295 -0.1194
 1301TIP3    H125318   6.606   3.294   0.854 -0.0189 -1.2723  1.4199
 1301TIP3    H225319   6.755   3.281   0.831 -0.2071  0.2653 -0.9376
 1302TIP3   OH225320   3.505   1.924   2.425  0.8594 -0.5310 -0.0304
 1302TIP3    H125321   3.493   1.876   2.343  0.8926 -0.7728  0.1087
 1302TIP3    H225322   3.476   2.013   2.404 -0.0147 -0.8116 -0.0528
 1303TIP3   OH225323   1.813   2.826   0.320 -0.0542 -0.3259 -0.7312
 1303TIP3    H125324   1.888   2.819   0.260  1.0235  0.0476  0.5135
 1303TIP3    H225325   1.816   2.745   0.371 -0.5955 -0.3708 -0.7671
 1304TIP3   OH225326   2.106   2.299  14.235  0.0767 -0.4782 -0.2927
 1304TIP3    H125327   2.167   2.231  14.207 -1.0038 -2.0625  1.0364
 1304TIP3    H225328   2.099   2.288  14.330 -1.3505  0.4407 -0.2580
 1305TIP3   OH225329   1.043   1.082  14.519  0.0690 -0.1496  0.1971
 1305TIP3    H125330   1.105   1.009  14.527 -0.4648 -0.7119 -0.5663
 1305TIP3    H225331   1.002   1.069  14.433 -0.7962  0.4487  0.5035
 1306TIP3   OH225332   4.524   2.032  15.275 -0.3234  0.2370 -0.5624
 1306TIP3    H125333   4.453   2.081  15.317 -0.7372 -0.1722 -0.7788
 1306TIP3    H225334   4.587   2.016  15.346  0.6023  2.4569 -0.8087
 1307TIP3   OH225335   0.036   2.165   2.478  0.4023  0.3570 -0.1879
 1307TIP3    H125336   0.051   2.098   2.410 -0.5827 -1.0057  0.8684
 1307TIP3    H225337   0.085   2.133   2.554 -1.1080  0.1493  0.7264
 1308TIP3   OH225338   0.338   5.575  17.275 -0.2056 -0.2153 -0.5525
 1308TIP3    H125339   0.284   5.562  17.352 -0.2156 -1.9769 -0.8251
 1308TIP3    H225340   0.280   5.617  17.211 -0.1875  1.2806  0.3607
 1309TIP3   OH225341   0.578   0.506   3.972 -0.4689 -0.1846  0.3125
 1309TIP3    H125342   0.664   0.520   3.933 -0.2471 -1.0775  0.4482
 1309TIP3    H225343   0.557   0.588   4.016 -0.9701  1.0534 -2.0988
 1310TIP3   OH225344   5.351   2.881  14.815  0.8259  0.5593 -0.2855
 1310TIP3    H125345   5.405   2.948  14.856  2.5413 -0.2970 -1.0282
 1310TIP3    H225346   5.261   2.908  14.833  1.4849  1.8392  1.3324
 1311TIP3   OH225347   3.765   1.216  15.475  0.3299 -0.2287 -0.4866
 1311TIP3    H125348   3.727   1.269  15.405  1.4919 -3.2392 -3.6876
 1311TIP3    H225349   3.690   1.178  15.521 -0.4913  0.4627 -1.2327
 1312TIP3   OH225350   1.281   3.337   6.574 -0.9028  0.0796  0.1431
 1312TIP3    H125351   1.224   3.296   6.639 -1.1420  1.4691  0.8355
 1312TIP3    H225352   1.262   3.430   6.580 -0.9396  0.2445 -1.9500
 1313TIP3   OH225353   6.696   3.960   4.198 -0.8559  0.5182 -0.5866
 1313TIP3    H125354   6.781   3.920   4.181  0.1300  2.6947 -1.0818
 1313TIP3    H225355   6.648   3.949   4.117 -0.1955  1.2078 -1.0914
 1314TIP3   OH225356   6.211   4.800  15.822 -0.5050 -0.2042 -0.1472
 1314TIP3    H125357   6.171   4.759  15.899  1.6276 -2.1571  0.0275
 1314TIP3    H225358   6.185   4.744  15.749  1.1422 -1.0402 -0.1377
 1315TIP3   OH225359   0.384   6.179   3.994  0.5232 -0.2484 -0.0402
 1315TIP3    H125360   0.395   6.156   3.902  0.5362 -0.0258 -0.0951
 1315TIP3    H225361   0.358   6.271   3.993  1.1933 -0.0512  0.2105
 1316TIP3   OH225362   0.647   5.183   6.479 -0.3651  0.2919  0.2263
 1316TIP3    H125363   0.732   5.147   6.505  0.6207  0.9509 -1.8443
 1316TIP3    H225364   0.590   5.107   6.471  1.4460 -0.9227 -3.2311
 1317TIP3   OH225365   1.969   4.429   0.205 -0.5355  0.3888 -0.1363
 1317TIP3    H125366   1.917   4.498   0.246 -0.6031 -0.5121  1.3826
 1317TIP3    H225367   2.049   4.424   0.257  1.2482  1.8524 -2.5226
 1318TIP3   OH225368   2.458   5.473   3.208  0.3006 -0.0072 -0.6342
 1318TIP3    H125369   2.478   5.504   3.120  0.4614 -1.0256 -0.9791
 1318TIP3    H225370   2.544   5.453   3.246  0.4600  2.7395  0.7042
 1319TIP3   OH225371   3.081   0.419  14.255 -0.1424 -0.4113  0.3089
 1319TIP3    H125372   3.168   0.404  14.218  0.7162 -0.4081  2.2341
 1319TIP3    H225373   3.062   0.510  14.235  0.0011 -0.5854 -0.6826
 1320TIP3   OH225374   0.310   0.892   0.697 -0.0379 -0.2667 -0.1031
 1320TIP3    H125375   0.298   0.964   0.636  0.5500  1.0631  1.2963
 1320TIP3    H225376   0.397   0.907   0.736  0.9328 -2.7748 -1.1034
 1321TIP3   OH225377   6.636   0.925   2.415 -1.0816 -0.2087  0.3621
 1321TIP3    H125378   6.711   0.865   2.414 -1.7382 -1.1139  1.8257
 1321TIP3    H225379   6.667   1.003   2.369  1.3515  0.1299  2.3487
 1322TIP3   OH225380   2.978   4.795   3.684 -0.2907 -0.2226 -0.3767
 1322TIP3    H125381   2.889   4.818   3.656 -1.5711 -0.7059  2.8639
 1322TIP3    H225382   2.987   4.835   3.771  1.8323 -2.0593  0.3359
 1323TIP3   OH225383   2.642   0.402   1.606 -0.2825 -0.0692 -0.2568
 1323TIP3    H125384   2.635   0.406   1.510  0.4215  0.2530 -0.3045
 1323TIP3    H225385   2.597   0.480   1.637 -0.6509 -0.2565 -0.3141
 1324TIP3   OH225386   2.473   5.998  14.165 -0.2908 -0.2896  0.2993
 1324TIP3    H125387   2.436   5.952  14.241 -1.0574 -0.7385 -0.3401
 1324TIP3    H225388   2.523   6.070  14.204 -0.0806 -0.9230  1.2645
 1325TIP3   OH225389   4.634   0.941   5.493 -0.1290  0.2084 -0.1494
 1325TIP3    H125390   4.676   0.859   5.517  0.9517  0.5731 -0.7030
 1325TIP3    H225391   4.673   1.007   5.551  0.3948  0.6098 -0.9154
 1326TIP3   OH225392   3.355   2.269  16.600  0.6699 -0.1970  0.1840
 1326TIP3    H125393   3.404   2.319  16.535  1.1148  0.9657  1.3462
 1326TIP3    H225394   3.406   2.280  16.681 -1.0631  0.4001  1.2682
 1327TIP3   OH225395   2.519   5.687  15.506 -0.3113 -0.2714 -0.1868
 1327TIP3    H125396   2.445   5.672  15.448 -0.1741 -0.5411 -0.2936
 1327TIP3    H225397   2.596   5.670  15.452 -0.1847 -2.3168  0.5203
 1328TIP3   OH225398   3.848   6.527  11.356  0.2604 -0.5726 -0.1256
 1328TIP3    H125399   3.815   6.607  11.315 -0.8103 -2.0464 -2.3177
 1328TIP3    H225400   3.943   6.538  11.356  0.1677  0.3977 -1.0504
 1329TIP3   OH225401   2.674   1.381  16.791 -0.0897  0.3249  0.5191
 1329TIP3    H125402   2.638   1.356  16.876 -0.5530  0.1971  0.2920
 1329TIP3    H225403   2.598   1.380  16.732  0.0803  1.2062  0.2771
 1330TIP3   OH225404   3.446   5.899  11.486 -0.4693 -0.3491  0.1068
 1330TIP3    H125405   3.538   5.911  11.508 -0.7397  0.8695  0.6511
 1330TIP3    H225406   3.445   5.887  11.391  0.2468 -0.3537  0.0989
 1331TIP3   OH225407   2.794   0.373   4.394  0.5100  0.1649  0.0484
 1331TIP3    H125408   2.746   0.303   4.437  0.9005  2.3690  4.6798
 1331TIP3    H225409   2.727   0.433   4.362  0.1950 -0.1715  0.0773
 1332TIP3   OH225410   5.183   3.871   2.868 -0.1286  0.6297 -0.5656
 1332TIP3    H125411   5.132   3.810   2.921  0.2183  2.4063  2.0382
 1332TIP3    H225412   5.167   3.956   2.908  3.4335  1.5218 -0.6555
 1333TIP3   OH225413   0.580   1.026  13.494  0.0245  0.2519  0.6048
 1333TIP3    H125414   0.661   1.024  13.544  0.6176  0.5249 -0.3268
 1333TIP3    H225415   0.558   0.934  13.478  1.1668  0.1851 -0.7324
 1334TIP3   OH225416   3.296   6.704  14.194 -0.3377 -0.1298  0.0701
 1334TIP3    H125417   3.279   6.769  14.262 -0.9749 -1.0651  0.8427
 1334TIP3    H225418   3.225   6.716  14.131 -0.2326  0.1790  0.0113
 1335TIP3   OH225419   4.573   5.750  12.171  0.3038 -0.8345 -0.1221
 1335TIP3    H125420   4.592   5.804  12.094  1.9773 -0.5472  0.4546
 1335TIP3    H225421   4.657   5.709  12.193 -0.2134 -1.1602  1.3574
 1336TIP3   OH225422   2.387   0.042  13.677  0.4395  0.4746 -0.1385
 1336TIP3    H125423   2.447  -0.026  13.647  0.3112 -0.1561  0.9924
 1336TIP3    H225424   2.391   0.038  13.772 -0.6574  1.0823 -0.0489
 1337TIP3   OH225425   5.939   0.783  16.317 -0.6435 -0.5159  0.0375
 1337TIP3    H125426   5.844   0.792  16.310 -0.6434 -0.6949 -0.2435
 1337TIP3    H225427   5.952   0.711  16.377 -0.6891 -0.6339 -0.0946
 1338TIP3   OH225428   5.360   5.215  16.254 -0.4821 -0.2098 -0.0917
 1338TIP3    H125429   5.285   5.274  16.261 -0.6619 -0.5433  0.9526
 1338TIP3    H225430   5.337   5.140  16.308 -0.2967 -1.3140 -1.4855
 1339TIP3   OH225431   4.522   4.962  16.200  0.0519  0.3999  0.2518
 1339TIP3    H125432   4.605   4.954  16.248 -0.6545 -0.2751  1.4064
 1339TIP3    H225433   4.491   4.872  16.189 -0.1614  0.5910 -0.8673
 1340TIP3   OH225434   0.888   2.538  13.850  0.3374 -0.4523 -0.6860
 1340TIP3    H125435   0.950   2.485  13.899  0.4781 -1.0650 -1.5204
 1340TIP3    H225436   0.940   2.580  13.781 -0.3628 -2.0979 -2.3052
 1341TIP3   OH225437   5.632   6.460   1.673 -0.2757  0.9423  1.0035
 1341TIP3    H125438   5.550   6.502   1.649  0.0213  1.2221  0.4549
 1341TIP3    H225439   5.679   6.449   1.590 -0.2061 -0.1823  1.1761
 1342TIP3   OH225440   6.028   2.234  12.853  0.5168 -0.3724  0.1502
 1342TIP3    H125441   6.065   2.252  12.939 -2.2769  0.6126  1.2540
 1342TIP3    H225442   5.979   2.153  12.864 -0.9200  0.4200 -0.0897
 1343TIP3   OH225443   1.967   2.925  16.051  0.2956 -0.0963  0.1043
 1343TIP3    H125444   1.936   2.931  15.961 -0.7652  4.8121  0.5076
 1343TIP3    H225445   2.052   2.970  16.050  0.3677 -0.1643  1.4674
 1344TIP3   OH225446   0.135   5.676   4.004 -0.5543 -0.4828  0.5149
 1344TIP3    H125447   0.185   5.610   4.052 -1.6183 -1.6702  0.0335
 1344TIP3    H225448   0.098   5.732   4.072  0.4426 -0.3045  0.9252
 1345TIP3   OH225449   6.606   4.993   0.775 -0.4565 -0.4034 -0.0339
 1345TIP3    H125450   6.564   4.910   0.797 -1.3026 -0.1535 -0.6462
 1345TIP3    H225451   6.563   5.020   0.694 -0.5286  0.8653  0.4049
 1346TIP3   OH225452   1.369   0.216   1.591  0.3308 -0.3994 -0.5298
 1346TIP3    H125453   1.283   0.253   1.606 -0.5953 -2.2779 -0.8452
 1346TIP3    H225454   1.352   0.134   1.544  2.4516  0.3155 -2.7212
 1347TIP3   OH225455   1.007   2.039   0.297  0.3792 -0.0608 -0.4628
 1347TIP3    H125456   0.941   1.979   0.262 -0.6135 -0.3137  1.6711
 1347TIP3    H225457   0.955   2.107   0.341  1.4661 -0.7548  2.0711
 1348TIP3   OH225458   0.044   2.679  11.300 -0.0392 -0.1519  0.3802
 1348TIP3    H125459   0.080   2.592  11.313  0.2091  0.0302  0.9015
 1348TIP3    H225460   0.009   2.704  11.385 -1.5485 -0.3873 -0.1338
 1349TIP3   OH225461   2.086   4.471   5.631  0.4392  0.3190  0.0553
 1349TIP3    H125462   2.178   4.473   5.607  0.8281  2.8222  1.4720
 1349TIP3    H225463   2.040   4.494   5.550  1.0841 -0.1985 -0.4734
 1350TIP3   OH225464   1.840   2.263  14.210  0.1402  0.1757 -0.4209
 1350TIP3    H125465   1.934   2.271  14.230  0.1128 -1.3807  0.5058
 1350TIP3    H225466   1.801   2.234  14.292 -1.0446  0.0994 -1.0016
 1351TIP3   OH225467   6.518   3.754   2.687 -0.2153 -0.1541 -0.2279
 1351TIP3    H125468   6.528   3.840   2.728 -2.6237 -0.0716  0.3233
 1351TIP3    H225469   6.466   3.772   2.608 -3.4219 -1.3637  1.4402
 1352TIP3   OH225470   0.490   4.335  13.394 -0.5569 -0.1675  0.4407
 1352TIP3    H125471   0.498   4.381  13.311  0.5431  0.5424  0.9159
 1352TIP3    H225472   0.569   4.281  13.400 -0.1617  0.4765  1.4084
 1353TIP3   OH225473   4.624   4.522  10.730  0.1057 -0.0775 -0.3932
 1353TIP3    H125474   4.557   4.455  10.734 -1.6601  1.6191  0.3538
 1353TIP3    H225475   4.707   4.474  10.722 -1.2496 -2.2070 -3.0049
 1354TIP3   OH225476   1.404   0.850   1.029  0.1675 -0.2298 -0.2633
 1354TIP3    H125477   1.321   0.881   0.993 -0.3137  0.2003  1.1649
 1354TIP3    H225478   1.390   0.756   1.042  0.4184 -0.4349 -1.3238
 1355TIP3   OH225479   0.124   2.387  14.973  0.2514 -0.5020 -0.5811
 1355TIP3    H125480   0.067   2.359  15.044  2.0850 -0.9826  0.7677
 1355TIP3    H225481   0.185   2.448  15.014  0.4886  0.3052 -2.0617
 1356TIP3   OH225482   6.379   3.996  12.662  0.2734 -0.0355 -0.0925
 1356TIP3    H125483   6.408   4.078  12.704  0.3650 -0.2136  0.1943
 1356TIP3    H225484   6.371   4.019  12.569 -0.0443  0.3951  0.0364
 1357TIP3   OH225485   2.638   1.896   2.731 -0.2049  0.1255 -0.6354
 1357TIP3    H125486   2.600   1.968   2.680  0.2741  0.4556 -0.5264
 1357TIP3    H225487   2.562   1.856   2.774 -0.8829 -1.2261 -2.8900
 1358TIP3   OH225488   5.745   1.582   2.121 -0.3626  0.1526 -0.3271
 1358TIP3    H125489   5.677   1.530   2.078 -1.5555  1.3839 -0.0168
 1358TIP3    H225490   5.735   1.563   2.214 -0.7917  0.8741 -0.2133
 1359TIP3   OH225491   5.827   0.814   5.265 -0.5082  0.1882  0.0401
 1359TIP3    H125492   5.865   0.824   5.178  1.4013 -0.7893  0.7097
 1359TIP3    H225493   5.822   0.720   5.279 -2.6814  0.2884  0.2390
 1360TIP3   OH225494   2.402   4.949   4.855  0.1456 -0.4274 -0.0929
 1360TIP3    H125495   2.496   4.957   4.874 -0.0223  3.7518 -0.1162
 1360TIP3    H225496   2.397   4.884   4.785  2.8428 -1.7076  0.7534
 1361TIP3   OH225497   0.943   3.693   0.549 -0.6718 -0.5844  0.9018
 1361TIP3    H125498   0.987   3.620   0.592  1.2042  0.2622  0.5274
 1361TIP3    H225499   0.975   3.770   0.596 -0.9926  0.1308 -0.0259
 1362TIP3   OH225500   3.088   0.691  14.599 -0.0717 -0.0770 -0.0376
 1362TIP3    H125501   3.093   0.634  14.676 -0.0240 -2.0733 -1.4378
 1362TIP3    H225502   3.015   0.750  14.617 -1.0538 -1.5267  0.8934
 1363TIP3   OH225503   3.618   1.043  16.376  0.4183 -0.2721  0.3330
 1363TIP3    H125504   3.657   1.101  16.311 -0.0892 -2.7580 -2.3855
 1363TIP3    H225505   3.539   1.089  16.404 -0.9755 -0.2517 -3.1149
 1364TIP3   OH225506   1.857   0.539  11.912 -0.4039  0.1704 -0.3167
 1364TIP3    H125507   1.945   0.562  11.880  1.3469 -1.8472  2.5423
 1364TIP3    H225508   1.831   0.614  11.966  0.8744 -0.3041  1.0414
 1365TIP3   OH225509   3.171   0.410   2.909 -0.8517  0.0904 -0.0834
 1365TIP3    H125510   3.149   0.325   2.871  1.5423 -0.2642 -0.9059
 1365TIP3    H225511   3.164   0.471   2.835 -0.9801  0.3101  0.1097
 1366TIP3   OH225512   2.179   4.958   2.087 -0.0724  0.2532  0.3613
 1366TIP3    H125513   2.158   4.927   1.999 -0.0363  0.9619  0.0913
 1366TIP3    H225514   2.098   4.995   2.120  0.2963  1.4919 -0.0386
 1367TIP3   OH225515   1.912   3.935   4.182 -0.3565  0.1738 -0.0711
 1367TIP3    H125516   2.004   3.939   4.156  0.0134  1.0672  1.2808
 1367TIP3    H225517   1.864   3.937   4.099  0.8307 -1.2137 -0.8475
 1368TIP3   OH225518   1.009   6.709  16.722  0.0496  0.1697 -0.3535
 1368TIP3    H125519   0.957   6.734  16.646 -1.2933  1.0059  0.8030
 1368TIP3    H225520   0.970   6.627  16.752 -0.3741  0.5943  0.2802
 1369TIP3   OH225521   5.804   6.338   3.371  0.4657 -0.2923  0.3411
 1369TIP3    H125522   5.783   6.282   3.296  0.7063  0.0950 -0.0175
 1369TIP3    H225523   5.719   6.370   3.401  0.3194 -0.8824  0.5792
 1370TIP3   OH225524   5.372   4.121  12.351  0.4093 -0.3262  0.3610
 1370TIP3    H125525   5.464   4.108  12.328 -0.1363 -0.8973 -1.7026
 1370TIP3    H225526   5.324   4.098  12.272 -1.5017  0.3807  1.2510
 1371TIP3   OH225527   1.438   5.576  14.357  0.2337 -0.2382  0.0202
 1371TIP3    H125528   1.424   5.602  14.266 -0.7568 -0.7571  0.0067
 1371TIP3    H225529   1.405   5.650  14.408  1.2479  0.2653 -0.0320
 1372TIP3   OH225530   2.910   1.409   3.671  0.3404 -0.6188 -0.2169
 1372TIP3    H125531   2.898   1.490   3.622  2.0671 -0.9325 -1.2395
 1372TIP3    H225532   2.940   1.346   3.606  2.3486 -1.1647  1.1491
 1373TIP3   OH225533   3.195   6.338  12.210  0.0332 -0.4099 -0.8190
 1373TIP3    H125534   3.197   6.256  12.260 -1.7523  0.1933  0.2992
 1373TIP3    H225535   3.167   6.404  12.272  1.7477  1.1714 -1.6252
 1374TIP3   OH225536   0.810   3.964  12.629 -0.0036  0.2171 -0.2475
 1374TIP3    H125537   0.751   4.009  12.690  1.0205  2.4689 -0.7995
 1374TIP3    H225538   0.798   4.010  12.546 -0.1259 -1.6934 -1.3379
 1375TIP3   OH225539   5.438   5.111   3.807  0.1293  0.2225  0.4489
 1375TIP3    H125540   5.464   5.039   3.864 -0.1123  0.7871  1.3011
 1375TIP3    H225541   5.517   5.164   3.797 -0.4290  1.5588  2.4673
 1376TIP3   OH225542   5.759   0.498  12.464 -0.1797 -0.2059  0.2396
 1376TIP3    H125543   5.790   0.415  12.426  0.3625 -0.1292  0.5045
 1376TIP3    H225544   5.771   0.562  12.394 -1.9308 -0.6004 -0.4611
 1377TIP3   OH225545   0.948   0.670  14.229 -0.0616  0.3980  0.5668
 1377TIP3    H125546   0.913   0.591  14.189 -0.3050 -0.0154  1.5674
 1377TIP3    H225547   1.042   0.653  14.240  0.2146  0.9342 -0.7759
 1378TIP3   OH225548   1.762   5.712  12.271  0.0167  0.1255  0.5258
 1378TIP3    H125549   1.704   5.638  12.256 -0.2600  0.6140 -0.9211
 1378TIP3    H225550   1.795   5.698  12.360 -0.9882 -1.0565  0.7459
 1379TIP3   OH225551   2.108   4.792   2.953 -0.4474  0.3769 -0.0259
 1379TIP3    H125552   2.031   4.833   2.990 -0.5143 -0.8163  1.2497
 1379TIP3    H225553   2.077   4.708   2.918  0.2695 -0.1959  0.6578
 1380TIP3   OH225554   3.106   3.902  10.673  0.1848  0.5587  0.0557
 1380TIP3    H125555   3.132   3.941  10.756  1.5684  0.6593 -0.4033
 1380TIP3    H225556   3.048   3.967  10.633 -1.3010  0.0891  1.3485
 1381TIP3   OH225557   0.590   4.165  15.171  0.0231 -0.1501 -0.3013
 1381TIP3    H125558   0.524   4.101  15.143  2.4126 -2.0724 -1.9364
 1381TIP3    H225559   0.671   4.115  15.174  1.7896  2.5532 -0.3263
 1382TIP3   OH225560   1.661   1.258  12.066  0.3668  0.3927  0.3704
 1382TIP3    H125561   1.641   1.293  12.153 -0.9213  0.0588  0.2229
 1382TIP3    H225562   1.733   1.313  12.034  0.3542  0.9972  1.3367
 1383TIP3   OH225563   3.337   2.375   1.576 -0.0007  0.2527  0.2765
 1383TIP3    H125564   3.316   2.338   1.662 -1.2515  0.2586 -0.0162
 1383TIP3    H225565   3.418   2.424   1.591  0.4653 -0.7265  1.1749
 1384TIP3   OH225566   4.435   3.999  12.721  0.0568  0.6998 -0.2492
 1384TIP3    H125567   4.394   4.014  12.807  2.0111 -1.3559  1.1357
 1384TIP3    H225568   4.411   4.077  12.670  0.1572  2.8155  2.6616
 1385TIP3   OH225569   4.349   4.604  16.531 -0.3595  0.0602 -0.1396
 1385TIP3    H125570   4.307   4.545  16.469 -1.0885 -0.1077  0.4979
 1385TIP3    H225571   4.430   4.560  16.556 -1.1249 -0.9141  0.6965
 1386TIP3   OH225572   3.270   1.904   1.026  0.3786 -0.0695 -0.3730
 1386TIP3    H125573   3.244   1.939   0.941 -0.1101  1.4277  0.3578
 1386TIP3    H225574   3.281   1.810   1.012  0.9548  0.2455 -2.2353
 1387TIP3   OH225575   4.819   1.976   3.755 -0.4842 -0.4355  0.8243
 1387TIP3    H125576   4.914   1.965   3.747 -0.5658 -1.2830  0.8616
 1387TIP3    H225577   4.807   2.029   3.834 -0.0266  0.0680  0.5585
 1388TIP3   OH225578   5.553   6.618  11.948  0.8068 -0.3196  0.2190
 1388TIP3    H125579   5.502   6.540  11.973 -1.0627  1.1257  1.1678
 1388TIP3    H225580   5.506   6.653  11.872 -0.0693  1.3691  1.4665
 1389TIP3   OH225581   1.112   1.520   1.436  0.1376 -0.1161 -0.0713
 1389TIP3    H125582   1.095   1.444   1.493  2.1898 -0.3364  0.3348
 1389TIP3    H225583   1.123   1.483   1.349  1.4241 -0.3839  0.1722
 1390TIP3   OH225584   2.259   0.011   2.820 -0.2923 -0.8502 -0.0616
 1390TIP3    H125585   2.258   0.000   2.915 -2.1211 -1.6600 -0.1400
 1390TIP3    H225586   2.342   0.056   2.802 -0.1863 -0.1418  1.9572
 1391TIP3   OH225587   5.971   1.956  16.989 -0.3474 -0.2676  0.0258
 1391TIP3    H125588   5.960   1.941  17.083 -1.6368 -0.9737 -0.2089
 1391TIP3    H225589   5.884   1.941  16.953 -0.6412  3.0403 -0.9112
 1392TIP3   OH225590   3.198   2.641   5.536  0.4305 -0.2920 -0.0365
 1392TIP3    H125591   3.139   2.664   5.607 -0.8556 -1.9554 -0.5005
 1392TIP3    H225592   3.257   2.575   5.573  0.6328 -0.1682 -0.1380
 1393TIP3   OH225593   1.986   0.974  15.133 -0.0159  0.4457  0.0600
 1393TIP3    H125594   1.963   1.042  15.197 -0.5151  1.0357 -0.7276
 1393TIP3    H225595   1.914   0.912  15.137  1.2202 -0.9950  1.9981
 1394TIP3   OH225596   0.130   2.951  12.737  0.1107  0.4948 -0.4196
 1394TIP3    H125597   0.152   3.042  12.760 -0.2523  0.2792  0.8288
 1394TIP3    H225598   0.086   2.959  12.653  2.0012  1.2476 -1.4115
 1395TIP3   OH225599   2.336   1.870  10.590 -0.3496 -0.3024  0.4781
 1395TIP3    H125600   2.424   1.905  10.575 -0.4754 -0.2979 -0.2941
 1395TIP3    H225601   2.346   1.775  10.583 -0.7228 -0.2267 -1.4713
 1396TIP3   OH225602   5.522   3.098   4.015  0.2719  0.3769  0.3546
 1396TIP3    H125603   5.458   3.032   3.989  0.4357  0.9462 -1.6278
 1396TIP3    H225604   5.575   3.113   3.937  3.1774 -0.3850  2.0143
 1397TIP3   OH225605   4.913   5.719  11.484  0.0578  0.0537  0.0110
 1397TIP3    H125606   4.948   5.645  11.432 -0.4781 -0.1749 -0.0329
 1397TIP3    H225607   4.836   5.748  11.434 -1.5837 -1.3582  1.5900
 1398TIP3   OH225608   3.919   2.675   5.348  0.2067  0.4730  0.1456
 1398TIP3    H125609   3.923   2.770   5.346  2.9133  0.4264 -1.1340
 1398TIP3    H225610   3.839   2.653   5.299 -0.9678  2.0228  1.2547
 1399TIP3   OH225611   2.390   3.734   3.767 -0.7687  0.7040  0.1572
 1399TIP3    H125612   2.390   3.790   3.689  1.4800  0.1184 -0.3383
 1399TIP3    H225613   2.297   3.717   3.784 -1.3691  1.8656 -1.6409
 1400TIP3   OH225614   6.402   1.501  14.533  0.1575  0.2618 -0.0202
 1400TIP3    H125615   6.463   1.529  14.464  0.3938  0.6039  0.3278
 1400TIP3    H225616   6.419   1.560  14.606 -0.5727  0.3447  0.0938
 1401TIP3   OH225617   1.509   3.630  14.107 -0.0881  0.1946  0.1042
 1401TIP3    H125618   1.534   3.642  14.016 -0.1034  0.6265  0.1586
 1401TIP3    H225619   1.564   3.558  14.138  1.8238  1.7370  0.5040
 1402TIP3   OH225620   1.688   2.282   0.931 -0.4702  0.1449  0.5915
 1402TIP3    H125621   1.679   2.285   1.026  0.6414 -0.9609  0.7544
 1402TIP3    H225622   1.743   2.206   0.914 -0.6670  0.3067 -0.9486
 1403TIP3   OH225623   1.052   2.356   1.481  0.4943  0.0328 -0.9940
 1403TIP3    H125624   1.075   2.384   1.569 -0.0533 -0.4964 -0.6701
 1403TIP3    H225625   0.956   2.365   1.477 -0.0143 -3.5559 -0.1817
 1404TIP3   OH225626   0.247   0.868  13.927  0.1754  0.5457  0.4975
 1404TIP3    H125627   0.231   0.963  13.932  1.7495  0.8717 -0.0247
 1404TIP3    H225628   0.264   0.842  14.017 -4.7585 -0.2073  1.4670
 1405TIP3   OH225629   1.272   3.067  14.968 -0.1455  0.1502 -0.0692
 1405TIP3    H125630   1.340   3.132  14.986  0.1416 -0.3417  0.7262
 1405TIP3    H225631   1.313   2.983  14.991 -0.8052 -0.2178 -0.2009
 1406TIP3   OH225632   3.079   5.830   6.673 -0.5085  0.3425 -0.0358
 1406TIP3    H125633   3.058   5.744   6.709 -2.2838 -0.4233 -2.6719
 1406TIP3    H225634   3.012   5.888   6.709  1.2006  0.9762  2.4649
 1407TIP3   OH225635   4.553   5.273   0.221 -0.3030  0.0094 -0.2192
 1407TIP3    H125636   4.519   5.333   0.288 -1.4578 -0.5394 -0.2901
 1407TIP3    H225637   4.634   5.239   0.259 -0.8690 -0.1835  0.8586
 1408TIP3   OH225638   3.271   4.984   3.309  0.1042 -0.2243 -0.6800
 1408TIP3    H125639   3.197   4.979   3.248  0.5474 -1.7282 -1.1542
 1408TIP3    H225640   3.234   4.957   3.393 -0.3870  1.3273 -0.3673
 1409TIP3   OH225641   2.089   1.033   2.788 -0.1196 -0.2030 -0.2962
 1409TIP3    H125642   2.062   0.997   2.704  2.0023 -0.3450 -0.9643
 1409TIP3    H225643   2.182   1.010   2.796 -0.1928  0.0079  1.9789
 1410TIP3   OH225644   3.641   2.305   4.579  0.4528 -0.1215  0.1829
 1410TIP3    H125645   3.579   2.269   4.516  1.7205  1.0374 -1.8052
 1410TIP3    H225646   3.592   2.375   4.624 -0.2504 -0.5023  0.0227
 1411TIP3   OH225647   3.314   1.565   0.045 -0.1822 -0.2494 -0.0060
 1411TIP3    H125648   3.368   1.502   0.093  3.3242  2.0197 -0.5265
 1411TIP3    H225649   3.277   1.515  -0.027 -0.4807 -2.4079  1.5578
 1412TIP3   OH225650   1.220   2.871   1.107 -0.0703 -0.2323  0.4798
 1412TIP3    H125651   1.287   2.871   1.175  0.0435  1.1977  0.4127
 1412TIP3    H225652   1.164   2.945   1.128 -0.2402  0.0258 -0.7634
 1413TIP3   OH225653   4.779   5.958  13.079  0.0721  0.2144  0.2628
 1413TIP3    H125654   4.705   6.002  13.122  0.3521  1.6062 -0.6088
 1413TIP3    H225655   4.744   5.875  13.049 -0.9043  0.4854  0.6156
 1414TIP3   OH225656   6.579   3.964   4.494 -0.1838 -1.1749  0.4342
 1414TIP3    H125657   6.542   4.034   4.440  0.0378 -1.4036 -0.0163
 1414TIP3    H225658   6.662   3.943   4.453 -0.3102 -1.7995  0.4882
 1415TIP3   OH225659   2.430   2.062  12.462 -0.4563  0.3332 -0.1077
 1415TIP3    H125660   2.356   2.010  12.492 -0.6762  1.5225  1.6095
 1415TIP3    H225661   2.475   2.087  12.543  1.8713 -0.3954 -1.1060
 1416TIP3   OH225662   5.977   0.168  11.811 -0.0360  0.2545  0.0650
 1416TIP3    H125663   5.902   0.111  11.797  1.5773 -1.7728 -0.9145
 1416TIP3    H225664   5.999   0.157  11.903  0.2805 -0.7886 -0.1213
 1417TIP3   OH225665   5.230   1.085  16.110  0.1998 -0.2105 -0.3256
 1417TIP3    H125666   5.153   1.052  16.156 -0.9552 -0.6416 -2.4119
 1417TIP3    H225667   5.304   1.042  16.153 -0.6237  0.6254  2.0743
 1418TIP3   OH225668   0.196   5.231   5.045 -0.3974 -0.1086 -0.1091
 1418TIP3    H125669   0.195   5.135   5.056 -0.3862 -0.2792 -1.4323
 1418TIP3    H225670   0.288   5.252   5.032 -0.4873 -0.0202 -0.6046
 1419TIP3   OH225671   1.717   3.079   0.089 -0.1251 -0.2868 -0.5150
 1419TIP3    H125672   1.654   3.011   0.115 -2.4097  1.3330 -1.4068
 1419TIP3    H225673   1.684   3.159   0.132  1.0850  0.7111 -1.3777
 1420TIP3   OH225674   0.941   1.154   4.980 -0.0450 -0.2568 -0.0051
 1420TIP3    H125675   1.004   1.205   5.031 -1.0063  0.6756  0.2688
 1420TIP3    H225676   0.967   1.168   4.889  0.0525  0.2365  0.0979
 1421TIP3   OH225677   6.505   4.347   1.293  0.0295 -0.4664  0.2887
 1421TIP3    H125678   6.504   4.302   1.378  0.9105 -0.9756  0.0465
 1421TIP3    H225679   6.555   4.289   1.236  1.2392  0.8218 -0.0273
 1422TIP3   OH225680   0.903   3.544  15.079 -0.6137  0.2460  0.1976
 1422TIP3    H125681   0.890   3.619  15.138 -0.8354  0.0034  0.4584
 1422TIP3    H225682   0.929   3.584  14.996 -1.4129  0.6564  0.1341
 1423TIP3   OH225683   4.836   5.062   5.900  0.4165 -0.1251 -0.6840
 1423TIP3    H125684   4.842   4.969   5.922 -1.9906 -0.1136  0.2670
 1423TIP3    H225685   4.766   5.067   5.835 -0.4902  1.1395  0.3327
 1424TIP3   OH225686   6.369   3.635  11.504  0.4564 -0.0882 -0.4637
 1424TIP3    H125687   6.368   3.730  11.493 -0.1176 -0.1239 -0.7341
 1424TIP3    H225688   6.398   3.622  11.594 -1.4010  0.4243  0.2591
 1425TIP3   OH225689   3.309   0.469  12.507 -0.0239 -0.8455 -0.2382
 1425TIP3    H125690   3.274   0.545  12.461  0.7817  0.1601  0.7321
 1425TIP3    H225691   3.252   0.459  12.583 -0.3657 -1.4627 -0.5749
 1426TIP3   OH225692   2.598   5.628  15.873  0.4071 -0.1267 -0.2742
 1426TIP3    H125693   2.653   5.707  15.877 -0.4221  0.4770 -0.4076
 1426TIP3    H225694   2.519   5.657  15.827 -0.8286 -0.4774  1.5175
 1427TIP3   OH225695   2.585   5.365  16.489 -0.4881  0.4364 -0.0871
 1427TIP3    H125696   2.523   5.436  16.505 -0.9510 -0.2187  1.1550
 1427TIP3    H225697   2.608   5.333  16.576 -1.4699 -1.9328 -0.6081
 1428TIP3   OH225698   0.109   6.257  15.397  0.1419  0.1048  0.5228
 1428TIP3    H125699   0.042   6.325  15.385  1.3628  1.3898  0.7342
 1428TIP3    H225700   0.173   6.275  15.329  0.6925 -0.5926  0.8504
 1429TIP3   OH225701   3.730   1.757  11.184 -0.2296  0.1531  0.3942
 1429TIP3    H125702   3.820   1.742  11.156 -0.7682 -2.5749 -0.2013
 1429TIP3    H225703   3.690   1.670  11.182 -2.9323  1.2991  0.4868
 1430TIP3   OH225704   3.395   2.263  13.893 -0.3044 -0.0820  0.3752
 1430TIP3    H125705   3.371   2.251  13.801 -0.9770  1.2386  0.3608
 1430TIP3    H225706   3.483   2.299  13.890 -0.8710  1.3307  0.1791
 1431TIP3   OH225707   2.293   2.760   3.112  0.3147 -0.0608  0.5334
 1431TIP3    H125708   2.360   2.706   3.072 -0.9984 -2.0557  0.8753
 1431TIP3    H225709   2.264   2.819   3.042  0.7693 -0.7974 -0.2880
 1432TIP3   OH225710   3.491   4.511   2.000  0.2035 -0.2289 -0.3237
 1432TIP3    H125711   3.399   4.517   2.025  1.1773 -0.7461  4.0415
 1432TIP3    H225712   3.509   4.418   2.000  1.0984 -0.0630  0.5429
 1433TIP3   OH225713   3.118   6.482  16.905  0.3757  0.3186 -0.5944
 1433TIP3    H125714   3.115   6.470  17.000  0.7645  0.6612 -0.5372
 1433TIP3    H225715   3.124   6.393  16.870 -0.6201  0.1317 -0.3448
 1434TIP3   OH225716   0.272   1.906  15.335  0.0229  0.8281 -0.6299
 1434TIP3    H125717   0.285   1.987  15.285  0.6801  0.2036 -1.4962
 1434TIP3    H225718   0.180   1.884  15.321  0.1022  0.8727 -1.2633
 1435TIP3   OH225719   2.022   5.394   2.724 -0.0493  0.4115 -0.1484
 1435TIP3    H125720   2.004   5.306   2.757  0.4562  0.1154 -0.6384
 1435TIP3    H225721   2.011   5.387   2.629 -0.6204  1.0346 -0.1366
 1436TIP3   OH225722   6.696   1.949  12.744  0.4027  0.1853 -0.2586
 1436TIP3    H125723   6.714   1.996  12.825  2.1680 -0.4294 -0.2392
 1436TIP3    H225724   6.702   1.857  12.767 -2.9106 -0.1623 -0.3228
 1437TIP3   OH225725   2.383   1.843   5.885  0.1818  0.1752 -0.5028
 1437TIP3    H125726   2.474   1.830   5.855  0.4941  1.6725 -0.2670
 1437TIP3    H225727   2.382   1.808   5.974  0.2392 -0.7935 -0.8648
 1438TIP3   OH225728   2.562   1.593  12.861  0.2125 -0.6197 -0.1596
 1438TIP3    H125729   2.550   1.498  12.867  0.9531 -0.8089 -1.3139
 1438TIP3    H225730   2.556   1.624  12.951 -1.0791 -1.6256  0.1348
 1439TIP3   OH225731   5.720   0.867  11.610 -0.2817 -1.0587  0.0181
 1439TIP3    H125732   5.640   0.914  11.586 -0.4787 -0.9403  0.8554
 1439TIP3    H225733   5.770   0.860  11.529 -0.9775 -0.8118 -0.4388
 1440TIP3   OH225734   0.401   0.310   6.095 -0.8760 -0.1593 -0.2998
 1440TIP3    H125735   0.415   0.399   6.062  0.4765 -0.9188 -1.9524
 1440TIP3    H225736   0.370   0.322   6.185 -0.2853  1.9732 -0.3301
 1441TIP3   OH225737   1.102   1.916  13.133 -0.0651 -0.4800  0.3080
 1441TIP3    H125738   1.077   1.823  13.136 -0.1405 -0.4258  2.5756
 1441TIP3    H225739   1.116   1.933  13.040 -2.2256 -2.1810 -0.4229
 1442TIP3   OH225740   3.425   4.544  12.396  0.6672  0.4519 -0.6436
 1442TIP3    H125741   3.339   4.507  12.377  0.3522 -0.1644  1.7410
 1442TIP3    H225742   3.448   4.593  12.317 -1.0898 -0.7754 -1.9850
 1443TIP3   OH225743   2.855   4.707   0.757 -0.2759  0.1756  0.1373
 1443TIP3    H125744   2.847   4.612   0.766  0.4805 -0.0126 -1.0539
 1443TIP3    H225745   2.780   4.741   0.807 -1.5248 -1.0951 -0.7783
 1444TIP3   OH225746   0.415   1.585   5.102 -0.2886 -0.4128 -0.6841
 1444TIP3    H125747   0.402   1.680   5.110  1.9645 -0.1807  1.5141
 1444TIP3    H225748   0.510   1.575   5.094 -0.3792 -2.5157  0.2026
 1445TIP3   OH225749   2.654   2.896   0.306  0.2516 -0.0081 -0.0331
 1445TIP3    H125750   2.703   2.912   0.225  1.7107 -1.0387  0.6084
 1445TIP3    H225751   2.646   2.800   0.311  1.5850 -0.0763  1.8099
 1446TIP3   OH225752   0.535   5.607  15.751 -0.4516  0.3812  0.0020
 1446TIP3    H125753   0.479   5.538  15.715  1.4187 -1.0609 -0.3373
 1446TIP3    H225754   0.532   5.677  15.686  0.3230 -0.8626 -1.4526
 1447TIP3   OH225755   1.703   0.701  17.309  0.4958 -0.0362 -0.1522
 1447TIP3    H125756   1.614   0.716  17.277  0.4646 -0.9993 -0.5432
 1447TIP3    H225757   1.751   0.781  17.286 -0.5498  1.0138  1.1444
 1448TIP3   OH225758   0.817   5.461   1.325 -0.1012  0.4905  0.1905
 1448TIP3    H125759   0.810   5.424   1.413 -3.4605 -0.4318 -0.3274
 1448TIP3    H225760   0.789   5.552   1.335  0.7341  0.7542  0.2304
 1449TIP3   OH225761   6.559   5.954   0.635 -1.0793 -0.1416  0.2996
 1449TIP3    H125762   6.610   5.880   0.602 -0.8591  0.1664 -0.0644
 1449TIP3    H225763   6.473   5.942   0.596 -1.5803 -1.1729  1.6550
 1450TIP3   OH225764   0.943   4.575  13.861 -0.8784  0.4520 -0.3731
 1450TIP3    H125765   0.974   4.515  13.793 -0.2345  3.2649 -2.7309
 1450TIP3    H225766   0.909   4.651  13.814  0.5470  3.0525  2.4096
 1451TIP3   OH225767   5.490   3.007   0.173 -0.1744 -0.2808 -0.5212
 1451TIP3    H125768   5.492   3.102   0.161 -1.0651 -0.0538  0.9093
 1451TIP3    H225769   5.475   2.972   0.085 -0.2375  0.9181 -1.0081
 1452TIP3   OH225770   1.233   5.874   4.343 -0.1068 -0.0643  0.6922
 1452TIP3    H125771   1.204   5.830   4.262 -1.6478  0.8235  0.7219
 1452TIP3    H225772   1.311   5.922   4.317  0.6533 -1.4871  0.2599
 1453TIP3   OH225773   4.243   3.925   2.978  0.3216 -0.0486  0.0467
 1453TIP3    H125774   4.200   3.965   3.054  1.9597  2.7389 -0.3503
 1453TIP3    H225775   4.182   3.940   2.906 -0.6363 -1.4910  0.5245
 1454TIP3   OH225776   1.155   1.447  14.261  0.3244  1.1707 -0.1150
 1454TIP3    H125777   1.062   1.464  14.247 -0.5299 -1.3983  1.6577
 1454TIP3    H225778   1.178   1.382  14.194 -0.1764 -0.8207  1.5329
 1455TIP3   OH225779   4.662   0.614  11.331 -0.2966  0.2301 -0.2025
 1455TIP3    H125780   4.695   0.598  11.419 -0.7512  0.7087  0.0637
 1455TIP3    H225781   4.626   0.530  11.302  2.0901 -0.6024 -0.9347
 1456TIP3   OH225782   3.048   0.894  16.688 -0.0134 -0.2764 -0.6452
 1456TIP3    H125783   3.067   0.809  16.648  0.2120 -0.7063  0.3470
 1456TIP3    H225784   3.118   0.906  16.753 -0.2832  0.4712 -0.4856
 1457TIP3   OH225785   3.108   5.185   6.183 -0.2641  0.0665  0.1202
 1457TIP3    H125786   3.097   5.256   6.120  0.4503  0.5729  0.5432
 1457TIP3    H225787   3.200   5.158   6.173 -0.2887 -0.1989  0.5768
 1458TIP3   OH225788   4.170   4.178  12.940  0.6763  0.2585  0.3439
 1458TIP3    H125789   4.127   4.178  12.855 -2.6096 -1.3670  1.8161
 1458TIP3    H225790   4.141   4.260  12.981  3.3366  1.7100 -0.4593
 1459TIP3   OH225791   6.441   0.166  16.374  0.4083 -0.8071  0.0090
 1459TIP3    H125792   6.371   0.210  16.325  0.7089  0.0577  0.3437
 1459TIP3    H225793   6.395   0.116  16.441  0.1004 -0.3416  0.1505
 1460TIP3   OH225794   2.169   3.536  12.304  0.2475  0.2853  0.5358
 1460TIP3    H125795   2.093   3.592  12.319  0.0589 -0.2224  1.5140
 1460TIP3    H225796   2.230   3.591  12.254 -0.2742  1.0869  0.7711
 1461TIP3   OH225797   1.843   0.477   1.139  0.2253  0.0374 -0.1265
 1461TIP3    H125798   1.853   0.441   1.227  1.6375  0.1472 -0.2232
 1461TIP3    H225799   1.754   0.513   1.138 -0.3398 -1.2585  0.7607
 1462TIP3   OH225800   2.130   1.660   3.668  0.2117 -0.5874 -0.0802
 1462TIP3    H125801   2.150   1.739   3.616 -0.0791 -1.1432 -1.0641
 1462TIP3    H225802   2.199   1.657   3.734  0.5453  0.1940 -0.3766
 1463TIP3   OH225803   2.398   2.608   6.772  0.8871  0.2128 -0.3204
 1463TIP3    H125804   2.487   2.618   6.804  1.4198 -2.0583 -0.9265
 1463TIP3    H225805   2.354   2.556   6.839 -0.1641  1.7180  0.2057
 1464TIP3   OH225806   0.020   3.722   0.515 -0.0028  0.0002 -0.2495
 1464TIP3    H125807  -0.074   3.734   0.531  0.1285 -0.0597  0.5845
 1464TIP3    H225808   0.047   3.655   0.577  0.4878 -0.3844 -0.8686
 1465TIP3   OH225809   0.161   3.847   4.123 -0.9641 -0.3751 -0.0289
 1465TIP3    H125810   0.144   3.754   4.108  1.7505 -0.7822 -1.3337
 1465TIP3    H225811   0.254   3.857   4.103 -0.7487  2.3153  1.7958
 1466TIP3   OH225812   3.207   5.264  12.231  0.6912  0.1466 -0.0746
 1466TIP3    H125813   3.214   5.330  12.161 -1.4486  0.9528  0.3808
 1466TIP3    H225814   3.267   5.295  12.299 -1.0459  2.3457  0.5986
 1467TIP3   OH225815   2.752   5.831   3.064 -0.6476  0.0943 -0.0415
 1467TIP3    H125816   2.837   5.793   3.041 -1.1432 -0.2886 -1.3583
 1467TIP3    H225817   2.766   5.926   3.057 -0.4412  0.0208 -0.7164
 1468TIP3   OH225818   2.722   5.784   3.817  0.8175 -0.1194  0.1887
 1468TIP3    H125819   2.680   5.706   3.782  1.6505 -0.7547  0.5560
 1468TIP3    H225820   2.815   5.772   3.797  1.0002  0.6043  0.5665
 1469TIP3   OH225821   6.406   0.522   1.488  0.1430 -0.3657  0.1202
 1469TIP3    H125822   6.490   0.478   1.500  0.2153  0.1695  1.8521
 1469TIP3    H225823   6.388   0.515   1.394  0.9671 -2.5442  0.0743
 1470TIP3   OH225824   0.499   6.180  17.249 -0.3172  0.1037 -0.0960
 1470TIP3    H125825   0.555   6.182  17.326  3.0465  0.5977 -2.3147
 1470TIP3    H225826   0.446   6.102  17.260 -1.1485  1.0225  3.3724
 1471TIP3   OH225827   0.420   5.347  15.321  0.2500  0.5876 -0.0830
 1471TIP3    H125828   0.427   5.310  15.233  0.5841 -0.6715  0.4491
 1471TIP3    H225829   0.510   5.349  15.354  0.3156  2.4479 -0.2997
 1472TIP3   OH225830   0.417   3.052   5.464  0.6420 -0.8233 -0.0740
 1472TIP3    H125831   0.388   3.080   5.551 -0.0059 -0.8639 -0.2754
 1472TIP3    H225832   0.356   3.093   5.403 -0.0671 -2.3033 -0.4036
 1473TIP3   OH225833   2.593   0.426   5.699 -0.3187 -0.1185  0.2299
 1473TIP3    H125834   2.530   0.420   5.771  0.7287  1.4485  1.3579
 1473TIP3    H225835   2.678   0.410   5.741  0.1847 -0.7234 -0.9746
 1474TIP3   OH225836   6.456   5.658   0.306  0.0001  0.2373  0.3579
 1474TIP3    H125837   6.361   5.669   0.303  0.0307  1.6134  2.2951
 1474TIP3    H225838   6.490   5.719   0.241 -0.3903  2.1225  1.8267
 1475TIP3   OH225839   0.809   2.584   2.352 -0.3972 -0.2664  0.0345
 1475TIP3    H125840   0.819   2.671   2.392 -2.7162  0.8078 -1.4918
 1475TIP3    H225841   0.813   2.602   2.258  0.4557 -2.0548 -0.2996
 1476TIP3   OH225842   0.527   1.649  14.378  0.2354 -0.3556  0.1646
 1476TIP3    H125843   0.617   1.661  14.346  1.0802 -0.3160  2.3876
 1476TIP3    H225844   0.525   1.695  14.462 -1.7196 -0.8251  0.4160
 1477TIP3   OH225845   3.249   3.322  11.128  0.0459  0.0249  0.6494
 1477TIP3    H125846   3.216   3.294  11.043 -0.6108 -0.2735  0.9938
 1477TIP3    H225847   3.338   3.287  11.132  0.2593  0.4599 -0.1115
 1478TIP3   OH225848   2.411   4.898  16.921  0.1821 -0.3909 -0.0820
 1478TIP3    H125849   2.316   4.884  16.915  0.1824 -0.0728 -1.0194
 1478TIP3    H225850   2.438   4.851  17.000 -1.2617  2.1264  2.1002
 1479TIP3   OH225851   4.362   1.422   5.578 -0.2307 -0.1224 -0.3621
 1479TIP3    H125852   4.308   1.394   5.503 -1.2817 -0.4027  0.4700
 1479TIP3    H225853   4.435   1.360   5.578 -1.5176 -1.7334  0.2857
 1480TIP3   OH225854   0.465   6.691   1.318  0.3369  0.0433  0.0202
 1480TIP3    H125855   0.402   6.672   1.387  1.5169 -0.8381  0.8931
 1480TIP3    H225856   0.485   6.606   1.279  1.9561  0.1107  0.6406
 1481TIP3   OH225857   1.824   5.004  13.378  0.5752  0.3739 -0.0214
 1481TIP3    H125858   1.729   5.009  13.369  0.4920  0.2264  0.7065
 1481TIP3    H225859   1.858   5.054  13.304 -0.0697  0.4251 -0.2864
 1482TIP3   OH225860   2.144   4.935  16.956  0.1028 -0.2743 -0.0941
 1482TIP3    H125861   2.133   4.880  16.879 -0.4416  1.0235 -0.9770
 1482TIP3    H225862   2.138   5.025  16.923  1.3349  0.3437  1.2391
 1483TIP3   OH225863   2.673   5.328  12.297  0.8346 -0.3206  0.4603
 1483TIP3    H125864   2.735   5.269  12.254 -0.4525 -2.0610  0.9010
 1483TIP3    H225865   2.614   5.271  12.346 -0.0681  1.3785  1.4828
 1484TIP3   OH225866   0.362   2.168  12.201 -0.0066 -0.2149 -0.4577
 1484TIP3    H125867   0.330   2.138  12.286 -1.0648  0.0872 -0.7362
 1484TIP3    H225868   0.339   2.261  12.197 -0.4056 -0.3345 -1.2611
 1485TIP3   OH225869   6.541   6.405  13.450  0.5745  0.5911 -0.4892
 1485TIP3    H125870   6.624   6.362  13.428 -1.0937 -2.3123 -1.6609
 1485TIP3    H225871   6.515   6.450  13.370  1.4117  2.3677  0.1795
 1486TIP3   OH225872   2.016   3.294  15.289 -0.1647  0.2291 -0.3579
 1486TIP3    H125873   2.031   3.370  15.345 -0.7056 -0.0418  0.1717
 1486TIP3    H225874   2.014   3.220  15.350  0.5728 -0.2441 -0.8865
 1487TIP3   OH225875   5.527   4.465  11.935  0.0587  0.2699  0.0794
 1487TIP3    H125876   5.566   4.440  12.019 -0.9184  0.2692  0.5537
 1487TIP3    H225877   5.501   4.382  11.895 -0.2437  0.3146  0.1754
 1488TIP3   OH225878   1.098   4.449   4.247 -0.6221 -0.5677 -0.0827
 1488TIP3    H125879   1.113   4.490   4.333  0.2830 -0.6313 -0.1968
 1488TIP3    H225880   1.129   4.515   4.184  2.2729 -1.9242 -0.2320
 1489TIP3   OH225881   0.403   4.464  15.037  0.2367  0.1064  0.3572
 1489TIP3    H125882   0.338   4.395  15.052 -0.2487  0.6475  0.8362
 1489TIP3    H225883   0.403   4.477  14.942 -1.4333  1.0714  0.4340
 1490TIP3   OH225884   2.357   4.012  16.879 -0.7771 -0.2065  0.5977
 1490TIP3    H125885   2.310   4.095  16.891  0.7721  1.0578 -1.3324
 1490TIP3    H225886   2.293   3.944  16.900 -3.6337  1.3758 -2.1390
 1491TIP3   OH225887   2.012   4.570  14.578 -0.4310  0.0945  0.0724
 1491TIP3    H125888   2.023   4.662  14.553 -1.6513  0.5487  1.0840
 1491TIP3    H225889   1.971   4.529  14.501  0.8780  0.1774 -0.6992
 1492TIP3   OH225890   1.561   0.252   0.503  0.4173  0.5834  0.1311
 1492TIP3    H125891   1.568   0.158   0.520 -0.7624  0.3543 -0.5416
 1492TIP3    H225892   1.638   0.290   0.546  0.6885 -0.6341  0.7667
 1493TIP3   OH225893   1.975   4.233  11.210  0.4914  0.7322  0.1779
 1493TIP3    H125894   1.901   4.187  11.250  0.7744  1.9915  2.3091
 1493TIP3    H225895   2.007   4.173  11.142 -1.6702 -0.3759  0.0344
 1494TIP3   OH225896   5.268   1.888   5.577  0.0953 -0.7745  0.2034
 1494TIP3    H125897   5.242   1.867   5.667 -0.5322  0.5104  0.3497
 1494TIP3    H225898   5.209   1.959   5.551 -0.4731 -1.8592 -1.6395
 1495TIP3   OH225899   0.827   4.384  17.130 -0.3480  0.0302 -0.6163
 1495TIP3    H125900   0.873   4.429  17.200 -1.7948 -0.9713  1.0736
 1495TIP3    H225901   0.857   4.293  17.136 -1.8569 -0.4560 -0.0406
 1496TIP3   OH225902   4.695   1.041  13.823 -0.1970 -0.2530  0.2534
 1496TIP3    H125903   4.656   0.963  13.785 -1.5411  0.4409  0.1584
 1496TIP3    H225904   4.789   1.028  13.812 -0.4458 -1.2373 -0.9818
 1497TIP3   OH225905   3.606   4.769   2.253 -0.0276 -0.4811 -0.1354
 1497TIP3    H125906   3.624   4.681   2.286  1.5609 -0.0116  0.3000
 1497TIP3    H225907   3.511   4.771   2.243 -0.0269 -2.5640 -1.0672
 1498TIP3   OH225908   4.209   1.451  16.854 -0.0163  0.2918 -0.1050
 1498TIP3    H125909   4.266   1.425  16.926  0.8009 -0.0374 -0.8533
 1498TIP3    H225910   4.132   1.490  16.896  0.4696  0.1402  0.9325
 1499TIP3   OH225911   3.914   4.434   1.167 -0.4050 -0.5818 -0.6330
 1499TIP3    H125912   3.864   4.360   1.200 -0.1610 -0.3777  0.2121
 1499TIP3    H225913   3.957   4.472   1.244  1.1640 -0.8232 -1.3352
 1500TIP3   OH225914   1.758   4.239   1.603  0.6179  0.0512 -0.2510
 1500TIP3    H125915   1.788   4.148   1.608 -1.1452 -0.4816  1.4740
 1500TIP3    H225916   1.805   4.284   1.674  1.0807  0.3999 -0.7628
 1501TIP3   OH225917   1.450   4.770  13.816 -0.1781 -0.3857  0.4816
 1501TIP3    H125918   1.469   4.678  13.795  0.2487 -0.3605  0.7470
 1501TIP3    H225919   1.354   4.774  13.821 -0.1810 -0.9457  1.0322
 1502TIP3   OH225920   1.359   2.488   4.815  0.0110  0.0228 -0.2545
 1502TIP3    H125921   1.342   2.505   4.722  0.9528 -1.2113 -0.6745
 1502TIP3    H225922   1.286   2.434   4.843  0.1572 -0.3061 -0.5022
 1503TIP3   OH225923   5.389   5.642   6.925  0.4245 -0.1500 -0.2065
 1503TIP3    H125924   5.403   5.736   6.937  1.0455 -0.5440  2.9037
 1503TIP3    H225925   5.471   5.611   6.887  0.7052  0.3614 -0.0300
 1504TIP3   OH225926   0.741   3.930  15.165  0.8886  0.4064 -0.6334
 1504TIP3    H125927   0.801   3.863  15.196  0.1845  0.1583  0.2367
 1504TIP3    H225928   0.655   3.901  15.196  0.6662  2.1133  0.4602
 1505TIP3   OH225929   6.573   4.717  11.196  0.1806 -0.5880 -0.1670
 1505TIP3    H125930   6.497   4.724  11.139  1.3094 -1.4278 -1.8533
 1505TIP3    H225931   6.576   4.624  11.220  1.1220 -0.7421 -0.8134
 1506TIP3   OH225932   4.005   0.244   5.527  0.4729 -0.0727  0.1691
 1506TIP3    H125933   3.945   0.198   5.468  1.6197 -1.7582  0.2675
 1506TIP3    H225934   4.092   0.213   5.503  1.3662  2.2708  0.0874
 1507TIP3   OH225935   3.672   5.123  13.100  0.0309 -0.0397 -0.0708
 1507TIP3    H125936   3.613   5.061  13.143  1.1378 -0.4103  0.9588
 1507TIP3    H225937   3.652   5.207  13.141  0.3485 -0.1998  0.4168
 1508TIP3   OH225938   1.428   0.586  15.231 -0.5307  0.1518 -0.1038
 1508TIP3    H125939   1.379   0.659  15.267 -1.2966 -1.0659  1.4748
 1508TIP3    H225940   1.435   0.604  15.138 -0.5124  2.3076  0.2777
 1509TIP3   OH225941   1.681   0.861   5.460  0.2548 -0.0329  0.8767
 1509TIP3    H125942   1.756   0.919   5.472  0.1503  0.1025  0.8761
 1509TIP3    H225943   1.685   0.834   5.368  0.4669 -0.2537  0.9498
 1510TIP3   OH225944   1.278   5.341   5.560  0.0024 -0.3027  0.1099
 1510TIP3    H125945   1.350   5.392   5.599 -0.4197  0.7856 -0.4707
 1510TIP3    H225946   1.205   5.403   5.556 -1.0771 -1.4755  0.9530
 1511TIP3   OH225947   4.584   3.163   5.878 -0.1216  0.2687  0.3112
 1511TIP3    H125948   4.663   3.186   5.927  0.0971 -0.8641  0.5278
 1511TIP3    H225949   4.616   3.107   5.807 -0.5691  0.9798 -0.4507
 1512TIP3   OH225950   5.447   3.101   2.695 -0.0218  0.1151  0.3084
 1512TIP3    H125951   5.402   3.177   2.659 -0.2289 -0.2197 -0.1550
 1512TIP3    H225952   5.457   3.120   2.788  0.4215  0.9441  0.0949
 1513TIP3   OH225953   1.198   4.498  17.095 -0.2205 -0.7612  0.5752
 1513TIP3    H125954   1.146   4.425  17.128  0.0056 -0.9383  0.5499
 1513TIP3    H225955   1.266   4.512  17.161 -0.0581 -0.8001  0.4210
 1514TIP3   OH225956   1.630   0.280  12.335 -0.3016 -0.5437 -0.2633
 1514TIP3    H125957   1.590   0.306  12.252  0.8712 -1.1784 -1.0503
 1514TIP3    H225958   1.717   0.250  12.311  1.1725  1.9619  1.5193
 1515TIP3   OH225959   6.649   5.914   3.619  0.1998  0.1192 -0.1235
 1515TIP3    H125960   6.729   5.894   3.669 -0.1437  0.6308  0.6507
 1515TIP3    H225961   6.603   5.978   3.673 -0.3922  0.3644 -0.9107
 1516TIP3   OH225962   5.328   2.954  16.128 -0.0556  0.1470 -0.1626
 1516TIP3    H125963   5.246   2.922  16.091 -0.5100 -0.0495  0.9555
 1516TIP3    H225964   5.311   2.960  16.222  1.0875  0.4896  0.0434
 1517TIP3   OH225965   6.177   3.368   1.531  0.0300 -0.5724 -0.2011
 1517TIP3    H125966   6.223   3.336   1.453 -0.5502 -1.8393 -0.0420
 1517TIP3    H225967   6.114   3.432   1.497 -2.4958 -3.4179 -1.2644
 1518TIP3   OH225968   1.259   5.625  13.515  0.0695  0.4545  0.4329
 1518TIP3    H125969   1.261   5.720  13.503  0.6559  0.4047  0.1128
 1518TIP3    H225970   1.339   5.594  13.474  0.1825 -0.1201  1.0688
 1519TIP3   OH225971   2.815   4.456  17.304  0.0922 -0.0969 -1.0458
 1519TIP3    H125972   2.894   4.482  17.351 -0.4322  1.8946 -1.1491
 1519TIP3    H225973   2.790   4.372  17.342  1.2602  0.1104  0.2397
 1520TIP3   OH225974   4.022   1.850   6.798  0.0452  0.3716  0.1070
 1520TIP3    H125975   4.016   1.822   6.707  1.5129  0.9327 -0.1891
 1520TIP3    H225976   4.054   1.773   6.845  0.0605  0.3178  0.0084
 1521TIP3   OH225977   2.229   5.574  15.334  0.0025 -0.0553  0.0027
 1521TIP3    H125978   2.235   5.500  15.274  1.1996 -0.2245  0.2887
 1521TIP3    H225979   2.164   5.632  15.295  0.5536 -0.2838 -1.3284
 1522TIP3   OH225980   4.430   1.284   4.576  0.2677 -0.5177 -0.3983
 1522TIP3    H125981   4.452   1.227   4.503 -0.0003  0.5810 -1.3609
 1522TIP3    H225982   4.394   1.225   4.643  0.1088 -1.4797 -1.3095
 1523TIP3   OH225983   3.580   3.972  12.276 -0.3983 -0.0943  0.0566
 1523TIP3    H125984   3.534   3.981  12.193 -1.1297  1.5150  0.5970
 1523TIP3    H225985   3.619   3.885  12.272 -1.1258 -0.3900 -1.6044
 1524TIP3   OH225986   2.891   6.637   4.862  0.5455  0.0710  0.7992
 1524TIP3    H125987   2.926   6.549   4.845 -1.6186 -0.9686  1.3809
 1524TIP3    H225988   2.810   6.641   4.811  1.4864  2.4602 -0.6748
 1525TIP3   OH225989   1.119   4.702   6.385 -0.0740 -0.6252 -0.0900
 1525TIP3    H125990   1.206   4.662   6.391 -0.4152 -1.2258  4.5015
 1525TIP3    H225991   1.134   4.795   6.403 -0.3326 -0.7186  0.6425
 1526TIP3   OH225992   0.748   5.888   1.637  0.4694  0.1496  0.3012
 1526TIP3    H125993   0.775   5.946   1.566 -1.6647  1.1159  0.1898
 1526TIP3    H225994   0.682   5.939   1.685 -0.7840 -1.8324  0.7866
 1527TIP3   OH225995   3.233   3.062   1.010  0.0116  0.1764  0.9251
 1527TIP3    H125996   3.210   2.992   1.070 -0.5278  0.1146  0.6495
 1527TIP3    H225997   3.255   3.136   1.067  2.7799 -0.8056  1.3329
 1528TIP3   OH225998   1.776   0.863   1.566  0.0110  0.4316  0.2366
 1528TIP3    H125999   1.838   0.814   1.621  0.9588  1.7442  0.3763
 1528TIP3    H226000   1.796   0.836   1.477 -1.8554 -2.0819  0.4794
 1529TIP3   OH226001   5.011   2.248   5.263  0.3662  0.4444 -0.4600
 1529TIP3    H126002   5.068   2.306   5.213  2.6026 -0.1831  1.1671
 1529TIP3    H226003   4.973   2.189   5.199  0.8202  1.4681 -1.7115
 1530TIP3   OH226004   5.022   4.618   3.655  0.0785 -0.0929  0.1053
 1530TIP3    H126005   4.977   4.702   3.669  2.1611  1.2279 -0.5311
 1530TIP3    H226006   4.993   4.562   3.726 -1.2423  1.2418  0.6556
 1531TIP3   OH226007   3.579   5.245   5.617  0.5689  0.3782  0.0115
 1531TIP3    H126008   3.488   5.276   5.616  0.8973  1.5620  2.1850
 1531TIP3    H226009   3.626   5.309   5.669  1.7168 -2.6374  3.0289
 1532TIP3   OH226010   0.571   4.089   1.183 -0.5439 -0.4233  0.6280
 1532TIP3    H126011   0.612   4.020   1.130 -1.4227 -0.4244 -0.0618
 1532TIP3    H226012   0.645   4.142   1.214 -0.0303 -0.2461 -0.8433
 1533TIP3   OH226013   1.528   0.881   0.185  0.3349  0.1838 -0.0523
 1533TIP3    H126014   1.459   0.829   0.144 -0.2171  2.3529 -2.0844
 1533TIP3    H226015   1.551   0.947   0.119  5.3621 -1.2081 -0.1210
 1534TIP3   OH226016   1.521   0.925  11.946  0.1443  0.0922  0.4240
 1534TIP3    H126017   1.575   0.951  12.021 -0.3590 -3.9420  2.4667
 1534TIP3    H226018   1.584   0.900  11.879  0.6051  2.4194 -0.1067
 1535TIP3   OH226019   3.382   3.643   0.247  0.0036  0.0452 -0.0309
 1535TIP3    H126020   3.290   3.619   0.257  0.3623 -0.9116  1.1318
 1535TIP3    H226021   3.398   3.635   0.153 -1.5995  2.2441 -0.5741
 1536TIP3   OH226022   0.657   4.246   0.271 -0.0515  0.0569  0.3231
 1536TIP3    H126023   0.743   4.225   0.235  1.3790  2.0888  2.2165
 1536TIP3    H226024   0.598   4.241   0.197  1.8049 -0.8348 -1.1882
 1537TIP3   OH226025   6.160   0.430  14.306 -0.0016  0.0841  0.0014
 1537TIP3    H126026   6.136   0.355  14.251  0.3490  1.5470 -2.3321
 1537TIP3    H226027   6.190   0.392  14.388  1.0572 -2.3996 -1.4161
 1538TIP3   OH226028   4.629   3.435  16.677 -0.2893  0.3453 -0.5079
 1538TIP3    H126029   4.636   3.491  16.600 -0.2461  1.7558  0.4998
 1538TIP3    H226030   4.695   3.367  16.663  1.3959  1.9309 -0.6160
 1539TIP3   OH226031   1.414   3.848   2.885  0.1577 -0.6893  0.3682
 1539TIP3    H126032   1.446   3.765   2.850  1.1926 -0.2456  0.2204
 1539TIP3    H226033   1.493   3.897   2.907 -0.4048  0.5633 -0.2611
 1540TIP3   OH226034   1.298   5.210   1.606 -0.6750  0.3195 -0.1917
 1540TIP3    H126035   1.272   5.120   1.624  2.0223 -0.9723 -1.9887
 1540TIP3    H226036   1.232   5.243   1.545 -0.7099 -1.1355 -0.9795
 1541TIP3   OH226037   1.805   3.858   5.261 -0.1018 -0.1531  0.1204
 1541TIP3    H126038   1.857   3.934   5.238  0.1110 -0.7142 -1.3708
 1541TIP3    H226039   1.774   3.876   5.350  0.8605  1.1467  0.2234
 1542TIP3   OH226040   6.495   4.042   6.109  0.4581  0.0581  0.0046
 1542TIP3    H126041   6.487   4.135   6.087  1.6587 -0.2701 -2.1285
 1542TIP3    H226042   6.424   4.000   6.060  2.6966 -0.5959 -2.9855
 1543TIP3   OH226043   2.385   1.950  14.087 -0.7912 -0.1652  0.2466
 1543TIP3    H126044   2.422   2.008  14.021  0.1782 -2.4212 -1.3345
 1543TIP3    H226045   2.328   1.891  14.038 -1.1853 -1.0170  1.6542
 1544TIP3   OH226046   2.926   5.733   2.302 -0.0474 -0.1780  0.2032
 1544TIP3    H126047   2.963   5.706   2.386  1.1496  2.5397  0.6808
 1544TIP3    H226048   2.853   5.791   2.326  0.9764  1.4856 -0.5552
 1545TIP3   OH226049   3.483   6.431   5.145 -0.3669  0.7258  0.5789
 1545TIP3    H126050   3.388   6.430   5.159 -0.3989  0.7613  0.3762
 1545TIP3    H226051   3.492   6.431   5.050 -0.1629  0.7742  0.5990
 1546TIP3   OH226052   4.257   2.385   0.444  0.4184  0.0021  0.1712
 1546TIP3    H126053   4.199   2.426   0.509  0.3180 -0.9484  0.7053
 1546TIP3    H226054   4.276   2.454   0.381 -1.2857  0.3436 -0.0058
 1547TIP3   OH226055   2.752   3.546   1.045  0.5621  0.3640 -0.4388
 1547TIP3    H126056   2.663   3.569   1.072 -0.8175 -2.3095 -2.2419
 1547TIP3    H226057   2.808   3.577   1.117 -1.8969  1.2809  1.2143
 1548TIP3   OH226058   0.083   4.235   5.085  0.5975 -0.1030  0.3783
 1548TIP3    H126059   0.030   4.276   5.153  0.6605  0.9491 -0.1971
 1548TIP3    H226060   0.159   4.291   5.076  0.0180  0.4723 -1.4045
 1549TIP3   OH226061   0.400   0.868   3.862 -0.1968  0.1602 -0.2449
 1549TIP3    H126062   0.375   0.957   3.887 -1.2386 -0.1530 -0.1351
 1549TIP3    H226063   0.358   0.812   3.927 -0.3116 -0.4643 -0.8490
 1550TIP3   OH226064   3.562   1.259  15.708  0.6376  0.1904 -0.0274
 1550TIP3    H126065   3.591   1.231  15.795 -1.1829  0.8539  0.8428
 1550TIP3    H226066   3.559   1.354  15.713  2.4342  0.3863 -1.5103
 1551TIP3   OH226067   3.467   2.891   4.603  0.1080 -0.5451  0.3728
 1551TIP3    H126068   3.464   2.890   4.699 -0.3801  2.0837  0.4564
 1551TIP3    H226069   3.388   2.843   4.576 -1.1270  0.7974  1.3877
 1552TIP3   OH226070   5.423   3.496   6.458 -0.0256 -0.3982 -0.0205
 1552TIP3    H126071   5.508   3.526   6.489  0.1611 -0.3669 -0.5599
 1552TIP3    H226072   5.439   3.411   6.419  0.2835  0.7135 -2.5386
 1553TIP3   OH226073   1.409   1.403  12.808 -0.2018 -0.0746 -0.3097
 1553TIP3    H126074   1.389   1.496  12.820  0.8808  0.5233 -2.6058
 1553TIP3    H226075   1.420   1.370  12.897 -2.6247  1.4826  0.6884
 1554TIP3   OH226076   3.095   1.975   4.638 -0.1235  0.4864 -0.4608
 1554TIP3    H126077   3.179   1.985   4.592 -0.4266 -0.2456 -1.2019
 1554TIP3    H226078   3.034   2.031   4.589 -0.2632  0.3367 -0.4586
 1555TIP3   OH226079   0.979   1.848  11.894  0.1815  0.0559 -0.3184
 1555TIP3    H126080   0.941   1.822  11.977  0.0138 -0.0991 -0.4428
 1555TIP3    H226081   0.940   1.789  11.830 -0.2017  0.6066 -0.6025
 1556TIP3   OH226082   3.065   6.411   0.514  0.2444 -0.1238  0.4171
 1556TIP3    H126083   2.995   6.458   0.560  1.2810  0.3018  1.6232
 1556TIP3    H226084   3.044   6.421   0.421 -0.8281  0.7129  0.7339
 1557TIP3   OH226085   2.983   1.721  10.530 -0.3958  0.1888 -0.5408
 1557TIP3    H126086   2.962   1.627  10.522  0.8685 -0.0802 -0.9857
 1557TIP3    H226087   3.047   1.736  10.461 -0.5206  1.3820 -0.4095
 1558TIP3   OH226088   1.828   5.971  17.197  0.6263  0.4190  0.5507
 1558TIP3    H126089   1.872   6.053  17.175 -1.7804  1.5666 -0.3935
 1558TIP3    H226090   1.838   5.917  17.119  0.0689  0.8394  0.1757
 1559TIP3   OH226091   3.206   1.657   5.904  0.5485  0.1263  0.5989
 1559TIP3    H126092   3.158   1.605   5.968 -0.6612  0.4664  0.0016
 1559TIP3    H226093   3.145   1.727   5.880  1.0541  0.1342 -0.7452
 1560TIP3   OH226094   4.171   1.765  17.093  0.2128  0.4596  0.6359
 1560TIP3    H126095   4.187   1.695  17.157 -1.4465  0.1398  0.7358
 1560TIP3    H226096   4.114   1.725  17.027  0.2656  1.3657  0.0216
 1561TIP3   OH226097   1.399   1.695   6.256 -0.1599 -0.7139  0.1610
 1561TIP3    H126098   1.371   1.748   6.330  0.1344 -0.0319 -0.2104
 1561TIP3    H226099   1.359   1.736   6.180 -3.3764 -3.3939  0.1941
 1562TIP3   OH226100   1.305   2.603  13.488 -0.1212  0.2114 -0.3465
 1562TIP3    H126101   1.393   2.588  13.520  0.8016  1.9567 -1.8796
 1562TIP3    H226102   1.280   2.688  13.524 -0.4618  0.5423 -1.3266
 1563TIP3   OH226103   0.957   4.609  14.697  0.3735 -0.4632  0.1765
 1563TIP3    H126104   1.035   4.630  14.645  0.4424 -0.5551  0.2423
 1563TIP3    H226105   0.884   4.619  14.636  0.6270 -2.9335 -0.6366
 1564TIP3   OH226106   1.365   3.987   4.608  0.0372 -0.0531  0.2148
 1564TIP3    H126107   1.338   4.074   4.579 -0.3430  0.3572  1.6866
 1564TIP3    H226108   1.411   3.950   4.533 -1.3166  0.7181 -1.0705
 1565TIP3   OH226109   2.100   2.537   6.638 -0.4906 -0.1950 -0.6503
 1565TIP3    H126110   2.149   2.463   6.673 -0.8402 -0.0986  0.0466
 1565TIP3    H226111   2.160   2.578   6.576 -0.4413 -1.3039 -1.3597
 1566TIP3   OH226112   1.037   4.366   2.588  0.2612  0.0063  0.4825
 1566TIP3    H126113   1.070   4.277   2.592  0.2545 -0.2102 -2.2907
 1566TIP3    H226114   0.947   4.357   2.555  0.2811  1.0242  0.0990
 1567TIP3   OH226115   1.203   1.360   3.130  0.3699  0.1337 -0.9773
 1567TIP3    H126116   1.123   1.364   3.183 -0.3248  1.7291 -2.0486
 1567TIP3    H226117   1.223   1.267   3.123  1.1177 -0.1661  2.9034
 1568TIP3   OH226118   3.931   6.599  15.076  0.5931 -0.2274 -0.2587
 1568TIP3    H126119   3.971   6.660  15.138 -0.3714 -0.2656  0.4358
 1568TIP3    H226120   3.877   6.542  15.131 -0.6983  0.0601 -1.1593
 1569TIP3   OH226121   4.706   2.631  11.025  0.0551 -0.1956 -0.6536
 1569TIP3    H126122   4.641   2.697  11.000  1.5035  1.9803  0.9681
 1569TIP3    H226123   4.786   2.657  10.979  0.5210 -1.2062 -0.4522
 1570TIP3   OH226124   2.856   3.884   0.309  0.1748 -0.6172  0.4921
 1570TIP3    H126125   2.827   3.794   0.294 -0.7743 -0.5691  1.8615
 1570TIP3    H226126   2.937   3.875   0.358  0.5861 -0.7224 -0.1962
 1571TIP3   OH226127   5.318   1.775   1.185  0.2894 -0.0544  0.1901
 1571TIP3    H126128   5.400   1.778   1.135  0.7994 -1.4904  0.8917
 1571TIP3    H226129   5.249   1.770   1.118  0.9774 -2.4879 -0.4236
 1572TIP3   OH226130   2.427   1.290  11.539  0.1834 -0.3213 -0.0676
 1572TIP3    H126131   2.488   1.247  11.479  0.8335 -0.3093  0.5782
 1572TIP3    H226132   2.344   1.292  11.491  0.9680  0.7704 -1.4590
 1573TIP3   OH226133   2.807   5.091  11.495 -0.6736 -0.2863 -0.6885
 1573TIP3    H126134   2.819   5.170  11.549  0.2514 -1.3353  0.7122
 1573TIP3    H226135   2.809   5.123  11.405  4.9772  0.7971 -0.5033
 1574TIP3   OH226136   5.571   4.043   1.971 -0.1108  0.0628 -0.6299
 1574TIP3    H126137   5.559   4.065   1.879  1.0856 -0.8806 -1.0428
 1574TIP3    H226138   5.532   3.956   1.980 -0.1526  0.1162 -0.2605
 1575TIP3   OH226139   0.724   1.860   1.979 -0.1483  0.1756 -0.1447
 1575TIP3    H126140   0.744   1.772   1.946  0.7537  0.9924 -1.8990
 1575TIP3    H226141   0.809   1.895   2.005 -0.5140  0.5346  0.5954
 1576TIP3   OH226142   5.069   4.934  16.482  0.6483  0.6682  1.1224
 1576TIP3    H126143   5.061   5.029  16.472 -1.1577  0.3245 -1.8881
 1576TIP3    H226144   5.136   4.908  16.419  0.6197 -0.1420  1.4025
 1577TIP3   OH226145   5.518   2.192   4.629  0.4066  0.3633 -0.0996
 1577TIP3    H126146   5.543   2.198   4.721 -0.0164  2.2828 -0.0569
 1577TIP3    H226147   5.596   2.218   4.581  0.6217 -0.6195 -0.2917
 1578TIP3   OH226148   2.169   0.246   3.971 -0.1317  0.1388 -0.5107
 1578TIP3    H126149   2.157   0.155   3.943 -0.2997  0.2549 -0.8218
 1578TIP3    H226150   2.264   0.261   3.963  0.0553 -0.3471  0.6104
 1579TIP3   OH226151   2.913   0.185  11.921  0.2090  0.0475 -0.0527
 1579TIP3    H126152   2.897   0.136  12.002  1.0202 -0.3974 -0.1609
 1579TIP3    H226153   2.991   0.146  11.883  1.1320  1.6771  0.0615
 1580TIP3   OH226154   1.594   3.312   3.761 -0.2186 -0.4050 -0.3169
 1580TIP3    H126155   1.593   3.358   3.677  0.4283 -1.2755 -0.8166
 1580TIP3    H226156   1.558   3.375   3.823 -0.2314  0.4321 -1.1507
 1581TIP3   OH226157   3.104   1.248   5.181 -0.1568  0.3843  0.1909
 1581TIP3    H126158   3.072   1.193   5.253  0.3014  0.2198  0.2708
 1581TIP3    H226159   3.063   1.333   5.196 -0.4163  0.2260  0.3912
 1582TIP3   OH226160   5.373   3.823  14.994 -0.3250 -0.0875 -0.0458
 1582TIP3    H126161   5.419   3.799  14.913 -0.2453 -0.2292  0.0417
 1582TIP3    H226162   5.420   3.899  15.028 -0.9610  0.6000 -0.6626
 1583TIP3   OH226163   4.942   5.393  13.398 -0.2339  0.1485  0.0124
 1583TIP3    H126164   4.944   5.297  13.392  0.0486  0.2374 -3.0816
 1583TIP3    H226165   5.024   5.416  13.440  0.0936 -0.9290 -0.0002
 1584TIP3   OH226166   2.128   0.204  14.692  0.5784 -0.2309  0.1862
 1584TIP3    H126167   2.130   0.242  14.780  0.6182 -1.1624  0.6075
 1584TIP3    H226168   2.211   0.156  14.685  1.0726  0.7332 -0.7835
 1585TIP3   OH226169   6.499   6.489   3.495 -0.0388 -0.9152 -0.1471
 1585TIP3    H126170   6.529   6.560   3.439  1.2416 -0.0448  1.5688
 1585TIP3    H226171   6.432   6.445   3.443 -1.6536  2.1595 -0.9154
 1586TIP3   OH226172   0.151   2.333  12.850  0.1480  0.3333 -0.7141
 1586TIP3    H126173   0.073   2.323  12.794  0.1939  0.2032 -0.7556
 1586TIP3    H226174   0.119   2.316  12.938 -0.1576  1.6323 -0.5619
 1587TIP3   OH226175   4.669   1.052   1.802 -0.1478  0.2655  0.3711
 1587TIP3    H126176   4.597   1.038   1.862 -1.0687 -1.2060 -0.9994
 1587TIP3    H226177   4.636   1.021   1.717  1.8697  0.1587 -0.4309
 1588TIP3   OH226178   1.313   5.184   0.743 -0.5092  0.7625  0.7389
 1588TIP3    H126179   1.310   5.237   0.823  1.1077 -0.1266  1.4480
 1588TIP3    H226180   1.222   5.159   0.728 -0.8472  0.8114  2.4277
 1589TIP3   OH226181   1.768   6.144   1.685  0.1988 -0.1206 -0.2904
 1589TIP3    H126182   1.717   6.194   1.622 -0.9982 -2.4699 -1.3154
 1589TIP3    H226183   1.753   6.053   1.662  2.9301 -1.0093  0.9506
 1590TIP3   OH226184   2.180   4.438  14.189 -0.4334 -0.0642  0.6454
 1590TIP3    H126185   2.207   4.458  14.279 -1.2468  4.0850  0.1468
 1590TIP3    H226186   2.263   4.426  14.142  0.3769  3.0932  1.0174
 1591TIP3   OH226187   4.617   3.644   3.020  0.3466  0.0374  0.5259
 1591TIP3    H126188   4.662   3.728   3.010 -0.5322  0.6417  1.5007
 1591TIP3    H226189   4.524   3.664   3.010  0.1421 -0.8809  0.4399
 1592TIP3   OH226190   4.266   2.133  12.472  0.2677  0.3360  0.4419
 1592TIP3    H126191   4.235   2.082  12.398  1.3479  0.4864 -0.1306
 1592TIP3    H226192   4.210   2.211  12.474  0.1048  0.2298 -0.0819
 1593TIP3   OH226193   2.285   2.620   6.334 -0.0464  0.3552  0.3669
 1593TIP3    H126194   2.375   2.587   6.329  0.3460  0.8638  2.6980
 1593TIP3    H226195   2.231   2.542   6.344  0.0642  0.0291 -1.2941
 1594TIP3   OH226196   1.214   2.021   4.479 -0.1523  0.7085  0.7585
 1594TIP3    H126197   1.182   2.005   4.390  1.9087 -1.8047  0.3571
 1594TIP3    H226198   1.136   2.010   4.535 -0.9145 -0.6487 -0.5050
 1595TIP3   OH226199   5.705   5.826   2.704 -0.1181 -0.0050  0.0322
 1595TIP3    H126200   5.732   5.890   2.769 -0.5795 -0.0888  0.3127
 1595TIP3    H226201   5.674   5.751   2.755 -0.3254 -0.1384 -0.2847
 1596TIP3   OH226202   6.176   5.480  13.379  0.1922  0.5747 -0.6536
 1596TIP3    H126203   6.139   5.426  13.449  1.1117 -2.6009 -2.4100
 1596TIP3    H226204   6.267   5.494  13.405 -0.2645  2.1848  0.2258
 1597TIP3   OH226205   6.089   3.476  13.415 -0.4300  0.0383 -0.5112
 1597TIP3    H126206   6.149   3.417  13.368  2.7427  1.2588  1.6767
 1597TIP3    H226207   6.103   3.456  13.508 -0.8892  2.6629  0.2149
 1598TIP3   OH226208   5.650   0.317   5.251  0.3327 -0.0209 -0.3210
 1598TIP3    H126209   5.609   0.366   5.323  0.0176 -0.3736 -0.2625
 1598TIP3    H226210   5.671   0.232   5.289  0.6351 -0.0321 -0.5061
 1599TIP3   OH226211   2.688   5.838   6.154  0.4418 -0.3830  0.5081
 1599TIP3    H126212   2.674   5.871   6.065  1.3291  0.6631  0.7447
 1599TIP3    H226213   2.699   5.916   6.208 -2.0784 -0.9140  1.9295
 1600TIP3   OH226214   4.177   5.520  16.909  0.1071  0.6915  0.1306
 1600TIP3    H126215   4.254   5.576  16.908 -0.2148  1.1535 -1.1397
 1600TIP3    H226216   4.156   5.508  17.002  3.0493 -1.3694  0.6738
 1601TIP3   OH226217   2.734   5.682  11.454  0.0583  0.6333 -0.1718
 1601TIP3    H126218   2.776   5.721  11.377  0.4146 -1.4437 -1.0803
 1601TIP3    H226219   2.751   5.588  11.446 -1.9631  0.0901  1.1669
 1602TIP3   OH226220   4.578   4.676  14.644  0.8489 -0.5079  0.1899
 1602TIP3    H126221   4.490   4.660  14.609  1.0491 -1.1390 -0.0256
 1602TIP3    H226222   4.629   4.600  14.618  1.5078 -0.0707  0.1764
 1603TIP3   OH226223   2.577   2.765   2.245 -0.3802  0.0704 -0.2915
 1603TIP3    H126224   2.555   2.812   2.165  2.7712  0.5351 -1.0175
 1603TIP3    H226225   2.618   2.830   2.301 -1.0960 -0.6164  1.0826
 1604TIP3   OH226226   1.199   3.154   2.398  0.2115 -0.0398 -0.3878
 1604TIP3    H126227   1.111   3.186   2.379  0.4667  0.5195 -0.6648
 1604TIP3    H226228   1.188   3.061   2.417 -0.5429  0.1953  0.3680
 1605TIP3   OH226229   0.752   6.585   4.014  0.4535  0.2981  0.5736
 1605TIP3    H126230   0.749   6.491   4.001 -0.3402  0.3909  0.0057
 1605TIP3    H226231   0.778   6.596   4.106  0.8155 -0.4595  0.5701
 1606TIP3   OH226232   0.674   5.086  16.826 -0.1395  0.2973  0.4997
 1606TIP3    H126233   0.737   5.025  16.789  1.4552  1.8623  0.4910
 1606TIP3    H226234   0.712   5.112  16.910 -2.0704 -0.6625  1.7342
 1607TIP3   OH226235   6.556   0.998   2.685  0.5038 -0.2749  0.1076
 1607TIP3    H126236   6.627   1.057   2.709 -0.5924  0.9105  0.5294
 1607TIP3    H226237   6.567   0.984   2.591 -0.4585  2.3944 -0.4807
 1608TIP3   OH226238   4.780   4.381   1.288 -0.1659  0.0679  0.0088
 1608TIP3    H126239   4.811   4.416   1.205  1.8409 -0.2412  0.5906
 1608TIP3    H226240   4.691   4.416   1.297  0.8281  3.0185 -0.5741
 1609TIP3   OH226241   6.686   4.237  11.382  0.2720  0.0130 -0.0853
 1609TIP3    H126242   6.741   4.189  11.443 -1.3557 -2.8983 -0.7015
 1609TIP3    H226243   6.727   4.223  11.296  1.5824  2.6169  0.0206
 1610TIP3   OH226244   3.555   0.418   1.785 -0.2459  0.4947 -0.2338
 1610TIP3    H126245   3.608   0.400   1.863 -1.8529 -0.5174  0.6879
 1610TIP3    H226246   3.590   0.361   1.717 -0.9262 -1.1742  0.7400
 1611TIP3   OH226247   2.927   5.615   0.732  0.5994 -0.3154  0.1640
 1611TIP3    H126248   2.988   5.543   0.711  0.5770 -0.0781 -0.7662
 1611TIP3    H226249   2.857   5.606   0.668  0.5057  0.4296  0.1568
 1612TIP3   OH226250   6.393   5.867   4.331 -0.7092  0.0736 -0.5664
 1612TIP3    H126251   6.415   5.916   4.410 -0.9224  0.9686 -1.0535
 1612TIP3    H226252   6.473   5.870   4.278 -0.2571 -1.2886 -0.0390
 1613TIP3   OH226253   5.740   0.092   5.384  0.1232  0.2742  1.1055
 1613TIP3    H126254   5.766   0.099   5.476  1.4589 -1.2273  0.8830
 1613TIP3    H226255   5.675   0.021   5.383  1.0788 -0.6280  0.7521
 1614TIP3   OH226256   5.360   5.569   1.658 -0.6245 -0.3595 -0.2430
 1614TIP3    H126257   5.412   5.648   1.672 -0.2834 -0.6581  0.1693
 1614TIP3    H226258   5.422   5.497   1.666 -0.9793 -0.6846 -0.3873
 1615TIP3   OH226259   3.198   2.978  12.013 -0.6280  0.5841  0.3560
 1615TIP3    H126260   3.149   3.005  11.935  0.2344  0.3435 -0.2809
 1615TIP3    H226261   3.134   2.928  12.064 -1.0741  0.3232 -0.4331
 1616TIP3   OH226262   1.632   0.497   5.022 -0.0205  0.2454  0.0191
 1616TIP3    H126263   1.690   0.427   4.993 -0.0142 -0.1730  1.0011
 1616TIP3    H226264   1.560   0.452   5.066  0.7150  0.8589  1.9798
 1617TIP3   OH226265   4.562   5.859   2.669 -0.2073 -0.0736 -0.0980
 1617TIP3    H126266   4.588   5.770   2.692 -2.0096 -1.1088 -1.7418
 1617TIP3    H226267   4.471   5.851   2.640 -0.5842  2.3973  0.1583
 1618TIP3   OH226268   3.493   0.502  17.243 -0.1028 -0.1069  0.0790
 1618TIP3    H126269   3.475   0.446  17.319  1.3471  1.9461  2.1005
 1618TIP3    H226270   3.435   0.578  17.255  0.9222  0.7550 -0.2218
 1619TIP3   OH226271   0.902   0.803   2.075  0.2173  0.0761  0.6202
 1619TIP3    H126272   0.908   0.721   2.123 -1.6627 -0.2182  0.4103
 1619TIP3    H226273   0.987   0.811   2.031  0.8894 -1.0998  1.6474
 1620TIP3   OH226274   6.305   3.364  12.990 -0.0782  0.0339  1.2317
 1620TIP3    H126275   6.333   3.381  12.900 -0.8267  0.3700  1.0585
 1620TIP3    H226276   6.211   3.382  12.990 -0.0631  0.1478  2.1072
 1621TIP3   OH226277   6.114   6.334   1.995 -0.5276  0.1811  0.0740
 1621TIP3    H126278   6.071   6.317   2.079 -1.4207 -0.3087 -0.4556
 1621TIP3    H226279   6.153   6.250   1.970 -1.0797  0.0647 -0.4337
 1622TIP3   OH226280   0.375   2.672  15.746 -0.4043  0.4805  0.2071
 1622TIP3    H126281   0.312   2.705  15.681 -0.5981 -0.0510  0.1209
 1622TIP3    H226282   0.460   2.703  15.714 -0.4999  0.2322 -0.2929
 1623TIP3   OH226283   3.597   3.497  11.615 -0.4076  0.0602  0.1936
 1623TIP3    H126284   3.672   3.512  11.558  1.1647  0.8749  2.3529
 1623TIP3    H226285   3.536   3.448  11.561  0.0549  2.5215 -2.8665
 1624TIP3   OH226286   4.576   5.874   0.581  0.2386  0.1824 -0.0958
 1624TIP3    H126287   4.522   5.809   0.626  0.9867 -1.6188 -1.6305
 1624TIP3    H226288   4.665   5.857   0.612  0.3908  0.7473 -0.2111
 1625TIP3   OH226289   6.256   4.326   1.616 -0.1534 -0.4941 -0.2893
 1625TIP3    H126290   6.210   4.400   1.577 -0.0688 -0.2050  0.1488
 1625TIP3    H226291   6.280   4.356   1.704 -1.8259 -1.7091  0.6410
 1626TIP3   OH226292   3.800   2.930   6.295 -0.3318 -0.2028  0.0523
 1626TIP3    H126293   3.851   2.984   6.355 -1.5312  0.6320  0.3505
 1626TIP3    H226294   3.848   2.934   6.213  1.5660 -1.6853  0.9873
 1627TIP3   OH226295   6.633   3.911  11.732 -0.2286  0.9021 -0.0354
 1627TIP3    H126296   6.678   3.988  11.768 -0.3041  1.0236 -0.2006
 1627TIP3    H226297   6.693   3.877  11.665  0.7010 -0.3267  1.3463
 1628TIP3   OH226298   3.491   1.380  13.990  0.2277 -0.3461  0.0470
 1628TIP3    H126299   3.557   1.314  13.968 -0.5415 -1.3440  0.6076
 1628TIP3    H226300   3.527   1.462  13.957  0.6182 -1.2312 -1.8778
 1629TIP3   OH226301   3.460   4.860   4.095  0.1656 -0.3784 -0.6702
 1629TIP3    H126302   3.419   4.935   4.139  0.2219 -0.3503 -0.6661
 1629TIP3    H226303   3.417   4.784   4.133 -0.3423 -0.3267 -1.1279
 1630TIP3   OH226304   2.056   1.597   3.278 -0.3686  0.3003 -0.0182
 1630TIP3    H126305   2.078   1.637   3.194 -0.6687  0.2279 -0.1335
 1630TIP3    H226306   2.139   1.561   3.310 -0.3624 -0.1542 -0.5425
 1631TIP3   OH226307   6.423   0.842  12.369  0.2253  0.1547 -0.3869
 1631TIP3    H126308   6.453   0.751  12.362 -0.8247 -0.4133  1.4378
 1631TIP3    H226309   6.503   0.893  12.379  0.7892 -0.8865  0.8918
 1632TIP3   OH226310   3.585   4.679  16.931 -0.0269 -0.2995 -0.0632
 1632TIP3    H126311   3.506   4.668  16.984  0.2215 -0.2163  0.3305
 1632TIP3    H226312   3.558   4.737  16.859 -0.6952 -1.4470 -0.7588
 1633TIP3   OH226313   1.791   0.017   6.062 -0.6164  0.2591 -0.7097
 1633TIP3    H126314   1.779   0.109   6.040 -0.1625  0.5001 -0.0096
 1633TIP3    H226315   1.771   0.012   6.156  0.2897 -0.1637 -0.5271
 1634TIP3   OH226316   5.766   4.211   4.567  0.4101  0.2303 -0.0045
 1634TIP3    H126317   5.756   4.221   4.472 -0.5865 -0.5414  0.0026
 1634TIP3    H226318   5.814   4.129   4.577 -1.6519 -1.0199  0.1851
 1635TIP3   OH226319   0.085   3.879   4.480  0.3914  0.1764  0.0323
 1635TIP3    H126320   0.117   3.912   4.396  0.1168  0.2702 -0.0367
 1635TIP3    H226321   0.141   3.804   4.499 -1.5759 -1.8936 -1.8331
 1636TIP3   OH226322   5.056   0.446  13.045 -0.1458  0.4751  0.0848
 1636TIP3    H126323   5.097   0.533  13.041 -2.8224  1.8711  0.7577
 1636TIP3    H226324   5.016   0.442  13.132 -2.1277 -0.3954 -0.8023
 1637TIP3   OH226325   5.179   2.636  16.316 -0.5352  0.0428 -0.3123
 1637TIP3    H126326   5.123   2.615  16.241 -1.6267  0.3471  0.3854
 1637TIP3    H226327   5.169   2.562  16.375  1.5204 -0.9268 -1.0785
 1638TIP3   OH226328   3.622   3.089  16.212 -0.1575 -0.1260 -0.1071
 1638TIP3    H126329   3.630   3.001  16.174 -2.2851  0.1715 -1.3792
 1638TIP3    H226330   3.566   3.136  16.151 -1.5436  1.2223  2.0882
 1639TIP3   OH226331   5.648   3.395   0.710 -0.2175  0.3852  0.1362
 1639TIP3    H126332   5.712   3.324   0.696 -0.8064  0.0490 -0.9729
 1639TIP3    H226333   5.571   3.351   0.746  0.0259  0.7331  1.1015
 1640TIP3   OH226334   6.247   0.320  16.265 -0.1415 -0.0483 -0.2031
 1640TIP3    H126335   6.178   0.382  16.287 -0.6299 -0.3240 -0.9124
 1640TIP3    H226336   6.207   0.262  16.200  0.6593 -0.4069 -0.3863
 1641TIP3   OH226337   1.550   0.082  11.178  0.0555 -0.5822  0.0233
 1641TIP3    H126338   1.566   0.164  11.225 -0.6166  0.3029 -1.2380
 1641TIP3    H226339   1.637   0.056  11.146  0.0418  0.6895 -1.1825
 1642TIP3   OH226340   1.372   2.768   4.400 -0.4457  0.8815 -0.3904
 1642TIP3    H126341   1.335   2.790   4.315  2.1717  3.3685 -1.0677
 1642TIP3    H226342   1.456   2.725   4.380  0.1204  1.3144  0.8992
 1643TIP3   OH226343   3.504   1.800   0.745  0.5477  0.3986 -0.0842
 1643TIP3    H126344   3.527   1.892   0.738 -0.1220  0.8143  2.3628
 1643TIP3    H226345   3.431   1.789   0.684  1.3790  1.1728 -1.2597
 1644TIP3   OH226346   2.826   3.471   3.335  0.4318  0.2738 -0.1055
 1644TIP3    H126347   2.731   3.468   3.330  0.2583  2.1589  1.0907
 1644TIP3    H226348   2.847   3.565   3.332  2.2784 -0.1109 -0.5667
 1645TIP3   OH226349   1.654   2.197  14.987 -0.1180  0.5037  0.2278
 1645TIP3    H126350   1.714   2.164  15.054  0.3807 -1.2388 -0.9992
 1645TIP3    H226351   1.598   2.122  14.967 -0.5165  1.1068 -0.9997
 1646TIP3   OH226352   4.322   0.386   1.408  0.5363 -0.0878  0.2561
 1646TIP3    H126353   4.393   0.384   1.344  0.4543  0.9071  0.1129
 1646TIP3    H226354   4.273   0.305   1.393  2.0473 -1.1563  0.8569
 1647TIP3   OH226355   5.704   4.953  12.853 -0.0769  0.1687 -0.1868
 1647TIP3    H126356   5.744   4.971  12.939 -1.6583  1.7927  0.2819
 1647TIP3    H226357   5.769   4.902  12.806  0.7708 -0.9449  2.0476
 1648TIP3   OH226358   0.372   0.421  12.135  0.0882 -0.5175 -0.2690
 1648TIP3    H126359   0.299   0.376  12.179  0.1677 -1.7219 -1.3081
 1648TIP3    H226360   0.397   0.491  12.196 -2.1164  0.1298 -0.0184
 1649TIP3   OH226361   5.353   3.222  15.476 -0.3735 -0.3724 -0.2467
 1649TIP3    H126362   5.338   3.309  15.513 -1.0582 -0.2489 -0.8024
 1649TIP3    H226363   5.292   3.216  15.402  0.0457 -1.1159 -0.5457
 1650TIP3   OH226364   2.596   3.916  11.269  0.3972  0.3183 -0.2630
 1650TIP3    H126365   2.570   3.973  11.196  0.0657  0.4977 -0.0069
 1650TIP3    H226366   2.576   3.828  11.238 -0.7534  0.4705  0.0246
 1651TIP3   OH226367   0.846   3.395   0.151 -0.6199  0.1160 -0.9561
 1651TIP3    H126368   0.917   3.452   0.181  0.3123 -1.4210 -0.1366
 1651TIP3    H226369   0.778   3.404   0.218 -1.5633  2.1294 -2.0956
 1652TIP3   OH226370   1.958   5.938  14.001  0.2425 -0.0497 -0.6241
 1652TIP3    H126371   1.981   5.939  13.908  0.2195  1.6715 -0.6405
 1652TIP3    H226372   1.864   5.958  14.004 -0.4375 -2.8380 -0.3272
 1653TIP3   OH226373   4.407   4.512   6.227 -0.0998 -0.3214 -0.3930
 1653TIP3    H126374   4.488   4.555   6.200 -0.0190 -0.1140  0.1644
 1653TIP3    H226375   4.338   4.559   6.181  0.0082  0.2632  0.0368
 1654TIP3   OH226376   3.592   6.742  11.568  0.0077  0.1956  0.1741
 1654TIP3    H126377   3.633   6.794  11.499  3.5230  0.5786  2.2605
 1654TIP3    H226378   3.551   6.669  11.523  0.5383  1.3674 -2.3986
 1655TIP3   OH226379   0.374   2.038  16.024 -0.3852  0.2940 -0.0155
 1655TIP3    H126380   0.417   1.998  16.099  0.3733  1.0721 -0.0235
 1655TIP3    H226381   0.292   1.989  16.014  0.1682 -0.7516  0.4297
 1656TIP3   OH226382   3.972   5.202  14.380  0.2664  0.2306  0.1330
 1656TIP3    H126383   3.943   5.131  14.437 -1.2598  0.6880 -0.0240
 1656TIP3    H226384   3.981   5.277  14.439 -1.7549  0.8219 -0.2234
 1657TIP3   OH226385   0.834   2.708   3.024  0.2564 -0.0463  0.2761
 1657TIP3    H126386   0.794   2.621   3.025  0.8709 -0.3421  1.9329
 1657TIP3    H226387   0.760   2.768   3.037  0.2004 -0.5734  3.1195
 1658TIP3   OH226388   5.805   4.776   0.683 -0.0476 -0.0016  0.0927
 1658TIP3    H126389   5.813   4.831   0.606  0.1411 -0.7019 -0.3922
 1658TIP3    H226390   5.892   4.737   0.695 -0.8734 -2.5010 -1.3276
 1659TIP3   OH226391   4.414   4.573  14.945  0.1386 -0.0854 -0.6283
 1659TIP3    H126392   4.478   4.517  14.989 -1.0684 -1.2297 -0.2433
 1659TIP3    H226393   4.381   4.519  14.873  0.3457  0.8765 -1.4721
 1660TIP3   OH226394   2.985   0.873   0.173  0.2281  0.0517  0.1912
 1660TIP3    H126395   2.917   0.940   0.187 -0.0994 -0.4505  1.1361
 1660TIP3    H226396   2.969   0.841   0.084 -1.1848 -0.4770  0.5975
 1661TIP3   OH226397   1.902   3.057  11.737  0.2352  0.5466  0.2619
 1661TIP3    H126398   1.956   3.100  11.671 -0.9871  0.5345 -0.7987
 1661TIP3    H226399   1.815   3.052  11.697 -0.1689 -0.9474  1.2192
 1662TIP3   OH226400   0.546   5.909  14.361 -0.3553  0.1184 -0.2369
 1662TIP3    H126401   0.532   5.815  14.353 -0.9871  0.1098  0.7684
 1662TIP3    H226402   0.577   5.936  14.275 -0.0620 -1.0253 -0.5056
 1663TIP3   OH226403   4.655   1.626  15.050  0.4103  0.3787 -0.2234
 1663TIP3    H126404   4.674   1.668  14.966 -0.6494 -1.6731 -1.5641
 1663TIP3    H226405   4.585   1.679  15.088 -2.2688 -1.0560 -2.7659
 1664TIP3   OH226406   4.331   5.122  14.886  0.7507 -0.8624 -0.2895
 1664TIP3    H126407   4.317   5.028  14.898 -1.4052 -0.9366 -2.5122
 1664TIP3    H226408   4.393   5.127  14.813 -0.2209 -0.6039 -1.1156
 1665TIP3   OH226409   4.466   1.347   3.263 -0.1068  0.2484 -0.5780
 1665TIP3    H126410   4.373   1.325   3.261 -0.2575  0.9316 -1.7910
 1665TIP3    H226411   4.508   1.277   3.213  0.0132  0.0721 -0.2369
 1666TIP3   OH226412   2.117   4.958   3.361 -0.1525 -0.5707 -0.3872
 1666TIP3    H126413   2.202   4.985   3.325 -0.2596 -0.7048 -0.7448
 1666TIP3    H226414   2.139   4.916   3.444  0.0972 -0.2423 -0.2860
 1667TIP3   OH226415   3.211   2.880   1.981 -0.2451  0.0433 -0.1093
 1667TIP3    H126416   3.135   2.834   2.017  0.3007 -1.3695 -0.6991
 1667TIP3    H226417   3.229   2.837   1.898  0.9852  0.5728 -0.1510
 1668TIP3   OH226418   0.120   2.769  16.484  0.2902 -0.3456  0.3495
 1668TIP3    H126419   0.079   2.701  16.431  1.1803 -1.4823  1.0679
 1668TIP3    H226420   0.057   2.786  16.554  0.6937 -1.5945  1.0583
 1669TIP3   OH226421   4.760   6.275   4.390 -0.4757  0.4357  0.3584
 1669TIP3    H126422   4.698   6.281   4.463 -0.2384  2.7160  0.4424
 1669TIP3    H226423   4.827   6.340   4.410  1.5183 -1.3265 -0.1873
 1670TIP3   OH226424   4.236   3.726   1.124 -0.0572 -0.4387 -0.6848
 1670TIP3    H126425   4.322   3.694   1.095  0.8763  0.9253  0.4306
 1670TIP3    H226426   4.256   3.781   1.199 -1.5198  2.6944 -2.3881
 1671TIP3   OH226427   1.043   0.962  16.615  0.3108 -0.0045 -0.0972
 1671TIP3    H126428   1.127   0.917  16.619  1.0593  0.8772 -3.1361
 1671TIP3    H226429   0.983   0.898  16.575  0.2666  0.2816 -0.4927
 1672TIP3   OH226430   5.529   1.432   1.199  0.5441  0.3169 -0.3725
 1672TIP3    H126431   5.437   1.405   1.194  0.4667  0.6265 -0.6602
 1672TIP3    H226432   5.559   1.401   1.285 -0.9134  3.5727  1.4774
 1673TIP3   OH226433   6.171   1.770  14.852 -0.1823  0.0941  0.2347
 1673TIP3    H126434   6.152   1.856  14.816 -1.8491 -0.4454 -0.2382
 1673TIP3    H226435   6.230   1.729  14.788  0.2527  0.7072  0.2403
 1674TIP3   OH226436   4.462   3.838  15.481  0.4527  0.0061  0.2361
 1674TIP3    H126437   4.527   3.773  15.457  0.5686 -0.0569  0.7048
 1674TIP3    H226438   4.407   3.848  15.403 -0.0145 -1.1853  0.3912
 1675TIP3   OH226439   0.746   1.844  12.921 -0.0655  0.1611 -0.1021
 1675TIP3    H126440   0.725   1.932  12.954 -1.7376 -0.2512  0.0012
 1675TIP3    H226441   0.684   1.829  12.850 -0.0715 -1.1088  0.1549
 1676TIP3   OH226442   3.662   2.645   2.463  0.2095 -0.2057 -0.0119
 1676TIP3    H126443   3.752   2.660   2.436  0.5042 -1.0461  0.4631
 1676TIP3    H226444   3.620   2.606   2.386  1.2276 -3.2668  0.8645
 1677TIP3   OH226445   4.143   1.873  16.028 -0.1228  0.8037  0.8968
 1677TIP3    H126446   4.073   1.862  15.964  0.1942  0.8336  0.5425
 1677TIP3    H226447   4.164   1.785  16.057  1.4533  0.5294 -0.9005
 1678TIP3   OH226448   3.530   1.363  12.490  0.3411 -0.6550  0.0889
 1678TIP3    H126449   3.547   1.308  12.566 -0.5476 -1.9718 -0.6284
 1678TIP3    H226450   3.440   1.342  12.465  0.1578  0.7794 -0.5038
 1679TIP3   OH226451   6.145   5.894   4.232 -0.2638  0.3575  0.0550
 1679TIP3    H126452   6.241   5.900   4.233 -0.1688 -0.4809 -1.2945
 1679TIP3    H226453   6.127   5.803   4.258 -0.6543  0.2730 -0.5129
 1680TIP3   OH226454   6.735   0.845   3.159 -0.0025 -0.1497 -0.7419
 1680TIP3    H126455   6.815   0.893   3.137 -1.0000  1.3897 -1.1395
 1680TIP3    H226456   6.755   0.754   3.137  1.8453  0.0858 -0.2319
 1681TIP3   OH226457   2.905   3.547  16.323  0.7642 -0.0363  0.3654
 1681TIP3    H126458   2.917   3.613  16.255 -1.2868 -0.8557 -0.8859
 1681TIP3    H226459   2.981   3.489  16.314  0.9183  0.3147 -0.7244
 1682TIP3   OH226460   5.220   1.174  14.648  0.2096  0.1313 -0.0277
 1682TIP3    H126461   5.301   1.128  14.627  0.3544 -0.3892  1.4965
 1682TIP3    H226462   5.238   1.218  14.731 -0.3592  1.8860 -0.7917
 1683TIP3   OH226463   1.671   5.502   5.484  0.1951 -0.0861 -0.0854
 1683TIP3    H126464   1.598   5.485   5.543 -0.8969 -0.8535 -1.5897
 1683TIP3    H226465   1.747   5.509   5.541 -0.7149 -1.3961  1.3588
 1684TIP3   OH226466   5.274   2.605  14.606 -0.1430 -0.2280 -0.3366
 1684TIP3    H126467   5.328   2.548  14.662  0.6705  1.3649  0.5653
 1684TIP3    H226468   5.196   2.622  14.658  0.2168  0.5352 -0.0266
 1685TIP3   OH226469   3.093   3.616   5.163 -0.0260  0.0582 -0.3812
 1685TIP3    H126470   3.135   3.547   5.111 -1.6125 -1.8518  0.7177
 1685TIP3    H226471   3.005   3.622   5.126 -0.1772  0.8762  0.1078
 1686TIP3   OH226472   3.966   0.716  12.856 -0.2302  0.5187 -1.1682
 1686TIP3    H126473   3.932   0.758  12.777 -1.4484 -0.5703 -1.2672
 1686TIP3    H226474   3.983   0.625  12.830 -0.4172  0.2089 -0.2505
 1687TIP3   OH226475   4.731   1.950   5.349 -0.1337  0.1283  0.2747
 1687TIP3    H126476   4.762   1.865   5.318  1.1663  1.0528 -1.0868
 1687TIP3    H226477   4.781   2.014   5.299 -1.6883  1.7184  0.6492
 1688TIP3   OH226478   2.262   5.677  13.961  0.4417 -0.0131 -0.0326
 1688TIP3    H126479   2.284   5.586  13.978 -1.7293 -0.7170 -0.6053
 1688TIP3    H226480   2.203   5.702  14.033 -0.0534  0.4788 -0.5885
 1689TIP3   OH226481   0.951   5.126   5.168  0.0904  0.1327  0.1059
 1689TIP3    H126482   0.864   5.093   5.189  0.2565 -1.9672 -2.1597
 1689TIP3    H226483   1.002   5.112   5.247 -1.3418  0.5013  1.1377
 1690TIP3   OH226484   2.721   1.423  15.108  0.8832  0.5346 -0.0550
 1690TIP3    H126485   2.649   1.454  15.053  0.3884 -0.5216 -0.0318
 1690TIP3    H226486   2.751   1.501  15.154  0.4415  1.1873 -0.8393
 1691TIP3   OH226487   3.241   3.306   1.506 -0.2696  0.3111  0.3947
 1691TIP3    H126488   3.237   3.215   1.475  1.5332  1.0927 -2.4878
 1691TIP3    H226489   3.330   3.316   1.540 -0.2537  1.1865  0.1083
 1692TIP3   OH226490   5.823   2.801  14.503 -0.0698 -0.3778 -0.0547
 1692TIP3    H126491   5.812   2.880  14.450 -0.9054 -0.0141  0.6268
 1692TIP3    H226492   5.917   2.781  14.498  0.6975  2.1713  1.8094
 1693TIP3   OH226493   3.874   3.785   3.240  0.2094  0.7639 -0.1145
 1693TIP3    H126494   3.801   3.767   3.180 -1.0917  2.2440  0.9428
 1693TIP3    H226495   3.865   3.719   3.309  1.4527 -0.6689 -1.2498
 1694TIP3   OH226496   2.302   0.787   6.883  0.4120  0.4204 -0.2901
 1694TIP3    H126497   2.260   0.859   6.836  0.0064  0.3099 -0.0927
 1694TIP3    H226498   2.346   0.737   6.814  0.2412  0.5467 -0.4932
 1695TIP3   OH226499   5.783   1.434   3.804  0.0444  0.3571  0.1374
 1695TIP3    H126500   5.867   1.461   3.768 -0.5390 -1.5496 -3.0133
 1695TIP3    H226501   5.718   1.485   3.755 -0.7117 -0.6037  0.0990
 1696TIP3   OH226502   3.994   3.265  13.694 -0.1650  0.0118  0.0931
 1696TIP3    H126503   4.062   3.198  13.699  1.1236  1.3102  0.5015
 1696TIP3    H226504   4.016   3.326  13.765 -3.6175 -1.1849  2.4690
 1697TIP3   OH226505   1.953   0.508   5.751 -0.1143 -0.2881  0.0809
 1697TIP3    H126506   1.973   0.577   5.815 -0.5826 -0.2929  0.2315
 1697TIP3    H226507   1.877   0.541   5.703 -0.5792 -0.8682  0.4141
 1698TIP3   OH226508   6.182   2.041   0.117  0.0330  0.3550 -0.3975
 1698TIP3    H126509   6.267   2.080   0.093 -0.4000  0.4349 -1.9114
 1698TIP3    H226510   6.178   1.961   0.066 -0.9314  0.5036 -0.5641
 1699TIP3   OH226511   5.986   0.917  10.873  0.1186  0.1400  0.1224
 1699TIP3    H126512   6.055   0.901  10.938 -1.4991  0.8828  2.1627
 1699TIP3    H226513   5.982   1.012  10.867 -0.7280  0.1086  0.0776
 1700TIP3   OH226514   6.200   0.721   5.737  0.1580 -0.6003 -0.6266
 1700TIP3    H126515   6.232   0.808   5.759 -0.7739 -0.3981 -0.0146
 1700TIP3    H226516   6.222   0.710   5.644  0.6536  0.1114 -0.5978
 1701TIP3   OH226517   1.910   2.274  13.471  0.3641 -0.2898 -0.0010
 1701TIP3    H126518   1.947   2.312  13.551  1.2254 -0.5124 -0.2830
 1701TIP3    H226519   1.986   2.247  13.420 -0.1841 -3.2918  0.5803
 1702TIP3   OH226520   6.144   5.723  12.622  0.4252  0.7505  0.0508
 1702TIP3    H126521   6.059   5.687  12.648 -0.2769  3.4563  1.9591
 1702TIP3    H226522   6.126   5.770  12.540 -0.0105  1.5198  0.5778
 1703TIP3   OH226523   2.675   1.676  16.313 -0.5881 -0.1019 -0.4100
 1703TIP3    H126524   2.671   1.635  16.400 -2.7663  0.7556 -0.0301
 1703TIP3    H226525   2.675   1.770  16.332 -1.0386  0.0876 -1.3281
 1704TIP3   OH226526   1.852   3.205   0.911  0.6218 -0.3518  0.4916
 1704TIP3    H126527   1.830   3.298   0.913  0.4846 -0.3894  1.5934
 1704TIP3    H226528   1.943   3.202   0.884  1.7179  0.3794  3.7042
 1705TIP3   OH226529   5.490   3.613  11.960 -0.4822  0.5048 -0.2407
 1705TIP3    H126530   5.509   3.587  12.050 -0.4017  0.9676 -0.1246
 1705TIP3    H226531   5.541   3.552  11.906  0.5343  1.0887  0.0447
 1706TIP3   OH226532   1.286   4.266  15.751 -0.2044  0.1585  0.1784
 1706TIP3    H126533   1.192   4.248  15.753 -0.0384 -0.7117  0.2996
 1706TIP3    H226534   1.328   4.183  15.772  0.6313  0.2647 -0.9647
 1707TIP3   OH226535   6.303   5.470  16.880  0.1538 -0.1624 -0.7021
 1707TIP3    H126536   6.248   5.548  16.888  1.5180  0.8479 -0.8601
 1707TIP3    H226537   6.278   5.415  16.954 -1.7219 -0.1809 -1.2922
 1708TIP3   OH226538   6.170   5.535  11.015 -0.5198 -0.0398  0.5948
 1708TIP3    H126539   6.170   5.595  10.941  0.8864 -0.0254  0.5761
 1708TIP3    H226540   6.257   5.494  11.013 -1.4725 -2.2007  0.5036
 1709TIP3   OH226541   0.609   3.952   2.350 -0.3752  0.5584  0.3652
 1709TIP3    H126542   0.664   4.028   2.370 -1.1119  0.8542  1.3529
 1709TIP3    H226543   0.670   3.883   2.326  0.5346  0.5825  2.4101
 1710TIP3   OH226544   1.364   4.463  15.927 -0.1826  0.3806 -0.0516
 1710TIP3    H126545   1.328   4.424  16.007  0.2074 -0.5622 -0.3311
 1710TIP3    H226546   1.347   4.399  15.859  1.9673 -0.0973 -0.2056
 1711TIP3   OH226547   4.515   5.288   2.364 -0.1228 -0.3945 -0.2453
 1711TIP3    H126548   4.549   5.217   2.309 -0.3333 -0.9684  0.3536
 1711TIP3    H226549   4.561   5.366   2.334 -1.7113 -0.2907 -2.6800
 1712TIP3   OH226550   3.421   0.205   2.927 -0.0689  0.1229 -0.2220
 1712TIP3    H126551   3.373   0.264   2.869 -0.2417  0.1182 -0.0851
 1712TIP3    H226552   3.503   0.187   2.881  0.2824  1.0159  0.0308
 1713TIP3   OH226553   1.165   1.739   0.968 -0.0466  0.1773  0.0481
 1713TIP3    H126554   1.073   1.741   0.992 -0.0911  0.2400 -0.1268
 1713TIP3    H226555   1.172   1.667   0.904 -0.4619  1.8053 -1.9341
 1714TIP3   OH226556   5.766   6.350  11.349 -0.0614  0.2462 -0.0681
 1714TIP3    H126557   5.821   6.356  11.428  2.4305 -1.3230 -1.5420
 1714TIP3    H226558   5.800   6.274  11.302 -2.1294  0.5201 -2.1942
 1715TIP3   OH226559   5.835   1.117  11.422 -0.9678 -0.0509  0.4309
 1715TIP3    H126560   5.853   1.085  11.510 -0.0897  1.6667  0.9291
 1715TIP3    H226561   5.920   1.146  11.389 -1.2615 -0.7976 -1.0507
 1716TIP3   OH226562   5.918   3.440   2.009 -0.2118  0.3365  0.4275
 1716TIP3    H126563   5.949   3.530   2.015  1.6457 -0.2134 -0.1910
 1716TIP3    H226564   5.967   3.394   2.077  1.5936 -0.8613 -1.5584
 1717TIP3   OH226565   0.586   1.118  12.429  0.0139 -0.1493 -0.0053
 1717TIP3    H126566   0.643   1.131  12.353 -0.7402 -0.9614 -0.7260
 1717TIP3    H226567   0.617   1.036  12.467  0.2054  0.1133  0.4098
 1718TIP3   OH226568   3.611   0.363  16.149  0.0980  0.1732 -0.2263
 1718TIP3    H126569   3.593   0.421  16.223 -1.2333 -0.3961 -0.0626
 1718TIP3    H226570   3.569   0.280  16.173  0.3125 -0.2549 -1.2775
 1719TIP3   OH226571   4.373   4.541  16.863 -0.3606  0.0607 -0.9113
 1719TIP3    H126572   4.391   4.614  16.803  0.4299  0.9069  0.2917
 1719TIP3    H226573   4.446   4.480  16.850 -1.1940 -0.7111 -2.1562
 1720TIP3   OH226574   2.780   0.095   3.327  0.4580  0.1811 -0.2179
 1720TIP3    H126575   2.765   0.034   3.399  0.6839 -0.6074 -0.8249
 1720TIP3    H226576   2.841   0.049   3.269 -1.9790 -0.5162 -2.4429
 1721TIP3   OH226577   1.850   0.665   2.861 -0.2036  0.4250  0.1565
 1721TIP3    H126578   1.779   0.602   2.871  0.2103 -0.0209  0.3267
 1721TIP3    H226579   1.810   0.740   2.817 -0.6093 -0.1133 -0.3992
 1722TIP3   OH226580   0.936   4.733   6.769 -0.4350 -0.7184 -0.0885
 1722TIP3    H126581   0.896   4.694   6.847 -3.9070  1.6519 -0.4689
 1722TIP3    H226582   0.932   4.663   6.703 -1.0346 -1.5369  0.7861
 1723TIP3   OH226583   6.154   2.697  14.330  0.4022  0.5288  0.3095
 1723TIP3    H126584   6.143   2.772  14.271 -0.1890 -1.2857 -2.0068
 1723TIP3    H226585   6.072   2.648  14.322  0.7767 -0.4083  1.7774
 1724TIP3   OH226586   3.005   5.029   6.742 -0.1169  0.3607  0.5596
 1724TIP3    H126587   3.051   4.975   6.677  1.3990  2.2327 -0.0240
 1724TIP3    H226588   2.918   5.042   6.705  1.1581  2.5935 -1.9484
 1725TIP3   OH226589   4.189   3.359   2.399  0.2440 -0.3964  0.4939
 1725TIP3    H126590   4.258   3.383   2.461  0.2538  1.8210 -0.3111
 1725TIP3    H226591   4.152   3.442   2.371 -1.9685 -1.4890 -0.0271
 1726TIP3   OH226592   5.280   1.956  16.505  0.0027  0.1549  0.2902
 1726TIP3    H126593   5.225   1.908  16.566  0.1943  0.0079  0.3467
 1726TIP3    H226594   5.263   1.914  16.420  0.7002 -0.4759  0.4539
 1727TIP3   OH226595   3.449   2.922  11.916 -0.0493  0.5850 -0.0325
 1727TIP3    H126596   3.417   2.898  11.829  1.5993 -1.4476 -0.1486
 1727TIP3    H226597   3.372   2.913  11.973 -0.7350  0.1620 -0.9934
 1728TIP3   OH226598   3.710   5.330  17.360  0.5719  0.4839 -0.0907
 1728TIP3    H126599   3.725   5.383  17.282 -0.4012 -0.6175 -1.0737
 1728TIP3    H226600   3.745   5.244  17.336 -1.0608 -0.2632  0.1129
 1729TIP3   OH226601   2.852   1.259   2.737 -0.0119  0.0265 -0.0845
 1729TIP3    H126602   2.877   1.178   2.692  1.1064  0.0271  0.4982
 1729TIP3    H226603   2.890   1.329   2.685 -0.4489  0.1543 -0.2423
 1730TIP3   OH226604   5.149   1.138   4.101 -0.4645 -0.2886  0.3349
 1730TIP3    H126605   5.186   1.052   4.084 -0.2279 -0.5402  2.0275
 1730TIP3    H226606   5.155   1.150   4.196  2.5512  2.9531 -0.0508
 1731TIP3   OH226607   4.592   3.826  13.228 -0.3999  0.2078 -0.1934
 1731TIP3    H126608   4.506   3.788  13.208 -0.0121 -1.4523  1.1587
 1731TIP3    H226609   4.603   3.812  13.322  0.4780  2.2991  0.0725
 1732TIP3   OH226610   3.029   5.401   2.714  0.4175 -0.3626 -0.1473
 1732TIP3    H126611   2.997   5.327   2.661 -0.5798 -0.0853  0.0512
 1732TIP3    H226612   2.950   5.442   2.748  1.0409 -1.1102  2.3850
 1733TIP3   OH226613   5.873   5.439  12.953 -0.9029 -0.5464  0.1644
 1733TIP3    H126614   5.861   5.350  12.986 -0.3673 -0.6756  0.0233
 1733TIP3    H226615   5.957   5.468  12.990 -0.8180 -0.3002 -0.2084
 1734TIP3   OH226616   5.333   5.228   3.283  0.0595  0.3303  0.2702
 1734TIP3    H126617   5.262   5.270   3.234 -0.0151  0.8020  0.7778
 1734TIP3    H226618   5.333   5.272   3.368 -0.0728 -0.7553  0.8433
 1735TIP3   OH226619   3.546   2.121   1.782  0.3862  0.0391  0.4176
 1735TIP3    H126620   3.451   2.133   1.772  0.7562  2.2383 -1.3277
 1735TIP3    H226621   3.577   2.102   1.693  1.9286  2.9879  0.2064
 1736TIP3   OH226622   1.680   5.755   4.198  0.2616 -0.0502  0.5452
 1736TIP3    H126623   1.585   5.757   4.187  0.4308  2.0446 -1.2086
 1736TIP3    H226624   1.694   5.760   4.292 -1.4105  2.1537  0.7464
 1737TIP3   OH226625   5.603   2.616   1.057 -0.2422 -0.7185 -0.0223
 1737TIP3    H126626   5.518   2.640   1.020 -0.2779 -0.0664  0.4747
 1737TIP3    H226627   5.664   2.681   1.023  0.0757 -1.2235 -0.4286
 1738TIP3   OH226628   2.404   3.207  11.679  0.1554  0.3068 -0.2056
 1738TIP3    H126629   2.460   3.253  11.616  0.6959 -0.8270 -0.5838
 1738TIP3    H226630   2.379   3.126  11.633 -1.0325  0.3736  0.3158
 1739TIP3   OH226631   4.151   3.377  17.268  0.4643 -0.2868 -0.2789
 1739TIP3    H126632   4.114   3.302  17.314 -2.8242  1.5480  0.4401
 1739TIP3    H226633   4.176   3.438  17.338  1.5120 -0.0128 -0.8752
 1740TIP3   OH226634   0.166   4.750   4.018  0.1177  0.0052  0.3797
 1740TIP3    H126635   0.218   4.683   3.974 -1.2348 -1.6057  1.1092
 1740TIP3    H226636   0.083   4.751   3.970  0.3368  1.6343 -0.0053
 1741TIP3   OH226637   3.627   6.588   5.890 -0.1932 -0.0720 -0.2062
 1741TIP3    H126638   3.551   6.530   5.888  0.1723 -0.5444 -1.0800
 1741TIP3    H226639   3.618   6.643   5.813 -0.2124  0.6271  0.2852
 1742TIP3   OH226640   4.118   4.082  13.343  0.4084  0.3115  0.3702
 1742TIP3    H126641   4.052   4.151  13.331  3.1754  2.7997 -2.1618
 1742TIP3    H226642   4.097   4.017  13.276  0.4358  1.0645 -0.3901
 1743TIP3   OH226643   4.468   3.145  12.441 -0.2053  0.2868 -0.0553
 1743TIP3    H126644   4.401   3.079  12.422  1.0303 -0.6275 -1.4660
 1743TIP3    H226645   4.535   3.096  12.490  0.1017  0.8318  0.0694
 1744TIP3   OH226646   2.542   1.096  14.081  0.1888 -0.0532  0.1062
 1744TIP3    H126647   2.595   1.061  14.153 -1.6026 -0.8195  1.1227
 1744TIP3    H226648   2.506   1.018  14.039 -1.7252  0.4617  0.7178
 1745TIP3   OH226649   4.867   6.454   6.267  0.1853  0.8754 -0.1960
 1745TIP3    H126650   4.849   6.544   6.240 -0.1219  1.2166  1.0784
 1745TIP3    H226651   4.811   6.440   6.343  0.0391 -0.4890 -0.5173
 1746TIP3   OH226652   0.486   5.952  12.446 -0.7484  0.0008  0.2847
 1746TIP3    H126653   0.466   5.860  12.466 -1.3232  0.3307  1.2843
 1746TIP3    H226654   0.431   5.972  12.371  1.1483 -1.1464 -1.5305
 1747TIP3   OH226655   0.638   0.297  11.868 -0.0799 -0.2946 -0.0433
 1747TIP3    H126656   0.619   0.286  11.775 -0.4660  1.2362 -0.1646
 1747TIP3    H226657   0.723   0.254  11.881  0.9372  1.1604 -1.5288
 1748TIP3   OH226658   5.362   0.235   0.349 -0.1070 -0.2457 -0.5261
 1748TIP3    H126659   5.457   0.241   0.340  0.0362 -2.4258 -1.0566
 1748TIP3    H226660   5.346   0.245   0.443  0.8163 -1.4648 -0.2256
 1749TIP3   OH226661   2.161   0.596   4.342  0.1922 -0.8883 -0.1394
 1749TIP3    H126662   2.180   0.510   4.306 -1.7530  0.7188 -6.1521
 1749TIP3    H226663   2.247   0.630   4.369  1.4709 -3.4596 -0.6497
 1750TIP3   OH226664   2.035   4.507   4.771  0.0900  0.2552  0.0600
 1750TIP3    H126665   1.975   4.446   4.729  0.9671  0.6578 -1.9086
 1750TIP3    H226666   2.105   4.519   4.707  0.5931  2.3197  0.9189
 1751TIP3   OH226667   3.254   5.420   2.040 -0.5401 -0.4979 -0.0277
 1751TIP3    H126668   3.303   5.437   1.959  0.1251 -0.0738  0.4555
 1751TIP3    H226669   3.216   5.333   2.026  2.1479 -1.8610  0.4158
 1752TIP3   OH226670   0.373   2.602   5.789  0.1325 -0.8708 -0.2058
 1752TIP3    H126671   0.333   2.668   5.734  2.7155  0.7318 -0.3213
 1752TIP3    H226672   0.359   2.520   5.742 -0.7567 -0.0404 -1.4532
 1753TIP3   OH226673   5.799   3.992  13.293  0.5930 -0.0543 -0.2703
 1753TIP3    H126674   5.867   3.936  13.256  1.9033 -0.1808  2.1465
 1753TIP3    H226675   5.846   4.058  13.343 -1.0391  1.0712 -0.1396
 1754TIP3   OH226676   3.009   3.163  12.668 -0.3214  0.2430  0.2687
 1754TIP3    H126677   2.996   3.233  12.732 -0.2709  1.3676 -0.9021
 1754TIP3    H226678   3.029   3.085  12.720 -1.2044  0.8973  1.6483
 1755TIP3   OH226679   3.545   1.848  15.876 -0.1132 -0.6916 -0.5705
 1755TIP3    H126680   3.483   1.920  15.873 -0.2810 -0.8378 -2.8356
 1755TIP3    H226681   3.628   1.889  15.901 -0.6884 -0.1537  0.5173
 1756TIP3   OH226682   2.034   3.487  15.510  0.3602  0.0932 -0.3473
 1756TIP3    H126683   1.966   3.550  15.487  0.0625 -0.3883 -0.8072
 1756TIP3    H226684   2.071   3.521  15.592 -1.3841 -0.3770  0.6944
 1757TIP3   OH226685   3.213   3.842  12.124 -0.5037 -0.6366  0.1117
 1757TIP3    H126686   3.193   3.749  12.125 -0.8436 -0.5681 -0.1732
 1757TIP3    H226687   3.305   3.846  12.098 -0.2931 -0.9178  0.7737
 1758TIP3   OH226688   1.622   3.727  12.898  0.1756 -0.7067  0.3650
 1758TIP3    H126689   1.549   3.665  12.896 -0.1348 -0.3820  1.2218
 1758TIP3    H226690   1.657   3.725  12.809 -0.6007 -1.1964  0.0590
 1759TIP3   OH226691   5.288   1.843   4.226  0.5470  0.2326  0.4221
 1759TIP3    H126692   5.322   1.899   4.296  0.4494  0.7004  0.1012
 1759TIP3    H226693   5.341   1.865   4.149 -1.0104  1.6292 -0.3291
 1760TIP3   OH226694   3.160   1.060   6.176  0.6681 -0.0425 -0.0010
 1760TIP3    H126695   3.078   1.044   6.129 -0.1369  0.1007  1.3120
 1760TIP3    H226696   3.133   1.094   6.261  1.9993 -1.8386  1.2325
 1761TIP3   OH226697   6.137   3.050   2.317 -0.3168  0.0061 -0.2395
 1761TIP3    H126698   6.089   3.132   2.305 -0.5402  0.0400  0.8113
 1761TIP3    H226699   6.226   3.077   2.340 -0.3299 -0.0415 -0.1301
 1762TIP3   OH226700   4.625   1.702  12.553 -0.1597 -0.1192 -0.7600
 1762TIP3    H126701   4.668   1.620  12.577  2.4477  1.2808 -0.2314
 1762TIP3    H226702   4.661   1.723  12.466 -0.7330  0.4935 -0.8568
 1763TIP3   OH226703   3.783   3.389   5.308 -0.3160  0.2045  0.2080
 1763TIP3    H126704   3.846   3.329   5.268 -1.5116 -0.8148 -0.2457
 1763TIP3    H226705   3.751   3.443   5.235 -0.8628 -0.1361  0.1871
 1764TIP3   OH226706   5.569   1.089  13.310 -0.4698  0.1188 -0.1359
 1764TIP3    H126707   5.508   1.104  13.383 -1.3955 -2.5216 -0.2739
 1764TIP3    H226708   5.642   1.148  13.328 -2.2130  2.0747  1.0243
 1765TIP3   OH226709   2.317   2.834   0.607 -0.1495 -0.0395  0.0181
 1765TIP3    H126710   2.380   2.805   0.673 -0.3752 -0.6453 -0.0273
 1765TIP3    H226711   2.234   2.794   0.632 -0.7933  1.6369  0.6930
 1766TIP3   OH226712   1.159   6.746   2.243  0.2328  0.3920  0.1542
 1766TIP3    H126713   1.105   6.709   2.173  0.3942  0.4668 -0.0139
 1766TIP3    H226714   1.179   6.834   2.213  0.4225  0.3752  0.2262
 1767TIP3   OH226715   0.689   4.723  14.756 -0.1698 -0.3510 -0.6550
 1767TIP3    H126716   0.756   4.783  14.724 -1.7331  1.9870  0.1933
 1767TIP3    H226717   0.610   4.746  14.708 -0.7929 -1.8836 -0.4272
 1768TIP3   OH226718   3.757   2.711   4.116 -0.4191  0.3267  0.0097
 1768TIP3    H126719   3.709   2.651   4.173 -0.2623 -0.0350 -0.2386
 1768TIP3    H226720   3.709   2.794   4.123 -0.0056  0.4894  1.2039
 1769TIP3   OH226721   5.504   1.524   0.778 -0.1444  0.4804  0.0991
 1769TIP3    H126722   5.544   1.457   0.722 -2.1617 -0.2780 -0.5366
 1769TIP3    H226723   5.449   1.475   0.838  2.6693  1.1940  3.5391
 1770TIP3   OH226724   3.354   3.453   0.533  0.6282 -0.7656  0.5452
 1770TIP3    H126725   3.390   3.396   0.601  0.3366 -0.4304  0.9892
 1770TIP3    H226726   3.431   3.491   0.490  0.8369 -1.9576 -0.1735
 1771TIP3   OH226727   2.363   5.013   1.377  0.8289  0.2072 -0.5591
 1771TIP3    H126728   2.373   5.037   1.285 -0.9501 -0.8911 -1.0957
 1771TIP3    H226729   2.298   5.075   1.411  1.0584  0.2454 -0.1805
 1772TIP3   OH226730   6.168   1.188  14.559  0.7056 -0.5689  0.2365
 1772TIP3    H126731   6.244   1.202  14.616  0.0308 -1.1062  1.3019
 1772TIP3    H226732   6.107   1.137  14.613 -1.2740  1.5321  0.1117
 1773TIP3   OH226733   2.571   4.238  17.096 -0.0313 -0.0266 -0.0427
 1773TIP3    H126734   2.545   4.249  17.004 -0.8237 -0.0091  0.1793
 1773TIP3    H226735   2.662   4.270  17.099 -0.0731  0.1793 -0.7708
 1774TIP3   OH226736   0.462   4.992  17.153  0.3154 -0.3239 -0.1836
 1774TIP3    H126737   0.449   5.033  17.067  0.1410  0.3508  0.1626
 1774TIP3    H226738   0.554   5.010  17.174  0.3481 -0.4604 -0.2037
 1775TIP3   OH226739   3.059   4.874  14.353 -0.4314 -0.5547 -0.6065
 1775TIP3    H126740   3.135   4.895  14.298 -0.8186 -0.0756 -0.9542
 1775TIP3    H226741   3.031   4.787  14.322  0.3319 -1.0079 -0.0751
 1776TIP3   OH226742   3.125   1.838   1.334  0.9078 -0.2521 -0.4068
 1776TIP3    H126743   3.034   1.809   1.337  1.1971 -1.1553 -0.1797
 1776TIP3    H226744   3.125   1.909   1.269  0.5038 -1.9363 -2.3505
 1777TIP3   OH226745   5.000   1.756   0.731 -0.1961  0.1629  0.3159
 1777TIP3    H126746   4.913   1.718   0.745  0.5890 -1.4880  1.0000
 1777TIP3    H226747   5.060   1.684   0.748  1.3464  1.4552  0.5501
 1778TIP3   OH226748   0.956   4.355   2.216 -0.4692  0.5205 -0.0521
 1778TIP3    H126749   0.887   4.290   2.230 -0.7957  0.3767 -2.0246
 1778TIP3    H226750   0.921   4.436   2.255 -2.2379  0.6972 -1.8019
 1779TIP3   OH226751   0.666   0.149  14.566  0.4303  0.3495  0.0536
 1779TIP3    H126752   0.679   0.204  14.644 -2.6032 -0.1206  1.0028
 1779TIP3    H226753   0.571   0.141  14.557  0.6891 -3.1024 -1.2142
 1780TIP3   OH226754   4.127   3.742  13.744 -0.0318 -0.2714 -0.3170
 1780TIP3    H126755   4.099   3.800  13.674 -2.0984  0.1647  0.7902
 1780TIP3    H226756   4.114   3.793  13.824  3.8718 -0.1117  0.4133
 1781TIP3   OH226757   3.882   1.566   4.993 -0.4240 -0.0842 -0.1087
 1781TIP3    H126758   3.892   1.632   5.061 -1.0897 -1.1813  1.1100
 1781TIP3    H226759   3.820   1.503   5.030 -0.6112 -0.8436 -1.6427
 1782TIP3   OH226760   0.662   5.454  15.395 -0.2258 -0.3160  0.6298
 1782TIP3    H126761   0.725   5.382  15.388  0.0618 -0.1018  0.9821
 1782TIP3    H226762   0.673   5.487  15.485 -1.2151 -0.6210  0.8756
 1783TIP3   OH226763   3.805   4.272  11.449 -0.1011  0.1359  0.2162
 1783TIP3    H126764   3.731   4.291  11.392 -1.2913 -2.0361  0.9322
 1783TIP3    H226765   3.769   4.273  11.537  1.0898  0.6028  0.7273
 1784TIP3   OH226766   5.083   5.027   4.273 -0.4765 -0.4019  0.2319
 1784TIP3    H126767   5.074   5.120   4.251  0.1448 -0.4427 -0.2082
 1784TIP3    H226768   5.059   4.980   4.193  2.4657 -0.5351 -0.6865
 1785TIP3   OH226769   4.900   6.457   5.528 -0.0831  0.4082  0.1414
 1785TIP3    H126770   4.820   6.473   5.579 -1.1641  1.5880 -1.7729
 1785TIP3    H226771   4.964   6.518   5.565 -0.8800  1.3326  0.0577
 1786TIP3   OH226772   0.712   1.735  17.309 -0.0089 -0.3365  0.0503
 1786TIP3    H126773   0.792   1.787  17.317 -1.4027  1.7717  1.1662
 1786TIP3    H226774   0.671   1.767  17.229 -0.1442 -0.8550 -0.0929
 1787TIP3   OH226775   1.284   4.603  10.993 -0.0382  0.8216  0.0252
 1787TIP3    H126776   1.208   4.649  11.029 -1.2370  0.3524 -1.7763
 1787TIP3    H226777   1.256   4.574  10.906  2.3166  0.9244 -0.8478
 1788TIP3   OH226778   3.494   0.526   1.468 -0.2403 -0.3221  0.2625
 1788TIP3    H126779   3.552   0.460   1.507 -1.2822 -1.6041 -0.3104
 1788TIP3    H226780   3.439   0.477   1.407 -0.1965  1.2876 -1.1346
 1789TIP3   OH226781   2.140   2.529  14.994  0.1991 -0.2346  0.0712
 1789TIP3    H126782   2.198   2.455  14.978 -0.0014 -0.5113  0.6068
 1789TIP3    H226783   2.115   2.521  15.086 -0.3833  0.0965 -0.0511
 1790TIP3   OH226784   2.725   5.879  15.809  0.4256  0.0316 -0.2702
 1790TIP3    H126785   2.762   5.911  15.891  1.0462  0.7443 -0.8139
 1790TIP3    H226786   2.673   5.952  15.776 -0.8984 -0.7000  0.1094
 1791TIP3   OH226787   1.652   1.475   0.728 -0.4817 -0.0216 -0.4927
 1791TIP3    H126788   1.625   1.551   0.781 -0.0659  0.1848 -0.5743
 1791TIP3    H226789   1.746   1.488   0.714 -0.8204  0.6434 -2.4180
 1792TIP3   OH226790   5.982   5.087  14.713 -0.4697  0.4015  0.0558
 1792TIP3    H126791   6.067   5.051  14.740 -1.2262 -0.8993  0.7956
 1792TIP3    H226792   5.938   5.015  14.668 -2.5256 -0.1371  2.6598
 1793TIP3   OH226793   1.173   2.852   0.350  0.4218 -0.3437  0.4016
 1793TIP3    H126794   1.201   2.792   0.282  2.0300 -0.7617  1.3834
 1793TIP3    H226795   1.080   2.866   0.333  0.5479 -1.2698 -1.2201
 1794TIP3   OH226796   5.325   5.452  16.533 -0.3629  0.5564 -0.1038
 1794TIP3    H126797   5.270   5.500  16.594  0.1710  0.7875  0.2080
 1794TIP3    H226798   5.299   5.484  16.446 -1.7795 -0.4640 -0.0799
 1795TIP3   OH226799   3.756   2.264  15.929  0.3063  0.0923 -0.2248
 1795TIP3    H126800   3.829   2.213  15.896 -0.3360 -0.3912 -0.9174
 1795TIP3    H226801   3.791   2.308  16.007  0.6866 -1.9302  0.7998
 1796TIP3   OH226802   3.776   0.749   5.070  0.0151  0.2457 -0.4491
 1796TIP3    H126803   3.736   0.819   5.018  1.4687  0.5753 -1.1904
 1796TIP3    H226804   3.767   0.671   5.015  0.0640  0.2510 -0.4650
 1797TIP3   OH226805   6.147   3.816  16.866  0.5602 -0.0625 -0.2130
 1797TIP3    H126806   6.083   3.745  16.862  0.5129 -0.0266 -0.1108
 1797TIP3    H226807   6.213   3.793  16.801  0.4166 -0.0756 -0.3537
 1798TIP3   OH226808   6.147   5.731   5.490  0.0421 -0.4693  0.3286
 1798TIP3    H126809   6.072   5.782   5.519  0.8168  1.5462 -1.0230
 1798TIP3    H226810   6.116   5.682   5.415  0.3535  1.4567 -1.1366
 1799TIP3   OH226811   1.823   5.485  15.452  0.4034  0.0016 -0.4150
 1799TIP3    H126812   1.862   5.566  15.420 -1.6191  1.1158 -0.2623
 1799TIP3    H226813   1.795   5.505  15.542  0.5956 -1.1434 -0.0774
 1800TIP3   OH226814   3.848   0.985  15.205 -0.0452 -0.2715 -0.2379
 1800TIP3    H126815   3.755   1.003  15.223  0.1354 -0.6026  1.1714
 1800TIP3    H226816   3.875   0.929  15.278  1.2918 -0.0864 -0.5795
 1801TIP3   OH226817   0.797   1.178   4.696  0.3735  0.2414 -0.1216
 1801TIP3    H126818   0.707   1.185   4.663 -0.0608  1.9860  1.3052
 1801TIP3    H226819   0.797   1.228   4.777  2.4129 -0.5601  0.4416
 1802TIP3   OH226820   1.595   4.111   5.774 -0.2859 -0.4750  0.3318
 1802TIP3    H126821   1.674   4.165   5.768  0.4837 -1.7038 -1.0757
 1802TIP3    H226822   1.621   4.035   5.826 -0.9177 -0.2797  0.9526
 1803TIP3   OH226823   6.075   5.760   3.757  0.2459 -0.3279  0.5639
 1803TIP3    H126824   6.169   5.765   3.772  0.4231 -1.2824 -0.1240
 1803TIP3    H226825   6.065   5.692   3.689 -0.9410 -0.3284  0.7173
 1804TIP3   OH226826   2.653   3.325  15.403  0.0744 -0.1005 -0.1262
 1804TIP3    H126827   2.568   3.369  15.399  1.0746  1.8432 -0.9605
 1804TIP3    H226828   2.708   3.382  15.457  1.4704 -0.1762 -1.4030
 1805TIP3   OH226829   5.187   1.887   2.774  0.3875  0.1727 -0.1850
 1805TIP3    H126830   5.205   1.846   2.859 -0.0068  1.6958  0.6830
 1805TIP3    H226831   5.271   1.925   2.748  0.8870 -1.5462 -1.2460
 1806TIP3   OH226832   1.006   4.697   5.714  0.6672  0.3375 -0.4454
 1806TIP3    H126833   1.094   4.718   5.682  1.0369  0.8595  0.8649
 1806TIP3    H226834   1.017   4.616   5.763  0.4292  0.4397 -0.2246
 1807TIP3   OH226835   3.748   4.780  15.856 -0.2569 -0.3446  0.4068
 1807TIP3    H126836   3.738   4.698  15.903 -0.6526  0.1942  1.2970
 1807TIP3    H226837   3.819   4.825  15.901 -1.1108  0.4842  0.9790
 1808TIP3   OH226838   4.801   6.264  16.130  0.2515 -0.2037 -0.2510
 1808TIP3    H126839   4.810   6.235  16.040  2.2175 -0.0397 -0.1533
 1808TIP3    H226840   4.889   6.295  16.154 -0.6733  1.6032  1.0781
 1809TIP3   OH226841   3.197   0.289   0.453  0.6029  0.0397  0.2132
 1809TIP3    H126842   3.227   0.358   0.395  0.4259  0.3524  0.4903
 1809TIP3    H226843   3.101   0.294   0.449  0.5769 -0.7992 -0.4874
 1810TIP3   OH226844   4.170   0.376   4.438 -0.5422 -0.2544  0.5265
 1810TIP3    H126845   4.114   0.399   4.364 -0.0351  1.4573  0.6327
 1810TIP3    H226846   4.110   0.350   4.508 -1.2511  1.5287  0.6314
 1811TIP3   OH226847   1.031   0.910   5.309  0.4693  0.0945 -0.1658
 1811TIP3    H126848   0.946   0.949   5.331  0.1122  0.1927 -1.6448
 1811TIP3    H226849   1.042   0.840   5.373 -0.0516  0.9825  0.9465
 1812TIP3   OH226850   5.589   0.257  15.762  0.0857  0.4843  0.3123
 1812TIP3    H126851   5.610   0.306  15.841  1.9603  0.3565 -0.0541
 1812TIP3    H226852   5.668   0.206  15.744 -0.4591  0.1711 -1.3872
 1813TIP3   OH226853   4.584   6.327   2.309 -0.6623  0.8291  0.1885
 1813TIP3    H126854   4.553   6.301   2.395 -0.0171  3.8514  1.4772
 1813TIP3    H226855   4.504   6.350   2.261 -0.9035  1.5336  0.8988
 1814TIP3   OH226856   6.697   3.567  14.655  0.2195  0.3176 -0.4692
 1814TIP3    H126857   6.618   3.598  14.699  0.1096  0.7996 -0.9896
 1814TIP3    H226858   6.666   3.497  14.597  0.1680  0.4937 -0.6592
 1815TIP3   OH226859   4.420   5.572   3.198 -0.4786 -0.0711  0.2007
 1815TIP3    H126860   4.397   5.558   3.106 -1.1836  1.6979  0.0635
 1815TIP3    H226861   4.336   5.579   3.243 -0.2250  1.6600  0.5079
 1816TIP3   OH226862   1.264   0.817   4.401  0.1883  0.2018 -0.1611
 1816TIP3    H126863   1.282   0.836   4.309  0.7135 -0.2916 -0.1696
 1816TIP3    H226864   1.293   0.895   4.448  0.3739  0.2632 -0.3743
 1817TIP3   OH226865   4.445   3.320  10.941 -0.7425 -0.0737 -0.2928
 1817TIP3    H126866   4.464   3.226  10.931 -1.1952 -0.4214  1.6894
 1817TIP3    H226867   4.531   3.361  10.940 -0.2264 -0.9218  2.0474
 1818TIP3   OH226868   5.501   4.355   5.682  0.4054  0.7102  0.2302
 1818TIP3    H126869   5.447   4.341   5.605 -1.6951  0.5312  1.6484
 1818TIP3    H226870   5.459   4.303   5.751 -0.1464  3.8314  2.4734
 1819TIP3   OH226871   0.651   4.728  16.052  0.2627 -0.1585  0.4649
 1819TIP3    H126872   0.725   4.694  16.102 -0.6547 -1.8826  0.7218
 1819TIP3    H226873   0.575   4.715  16.108 -0.5298 -0.3824 -0.6237
 1820TIP3   OH226874   3.629   1.413   2.284 -0.6257  0.2840  0.2533
 1820TIP3    H126875   3.632   1.318   2.278 -0.8856  0.3395 -1.5390
 1820TIP3    H226876   3.719   1.439   2.305 -0.2372 -0.3296 -0.5765
 1821TIP3   OH226877   1.356   6.393  11.982  0.4573 -0.1554  0.0283
 1821TIP3    H126878   1.422   6.365  12.047  0.4772 -1.1184 -0.3784
 1821TIP3    H226879   1.405   6.449  11.922  1.3448 -2.0630 -1.1463
 1822TIP3   OH226880   4.888   0.617  14.850  0.5939  0.3188  0.4424
 1822TIP3    H126881   4.819   0.682  14.864  1.1274  1.0990 -0.4183
 1822TIP3    H226882   4.913   0.628  14.758  0.5013 -1.3112  0.1830
 1823TIP3   OH226883   5.746   1.762  12.020  0.3919  0.2450 -0.1962
 1823TIP3    H126884   5.682   1.804  12.077  0.2352  0.5693 -0.6133
 1823TIP3    H226885   5.695   1.709  11.960  0.6374 -1.8193  1.2938
 1824TIP3   OH226886   3.538   0.028  12.788 -0.3288 -0.0882 -0.1012
 1824TIP3    H126887   3.464   0.073  12.829 -1.7330 -0.9647 -1.5568
 1824TIP3    H226888   3.503  -0.057  12.760  1.9190 -1.6967  1.5172
 1825TIP3   OH226889   0.788   0.809  11.421 -0.4900  0.0396  0.1915
 1825TIP3    H126890   0.762   0.811  11.328  0.0591  0.1678  0.0392
 1825TIP3    H226891   0.830   0.893  11.436 -1.9581  0.6743  0.9745
 1826TIP3   OH226892   1.672   6.590  12.341 -0.0475  0.0169 -0.1787
 1826TIP3    H126893   1.661   6.648  12.265  0.1177  0.3240  0.0307
 1826TIP3    H226894   1.665   6.649  12.416 -0.3826 -0.3118  0.0499
 1827TIP3   OH226895   2.463   5.514   5.293 -0.3576  0.5141 -0.0870
 1827TIP3    H126896   2.497   5.425   5.282  1.6494  0.4073  4.6488
 1827TIP3    H226897   2.382   5.515   5.242  1.7439 -2.4267 -4.0738
 1828TIP3   OH226898   0.877   6.003  11.844 -0.5338  0.0827 -0.2521
 1828TIP3    H126899   0.952   5.984  11.786  0.1683  0.1043  0.6249
 1828TIP3    H226900   0.825   5.923  11.843  0.4502 -0.5876  0.5198
 1829TIP3   OH226901   0.375   3.337   5.539  0.0626  0.3977  0.1929
 1829TIP3    H126902   0.348   3.296   5.621  0.1722  1.2132  0.6475
 1829TIP3    H226903   0.300   3.325   5.481  0.5406 -1.4819 -0.0926
 1830TIP3   OH226904   1.143   1.823  10.724  0.4445 -0.2875  1.1034
 1830TIP3    H126905   1.139   1.917  10.743  0.5211 -0.0816  0.1500
 1830TIP3    H226906   1.182   1.818  10.636 -3.7384 -0.9419 -0.9500
 1831TIP3   OH226907   5.503   4.827   2.858  0.1676  0.4127  0.0453
 1831TIP3    H126908   5.515   4.740   2.898 -0.6313  1.0414  1.7817
 1831TIP3    H226909   5.533   4.816   2.768  0.1529 -1.6564  0.2233
 1832TIP3   OH226910   2.104   2.675  14.355 -0.5462  0.4400  0.0245
 1832TIP3    H126911   2.181   2.640  14.311  0.2882  1.2263  0.8167
 1832TIP3    H226912   2.122   2.769  14.364 -2.1939  0.9007 -0.9678
 1833TIP3   OH226913   0.820   2.883   5.198 -0.6925  0.1091  0.6964
 1833TIP3    H126914   0.802   2.831   5.120  0.6710  2.1733 -1.1372
 1833TIP3    H226915   0.896   2.841   5.238  0.5767  0.7445 -0.9218
 1834TIP3   OH226916   4.861   0.218  13.891  0.8146  0.1591 -0.5069
 1834TIP3    H126917   4.767   0.227  13.875  1.0496  0.2782 -1.9348
 1834TIP3    H226918   4.869   0.220  13.986 -0.5665  0.7399 -0.3777
 1835TIP3   OH226919   2.112   5.879  16.827 -0.1340 -0.5940 -0.4982
 1835TIP3    H126920   2.198   5.877  16.868 -0.9464 -0.8263  1.2768
 1835TIP3    H226921   2.124   5.832  16.744  1.4171 -0.6685 -0.2608
 1836TIP3   OH226922   3.227   1.062  14.270 -0.0068  0.1797  0.5863
 1836TIP3    H126923   3.176   1.114  14.332 -0.2027  0.8470 -0.1165
 1836TIP3    H226924   3.300   1.027  14.321 -1.2676 -0.9877  1.6809
 1837TIP3   OH226925   3.347   6.434   0.538 -0.0460 -0.5271 -0.1781
 1837TIP3    H126926   3.360   6.529   0.537  2.2426 -0.7196 -3.2405
 1837TIP3    H226927   3.252   6.423   0.537 -0.3685  1.7704 -0.6659
 1838TIP3   OH226928   2.769   3.873  15.822  0.2658 -0.1784 -0.4462
 1838TIP3    H126929   2.732   3.842  15.905  1.6982  0.5817  0.5205
 1838TIP3    H226930   2.849   3.820  15.811  1.9133  1.9772  0.4422
 1839TIP3   OH226931   3.646   5.411  15.592  0.1112  0.5771  0.3511
 1839TIP3    H126932   3.721   5.353  15.606 -0.6529 -0.6790 -0.5419
 1839TIP3    H226933   3.674   5.495  15.628  2.4533  0.5332 -1.1855
 1840TIP3   OH226934   2.437   4.945  13.410  0.0729 -0.0699  0.0054
 1840TIP3    H126935   2.462   4.946  13.318  0.0206 -2.2597 -0.0745
 1840TIP3    H226936   2.360   4.889  13.414 -0.4918  0.7402  1.2678
 1841TIP3   OH226937   2.924   0.116   3.750 -0.0912  0.7385  0.3565
 1841TIP3    H126938   2.947   0.198   3.793 -1.1826  1.0362  0.4119
 1841TIP3    H226939   2.983   0.109   3.676  2.9695 -0.5675  2.7003
 1842TIP3   OH226940   2.067   0.311  11.733 -0.2763  0.8950 -0.2534
 1842TIP3    H126941   2.133   0.316  11.801  2.5854  2.5755 -2.8702
 1842TIP3    H226942   2.061   0.401  11.699 -0.9167 -0.0058 -2.7290
 1843TIP3   OH226943   3.542   4.393  14.363 -0.3952 -0.3154  0.2850
 1843TIP3    H126944   3.485   4.383  14.439 -1.9790 -0.1258 -0.8336
 1843TIP3    H226945   3.612   4.450  14.393 -1.5823  0.6498  1.3151
 1844TIP3   OH226946   4.152   5.262   0.762  0.2281  0.4522 -0.3149
 1844TIP3    H126947   4.186   5.285   0.676  1.3533  2.5723  0.6376
 1844TIP3    H226948   4.086   5.329   0.781  0.1488  0.1399  0.5776
 1845TIP3   OH226949   5.991   3.014   2.642 -0.0882 -0.4141  0.0673
 1845TIP3    H126950   5.968   3.079   2.576 -0.8676 -2.0659 -1.3668
 1845TIP3    H226951   6.077   3.040   2.674  0.7509 -0.0976 -2.3092
 1846TIP3   OH226952   4.364   1.520  14.077  0.1633 -0.3747 -0.3275
 1846TIP3    H126953   4.394   1.525  13.987  1.0842 -0.0325 -0.0180
 1846TIP3    H226954   4.442   1.537  14.130 -0.4669  0.0286  0.5236
 1847TIP3   OH226955   3.080   4.869  16.776  0.1258  0.3857 -0.2039
 1847TIP3    H126956   3.071   4.950  16.724 -2.9248 -0.8338 -1.8135
 1847TIP3    H226957   3.031   4.886  16.856  0.2529  0.4402 -0.1382
 1848TIP3   OH226958   5.703   6.213  15.823 -0.0061 -0.0269  0.2567
 1848TIP3    H126959   5.661   6.162  15.892  1.2700 -0.9543  0.3768
 1848TIP3    H226960   5.786   6.168  15.806  0.6033  1.3123 -0.5049
 1849TIP3   OH226961   1.253   0.184  16.158 -0.8678  0.6709  0.1483
 1849TIP3    H126962   1.299   0.260  16.196 -0.5632  0.1375  0.8667
 1849TIP3    H226963   1.315   0.112  16.167 -0.9089  0.4547 -1.1150
 1850TIP3   OH226964   3.877   6.220   5.052  0.0851  0.2785 -0.1218
 1850TIP3    H126965   3.786   6.196   5.068 -0.3844  1.6374 -0.6482
 1850TIP3    H226966   3.913   6.145   5.005 -0.2121 -1.0849  1.7152
 1851TIP3   OH226967   1.594   5.063   0.420 -0.4247  0.5150 -0.0942
 1851TIP3    H126968   1.661   5.063   0.352  0.1750 -0.6721  0.4789
 1851TIP3    H226969   1.634   5.110   0.494 -0.2399 -0.1177  0.2162
 1852TIP3   OH226970   5.745   4.372   2.854 -0.0723 -0.1689 -0.4689
 1852TIP3    H126971   5.727   4.297   2.797 -0.9852 -0.7024  0.4966
 1852TIP3    H226972   5.813   4.421   2.807  1.5345 -2.2887 -0.5163
 1853TIP3   OH226973   3.058   2.242  11.124 -0.2540 -0.9781 -0.1132
 1853TIP3    H126974   3.023   2.251  11.035  0.2164  1.1285 -0.1210
 1853TIP3    H226975   3.037   2.325  11.167  1.2794 -1.1949  1.1135
 1854TIP3   OH226976   5.164   6.351   4.509 -0.3657  0.0939 -0.2502
 1854TIP3    H126977   5.246   6.347   4.460  0.8465 -0.5956  1.7211
 1854TIP3    H226978   5.146   6.261   4.533 -2.0373  0.1646 -1.1068
 1855TIP3   OH226979   4.585   0.018  16.434  0.0143  0.2636 -0.1630
 1855TIP3    H126980   4.599  -0.067  16.476 -0.0484  0.6749  0.7081
 1855TIP3    H226981   4.595   0.000  16.340 -1.3334 -0.9728 -0.1001
 1856TIP3   OH226982   6.463   2.352  14.344 -0.7805  0.1464  0.1836
 1856TIP3    H126983   6.455   2.358  14.439  0.3030  2.2200  0.1883
 1856TIP3    H226984   6.375   2.371  14.312 -0.3286  3.9129  0.7292
 1857TIP3   OH226985   6.296   5.821   3.327  0.3077 -0.1793 -0.1152
 1857TIP3    H126986   6.260   5.870   3.401  2.0290  0.6572  0.2270
 1857TIP3    H226987   6.273   5.874   3.250  0.7611  0.3459  0.1008
 1858TIP3   OH226988   4.064   4.439   0.666  0.5237  0.0460  0.0828
 1858TIP3    H126989   4.023   4.367   0.619  0.6983 -0.0591  0.0906
 1858TIP3    H226990   4.021   4.518   0.632  0.3453 -0.0607  0.0627
 1859TIP3   OH226991   1.414   6.564   5.213 -0.6963 -0.0130 -0.4808
 1859TIP3    H126992   1.320   6.555   5.227 -0.8284  0.7730 -0.7993
 1859TIP3    H226993   1.426   6.657   5.193  0.1899 -0.0434 -0.1292
 1860TIP3   OH226994   3.791   1.895  15.470  0.3253  0.2438  0.1556
 1860TIP3    H126995   3.792   1.800  15.464  0.0172  0.3313 -2.6367
 1860TIP3    H226996   3.699   1.917  15.483  0.3457  0.1970  0.3953
 1861TIP3   OH226997   3.011   2.316   6.675 -0.2768 -0.3534  0.0043
 1861TIP3    H126998   3.082   2.363   6.719 -1.5511 -0.7338  2.7098
 1861TIP3    H226999   3.034   2.224   6.683  0.1137 -0.3915 -1.3861
 1862TIP3   OH227000   1.209   5.625   0.183  0.3080  0.4428  0.1701
 1862TIP3    H127001   1.282   5.572   0.216 -0.8090 -2.7051 -1.9506
 1862TIP3    H227002   1.232   5.643   0.092 -2.0463 -1.9888 -1.0624
 1863TIP3   OH227003   4.429   1.146  16.006  0.0451 -0.3087 -0.1212
 1863TIP3    H127004   4.428   1.225  15.953  0.6058  0.7954  1.4570
 1863TIP3    H227005   4.495   1.090  15.964 -0.7068 -0.1890 -1.5277
 1864TIP3   OH227006   5.771   4.419   0.996  0.0956  0.2419 -0.4170
 1864TIP3    H127007   5.741   4.508   1.012  1.6855  0.7534 -0.0798
 1864TIP3    H227008   5.803   4.420   0.906 -2.3700 -0.7569 -1.3817
 1865TIP3   OH227009   5.132   0.988   5.168 -0.9127 -0.0404  0.1458
 1865TIP3    H127010   5.145   1.073   5.125 -1.3907 -0.4514 -0.8546
 1865TIP3    H227011   5.037   0.980   5.176 -0.8208  0.1971  1.6688
 1866TIP3   OH227012   0.501   4.253   0.054  0.0722  0.2784 -0.2741
 1866TIP3    H127013   0.527   4.334   0.011 -2.1167  0.2498 -1.7958
 1866TIP3    H227014   0.547   4.184   0.007 -0.3617  0.4401 -0.9470
 1867TIP3   OH227015   4.678   5.586   2.724  0.3274 -0.2842 -0.1916
 1867TIP3    H127016   4.722   5.548   2.800  2.0056 -0.6683 -1.2920
 1867TIP3    H227017   4.602   5.529   2.710 -0.7240  0.5118  1.8786
 1868TIP3   OH227018   5.670   5.772   1.238 -0.0059 -0.2196  0.1432
 1868TIP3    H127019   5.590   5.756   1.289  0.1245  0.8459  0.7029
 1868TIP3    H227020   5.705   5.684   1.222 -0.6425 -0.6354  0.9420
 1869TIP3   OH227021   4.740   3.280  15.247 -0.8308  0.1177 -0.4696
 1869TIP3    H127022   4.778   3.336  15.315 -1.2002  0.3518 -0.4533
 1869TIP3    H227023   4.700   3.341  15.185 -2.8416 -0.1368  0.4779
 1870TIP3   OH227024   3.177   4.246  16.881 -0.4181 -0.0490  0.4804
 1870TIP3    H127025   3.184   4.160  16.923 -1.1847 -0.0310  0.6632
 1870TIP3    H227026   3.086   4.273  16.896 -0.2952  0.6189  0.0830
 1871TIP3   OH227027   5.658   3.375  14.792  0.3400  0.5204 -0.2031
 1871TIP3    H127028   5.678   3.461  14.827  0.6578  0.9506 -1.3820
 1871TIP3    H227029   5.565   3.362  14.810  0.0134  1.6059 -1.0024
 1872TIP3   OH227030   2.390   0.763   4.721 -0.2456 -0.0287  0.1924
 1872TIP3    H127031   2.402   0.677   4.682 -1.9865 -0.1271 -0.1886
 1872TIP3    H227032   2.419   0.753   4.812  2.4192 -0.1802 -0.5840
 1873TIP3   OH227033   5.278   4.045  13.157  0.3129 -0.0010 -0.4568
 1873TIP3    H127034   5.281   4.130  13.113  1.6066  0.2846  0.1562
 1873TIP3    H227035   5.214   4.057  13.228 -0.0560  0.2231 -0.8210
 1874TIP3   OH227036   0.701   0.457  13.862 -0.1574  0.3855 -0.2091
 1874TIP3    H127037   0.660   0.375  13.835 -1.7176  0.6658  1.1605
 1874TIP3    H227038   0.793   0.447  13.836 -0.3063 -1.7732 -0.1051
 1875TIP3   OH227039   3.649   6.598  16.313  0.8797  0.8126 -0.1783
 1875TIP3    H127040   3.665   6.631  16.225 -2.1713  1.6967 -0.5046
 1875TIP3    H227041   3.632   6.676  16.366 -1.9690  0.1378  0.0585
 1876TIP3   OH227042   6.182   2.175  15.470 -0.6705 -0.1144  0.0599
 1876TIP3    H127043   6.149   2.190  15.559 -0.4465  1.1708 -0.0587
 1876TIP3    H227044   6.112   2.206  15.413  0.3508  1.9538 -0.1903
 1877TIP3   OH227045   5.985   4.249  14.678  0.3043  0.5163  0.1222
 1877TIP3    H127046   6.031   4.199  14.611  1.2476  1.3500  0.1239
 1877TIP3    H227047   5.894   4.248  14.651  0.6302  0.5902 -1.0125
 1878TIP3   OH227048   1.319   3.641  12.672  0.1772 -0.1490 -0.0043
 1878TIP3    H127049   1.288   3.727  12.702 -1.6528 -1.1904  1.3428
 1878TIP3    H227050   1.271   3.626  12.591 -0.0138 -0.1718  0.1113
 1879TIP3   OH227051   2.903   5.221  14.999 -0.4106 -0.1596  0.8037
 1879TIP3    H127052   2.986   5.192  15.036  0.1705 -0.2291 -0.5089
 1879TIP3    H227053   2.843   5.148  15.016  0.0739 -0.5518  0.8586
 1880TIP3   OH227054   3.043   5.831  16.396 -0.3759  0.2358 -0.6905
 1880TIP3    H127055   3.077   5.779  16.323 -1.0406 -0.9593 -0.1742
 1880TIP3    H227056   3.044   5.921  16.364 -1.3475 -0.3411 -2.4386
 1881TIP3   OH227057   2.981   5.634   2.533 -0.5306 -0.3100 -0.3703
 1881TIP3    H127058   3.022   5.549   2.553  0.8510  0.4668  0.2804
 1881TIP3    H227059   2.975   5.677   2.618 -2.3139 -0.1903 -0.5257
 1882TIP3   OH227060   4.032   6.743   3.562  0.5415  0.7863  0.2156
 1882TIP3    H127061   4.100   6.719   3.624  1.8850  0.5760 -1.2903
 1882TIP3    H227062   4.074   6.806   3.504 -0.8294  1.3374 -0.2142
 1883TIP3   OH227063   2.090   4.141  12.927 -0.2660  0.2967 -0.2376
 1883TIP3    H127064   2.015   4.131  12.985 -0.0777 -1.7113 -0.2743
 1883TIP3    H227065   2.058   4.113  12.841  0.0762  1.0483 -0.6229
 1884TIP3   OH227066   0.073   4.726   0.050 -0.4576  0.2807  0.3776
 1884TIP3    H127067   0.142   4.752   0.112  0.8854 -1.9911 -0.0334
 1884TIP3    H227068   0.102   4.762  -0.034 -0.3319  0.2431  0.4034
 1885TIP3   OH227069   1.050   1.518   6.330  0.0151  0.1980 -0.3919
 1885TIP3    H127070   1.104   1.442   6.353 -1.9538 -1.6023 -1.3694
 1885TIP3    H227071   1.038   1.565   6.412 -0.7616 -1.9586  0.7909
 1886TIP3   OH227072   1.745   4.476   6.435 -0.3067 -0.0046  0.2253
 1886TIP3    H127073   1.826   4.463   6.387  0.0612 -1.0878  1.0993
 1886TIP3    H227074   1.706   4.553   6.395  1.7416  1.2904  0.5888
 1887TIP3   OH227075   1.112   1.964  15.499  0.3173  0.4029 -0.4053
 1887TIP3    H127076   1.030   1.936  15.460  1.0465 -1.2618 -0.8386
 1887TIP3    H227077   1.107   2.060  15.501 -1.9934  0.3112  0.4649
 1888TIP3   OH227078   6.085   3.886   3.934  0.6299 -0.2470  0.0637
 1888TIP3    H127079   5.989   3.886   3.936  0.5390 -3.2301  0.7724
 1888TIP3    H227080   6.106   3.886   3.840  0.0332  1.4327 -0.1111
 1889TIP3   OH227081   5.894   6.281  16.851 -0.3990 -0.4598  0.3626
 1889TIP3    H127082   5.807   6.318  16.866  0.1558  0.4062  1.5198
 1889TIP3    H227083   5.881   6.186  16.858 -1.1920 -0.3246  0.7912
 1890TIP3   OH227084   3.394   3.639   1.038  0.1822 -0.4319  0.5079
 1890TIP3    H127085   3.372   3.714   0.983  0.8018  0.2890  1.2103
 1890TIP3    H227086   3.313   3.619   1.085 -0.4057 -1.1850 -0.7861
 1891TIP3   OH227087   0.573   6.018   5.640  0.0464 -0.0619 -0.0648
 1891TIP3    H127088   0.503   5.952   5.633 -1.5589  1.5308  0.2656
 1891TIP3    H227089   0.529   6.101   5.622  2.3381  0.8035 -2.1112
 1892TIP3   OH227090   3.893   0.678   1.536 -0.7227 -0.1268  0.7435
 1892TIP3    H127091   3.811   0.668   1.486 -0.8711  1.3441  0.6306
 1892TIP3    H227092   3.954   0.618   1.494 -0.9724  0.7534 -0.9662
 1893TIP3   OH227093   5.867   1.602   5.614 -0.2505 -0.2947  0.0090
 1893TIP3    H127094   5.796   1.560   5.662 -2.3070 -1.1031 -3.4069
 1893TIP3    H227095   5.852   1.695   5.624 -0.4698 -0.4278  1.0535
 1894TIP3   OH227096   3.650   0.921   2.431  0.1379  0.0463 -0.0193
 1894TIP3    H127097   3.720   0.916   2.496  0.1420 -0.3093 -0.0488
 1894TIP3    H227098   3.639   0.831   2.401  1.0015  0.3731 -1.4248
 1895TIP3   OH227099   1.978   0.356   6.668 -0.2605 -0.5664  0.6617
 1895TIP3    H127100   1.997   0.303   6.745 -0.7084 -1.2159  0.3384
 1895TIP3    H227101   1.900   0.315   6.630  0.1990 -0.5155 -0.3658
 1896TIP3   OH227102   2.082   2.628   6.098  0.2432  0.5951 -0.4178
 1896TIP3    H127103   2.089   2.539   6.063  1.3092  0.8011 -0.7537
 1896TIP3    H227104   2.044   2.616   6.185  0.5141 -0.2026 -0.3980
 1897TIP3   OH227105   1.293   4.652  15.400 -0.1709 -0.6501 -0.4294
 1897TIP3    H127106   1.307   4.566  15.439  0.9198  0.4893  1.9467
 1897TIP3    H227107   1.212   4.643  15.351 -0.4805 -2.8406  0.3670
 1898TIP3   OH227108   1.165   5.566  13.191  0.5306  0.4750 -0.4746
 1898TIP3    H127109   1.249   5.612  13.186  1.1434 -0.6979 -2.0131
 1898TIP3    H227110   1.185   5.485  13.237  0.2899  0.1196 -0.9848
 1899TIP3   OH227111   3.367   5.292   3.265  0.2035  0.2439 -0.4073
 1899TIP3    H127112   3.275   5.266   3.268  0.6548 -1.4516 -0.6321
 1899TIP3    H227113   3.391   5.301   3.358 -0.6655  2.7030 -0.3245
 1900TIP3   OH227114   1.003   5.671   1.016 -0.1282  0.1222  0.0726
 1900TIP3    H127115   1.098   5.670   1.009 -0.1012  2.4866 -0.6198
 1900TIP3    H227116   0.978   5.578   1.016  2.2110 -0.5831  1.4949
 1901TIP3   OH227117   0.134   2.374  15.777 -0.1600 -0.3427 -0.4263
 1901TIP3    H127118   0.216   2.326  15.792 -0.3471 -0.4148  0.3820
 1901TIP3    H227119   0.117   2.419  15.859 -0.2155  0.7840 -1.0387
 1902TIP3   OH227120   1.415   2.017  13.596 -0.9675 -0.8276  0.1064
 1902TIP3    H127121   1.384   1.981  13.679 -2.0619 -2.3277 -0.9128
 1902TIP3    H227122   1.490   1.961  13.572 -0.3436 -0.0946  0.2980
 1903TIP3   OH227123   6.461   6.111  11.552 -0.4470  0.3787 -0.3637
 1903TIP3    H127124   6.464   6.166  11.474  1.9084  2.5073  1.0925
 1903TIP3    H227125   6.400   6.156  11.611 -1.0159 -0.3709 -0.3606
 1904TIP3   OH227126   0.489   2.848  11.834  0.1127  0.1717 -0.2633
 1904TIP3    H127127   0.449   2.924  11.876  0.7012 -0.2069  1.0187
 1904TIP3    H227128   0.583   2.866  11.836  0.6611 -2.0570  3.3093
 1905TIP3   OH227129   6.030   0.468  17.059 -0.2643  0.6848  0.1636
 1905TIP3    H127130   6.041   0.486  17.152  0.5393  0.9356  0.0289
 1905TIP3    H227131   6.118   0.448  17.027 -0.5705  0.3182 -0.4858
 1906TIP3   OH227132   4.389   1.905   3.183 -0.1510 -0.4543 -0.0875
 1906TIP3    H127133   4.385   1.830   3.242  1.1924 -0.7245 -0.3081
 1906TIP3    H227134   4.382   1.981   3.240  0.2448 -0.7315  0.3389
 1907TIP3   OH227135   5.312   2.729   5.883  0.1989  0.2223 -0.1407
 1907TIP3    H127136   5.354   2.679   5.953  0.9815  0.3443 -0.5156
 1907TIP3    H227137   5.329   2.821   5.904 -2.4989  0.4740  1.3538
 1908TIP3   OH227138   3.931   0.825  12.342  0.1467 -0.6677 -0.2805
 1908TIP3    H127139   3.897   0.800  12.256  0.8101  0.8661 -1.0331
 1908TIP3    H227140   3.920   0.920  12.345  0.0366 -0.7140  1.3855
 1909TIP3   OH227141   3.133   5.347  11.744  0.5539 -0.4038 -0.0833
 1909TIP3    H127142   3.046   5.323  11.775  0.6838 -1.3398 -0.4312
 1909TIP3    H227143   3.117   5.413  11.676  0.1967  0.4735  0.8183
 1910TIP3   OH227144   1.596   5.963  14.784 -0.0483 -0.1775 -0.2159
 1910TIP3    H127145   1.649   5.941  14.708  1.1589  0.8435  0.3075
 1910TIP3    H227146   1.634   6.044  14.818 -1.9422  0.6143  0.1749
 1911TIP3   OH227147   3.201   3.026  16.040  0.6265  0.2194  0.2242
 1911TIP3    H127148   3.245   2.970  16.104  0.3004  0.9122  1.0696
 1911TIP3    H227149   3.191   3.110  16.084  0.0078  0.5890 -0.5871
 1912TIP3   OH227150   3.699   0.543   2.727  0.1897  0.1389 -0.3666
 1912TIP3    H127151   3.782   0.566   2.769  0.9373  1.0445 -2.1806
 1912TIP3    H227152   3.655   0.627   2.714 -0.3459 -0.1899 -0.6997
 1913TIP3   OH227153   1.277   0.293  13.892 -0.1896 -0.4108 -0.1904
 1913TIP3    H127154   1.334   0.368  13.876 -1.5965  0.7131 -0.1380
 1913TIP3    H227155   1.327   0.237  13.952  0.0982  1.4770  1.4273
 1914TIP3   OH227156   4.439   0.359   0.699 -0.1465  0.4279  0.4070
 1914TIP3    H127157   4.431   0.448   0.733 -0.1157  1.5619 -2.2439
 1914TIP3    H227158   4.403   0.365   0.610  0.4229 -2.0841 -0.0601
 1915TIP3   OH227159   0.321   6.016   1.258  0.6645 -0.1017  0.4396
 1915TIP3    H127160   0.260   5.995   1.187  1.7663 -0.6351 -0.3670
 1915TIP3    H227161   0.386   5.946   1.255  0.9088  0.0432  1.7868
 1916TIP3   OH227162   3.918   2.824  12.273 -0.5258  0.1417 -0.3669
 1916TIP3    H127163   3.929   2.821  12.178  0.0839 -0.4015 -0.2784
 1916TIP3    H227164   3.940   2.914  12.297 -0.3226  0.1789 -0.6939
 1917TIP3   OH227165   3.389   5.331   4.343 -0.0619 -0.5157 -0.4261
 1917TIP3    H127166   3.418   5.421   4.358  0.5112 -0.2937 -2.6163
 1917TIP3    H227167   3.364   5.299   4.430  0.3209  1.5361  0.4848
 1918TIP3   OH227168   0.329   6.743   5.871 -0.9587 -0.1078  0.2409
 1918TIP3    H127169   0.318   6.687   5.795 -0.7545  1.0537 -0.6787
 1918TIP3    H227170   0.289   6.694   5.943 -0.3154 -1.6439 -0.4015
 1919TIP3   OH227171   2.031   3.721  16.010  0.2284 -0.4524 -0.1350
 1919TIP3    H127172   2.060   3.731  16.101  0.4070  1.0520 -0.3275
 1919TIP3    H227173   1.966   3.790  15.999 -0.2215 -1.0008 -0.9977
 1920TIP3   OH227174   6.053   0.733   4.111  0.3355  0.2260  0.3994
 1920TIP3    H127175   6.043   0.817   4.065 -2.5066  0.1378  0.6825
 1920TIP3    H227176   6.050   0.755   4.204  1.7277 -0.0149  0.5174
 1921TIP3   OH227177   2.857   1.416   4.621  0.2152 -0.3058 -0.2792
 1921TIP3    H127178   2.853   1.326   4.653  0.3569  0.2511  1.4162
 1921TIP3    H227179   2.950   1.439   4.626 -0.1178  0.8719  2.2556
 1922TIP3   OH227180   3.944   2.374   3.508 -0.0298  0.1657 -0.5764
 1922TIP3    H127181   3.898   2.322   3.573 -0.9508  0.6306 -0.8391
 1922TIP3    H227182   3.947   2.463   3.544  0.5047  0.1797 -0.6424
 1923TIP3   OH227183   0.491   4.684  16.519 -0.2753 -0.7431 -0.0711
 1923TIP3    H127184   0.424   4.632  16.474 -0.6067  0.5889 -1.2080
 1923TIP3    H227185   0.569   4.675  16.464 -0.3081 -0.1618 -0.2266
 1924TIP3   OH227186   5.270   5.339  17.220  0.4280 -0.3348  0.1496
 1924TIP3    H127187   5.242   5.409  17.278 -1.7268 -1.3525  0.4410
 1924TIP3    H227188   5.353   5.370  17.183 -0.3297  2.2478  0.4156
 1925TIP3   OH227189   4.376   0.822   4.371  0.4539 -0.3133 -0.5915
 1925TIP3    H127190   4.390   0.741   4.419 -0.1921 -0.3473 -0.4454
 1925TIP3    H227191   4.349   0.885   4.438  1.1387  0.0735 -0.6744
 1926TIP3   OH227192   1.213   0.530   6.308 -0.1093  0.1245 -0.2224
 1926TIP3    H127193   1.283   0.465   6.309  0.1148  0.3588 -0.4025
 1926TIP3    H227194   1.133   0.480   6.324 -0.1619 -0.4676 -2.1705
 1927TIP3   OH227195   6.589   5.021   0.489  0.2189 -0.1265 -0.1807
 1927TIP3    H127196   6.645   5.086   0.448 -0.8303  0.3218 -0.9683
 1927TIP3    H227197   6.636   4.939   0.479  0.8931  0.2930 -0.5106
 1928TIP3   OH227198   2.829   2.817  12.761 -0.3906 -0.2799  0.7652
 1928TIP3    H127199   2.738   2.819  12.730  0.0325 -0.0094 -0.5362
 1928TIP3    H227200   2.855   2.726  12.754 -0.4958 -0.3247  0.9496
 1929TIP3   OH227201   2.701   3.158   5.065  0.2815 -0.2072  0.1456
 1929TIP3    H127202   2.608   3.178   5.074  0.4426  1.0483 -0.6815
 1929TIP3    H227203   2.736   3.163   5.154 -0.0382  1.5916  0.2121
 1930TIP3   OH227204   0.250   4.758   0.302 -0.0896  0.0014  0.0167
 1930TIP3    H127205   0.160   4.775   0.328  0.4719  1.8293  0.9600
 1930TIP3    H227206   0.277   4.837   0.256  0.3456 -1.4367 -2.3889
 1931TIP3   OH227207   4.430   0.056   3.058 -0.3770  0.0937 -0.1945
 1931TIP3    H127208   4.516   0.034   3.021 -0.3884  0.4157 -0.4163
 1931TIP3    H227209   4.388   0.111   2.991 -0.7829 -0.1154 -0.1145
 1932TIP3   OH227210   6.005   0.499  13.186  0.4182 -0.5196  0.1177
 1932TIP3    H127211   5.920   0.534  13.213  0.3273 -0.8294  0.2405
 1932TIP3    H227212   6.067   0.534  13.249 -0.0453 -2.7392  1.9399
 1933TIP3   OH227213   2.196   5.609   2.494  0.2947 -0.1481  0.1045
 1933TIP3    H127214   2.214   5.696   2.460 -2.6008  0.7589  0.6126
 1933TIP3    H227215   2.218   5.614   2.587 -0.1583  0.1690  0.1993
 1934TIP3   OH227216   4.166   0.687  12.327 -0.1267 -0.1292 -0.1500
 1934TIP3    H127217   4.149   0.615  12.388 -0.6003  0.3295  0.2750
 1934TIP3    H227218   4.091   0.746  12.339  0.0887  0.2691 -0.7335
 1935TIP3   OH227219   2.618   6.311  14.731  0.0814  0.0888  0.2532
 1935TIP3    H127220   2.575   6.387  14.692  0.3930  0.1904  0.1059
 1935TIP3    H227221   2.689   6.348  14.783  1.6424 -0.1994 -1.5757
 1936TIP3   OH227222   0.862   5.712   4.036 -0.3150 -0.4547  0.0734
 1936TIP3    H127223   0.840   5.790   4.088  0.0784 -1.3090  1.5745
 1936TIP3    H227224   0.777   5.680   4.004 -0.6307 -0.2643  0.7039
 1937TIP3   OH227225   2.941   0.922   1.075  0.3210  0.4479  0.2703
 1937TIP3    H127226   2.907   0.964   1.154  0.7806  0.3494  0.5239
 1937TIP3    H227227   2.893   0.963   1.004 -1.6197 -0.9048  0.7070
 1938TIP3   OH227228   5.475   6.617   3.350  0.6207 -0.2198 -0.5990
 1938TIP3    H127229   5.490   6.630   3.257  0.3735  0.6452 -0.5229
 1938TIP3    H227230   5.561   6.626   3.390  0.5145  0.8364 -0.5919
 1939TIP3   OH227231   0.521   4.424   7.038 -0.5961  0.4169 -0.4619
 1939TIP3    H127232   0.453   4.358   7.024  0.7636 -1.6172  1.8186
 1939TIP3    H227233   0.588   4.403   6.973  0.9046 -2.1561  1.7160
 1940TIP3   OH227234   3.997   2.589  14.680  0.0111 -0.1120 -0.3477
 1940TIP3    H127235   3.981   2.500  14.710  0.7327 -0.2253 -0.2886
 1940TIP3    H227236   4.084   2.611  14.713  0.2624  0.2435 -1.2176
 1941TIP3   OH227237   1.676   5.559   3.550  0.1634 -0.2999 -0.6971
 1941TIP3    H127238   1.624   5.523   3.478 -0.6588 -0.8148  0.1371
 1941TIP3    H227239   1.742   5.492   3.568  1.3830  0.4904 -1.9708
 1942TIP3   OH227240   1.193   4.853   5.015  0.0419 -0.1048  0.1251
 1942TIP3    H127241   1.190   4.908   5.093 -3.0360 -3.1988  2.5664
 1942TIP3    H227242   1.149   4.904   4.947 -0.4630  1.3413  1.4902
 1943TIP3   OH227243   3.998   5.467   0.426 -0.0687 -0.2951 -0.1820
 1943TIP3    H127244   3.947   5.396   0.466 -0.3357 -1.2204 -2.0291
 1943TIP3    H227245   4.086   5.458   0.462  0.1434 -2.1942 -1.0313
 1944TIP3   OH227246   3.874   5.430  12.933 -0.2355  0.3907 -0.4940
 1944TIP3    H127247   3.834   5.513  12.959  0.7221  0.0043  2.6529
 1944TIP3    H227248   3.968   5.450  12.927 -0.0502 -0.3370 -0.1549
 1945TIP3   OH227249   3.778   1.985  14.881  0.3300 -0.0167  0.5456
 1945TIP3    H127250   3.741   2.069  14.909 -0.3427 -0.0177 -0.2801
 1945TIP3    H227251   3.707   1.944  14.832  1.6891  0.4055 -1.9548
 1946TIP3   OH227252   3.025   6.721  14.066 -0.4125 -0.8729  0.1025
 1946TIP3    H127253   3.017   6.795  14.126 -0.6549 -0.5710 -0.2950
 1946TIP3    H227254   2.984   6.751  13.985 -1.2819 -1.7512  0.2054
 1947TIP3   OH227255   3.470   2.649   0.665 -0.1237 -0.3279 -0.1363
 1947TIP3    H127256   3.467   2.745   0.675  1.0135 -0.3429  0.5108
 1947TIP3    H227257   3.434   2.634   0.577  1.3341  0.8678 -1.0031
 1948TIP3   OH227258   1.018   2.583  13.507 -0.1796 -0.1111  0.2230
 1948TIP3    H127259   1.099   2.547  13.470 -0.7375 -0.9936 -0.1785
 1948TIP3    H227260   1.045   2.662  13.554  1.1039 -1.0973  1.1969
 1949TIP3   OH227261   3.852   3.914  11.758  0.1722 -1.0471 -0.1476
 1949TIP3    H127262   3.897   3.995  11.734 -1.2639 -0.5137 -1.1883
 1949TIP3    H227263   3.785   3.903  11.691 -0.4792 -2.4363  0.6873
 1950TIP3   OH227264   4.269   1.395  12.295 -0.2185 -0.0451 -0.5026
 1950TIP3    H127265   4.278   1.372  12.387 -0.4300 -0.8903 -0.6901
 1950TIP3    H227266   4.347   1.448  12.276  1.0276 -1.7651 -0.4098
 1951TIP3   OH227267   4.235   6.119  13.314 -0.3890 -0.5528  0.5785
 1951TIP3    H127268   4.256   6.130  13.221  1.6675  1.4470  1.1982
 1951TIP3    H227269   4.218   6.025  13.323 -1.0563 -0.7507 -1.8599
 1952TIP3   OH227270   0.940   6.027   3.231 -0.1753  0.3174 -0.3188
 1952TIP3    H127271   0.914   5.988   3.314  0.2805 -1.3589 -0.9143
 1952TIP3    H227272   0.981   5.955   3.183 -0.5755  1.1995 -2.0578
 1953TIP3   OH227273   4.766   1.307   4.369  0.0020 -0.0378 -0.2137
 1953TIP3    H127274   4.813   1.387   4.394 -0.8374  0.7847 -1.1988
 1953TIP3    H227275   4.797   1.242   4.432  1.7085  0.7088 -0.2089
 1954TIP3   OH227276   4.812   4.795   0.607  0.4772  0.1582 -0.5556
 1954TIP3    H127277   4.865   4.715   0.607  1.2191  0.6321  0.6039
 1954TIP3    H227278   4.789   4.807   0.515 -0.8168 -2.1388 -0.6175
 1955TIP3   OH227279   5.878   3.308   6.234  0.1641 -0.3856  0.3630
 1955TIP3    H127280   5.937   3.321   6.309  1.6065 -1.0372 -0.6124
 1955TIP3    H227281   5.848   3.218   6.243  1.0242 -0.7478 -0.2902
 1956TIP3   OH227282   5.076   4.175  12.258 -0.1433 -0.2760  0.3549
 1956TIP3    H127283   5.092   4.101  12.317  0.6785  0.7539  1.4739
 1956TIP3    H227284   5.001   4.220  12.296 -0.7036 -0.5486 -0.3823
 1957TIP3   OH227285   0.016   3.174   5.134 -0.4039  0.1202  0.0944
 1957TIP3    H127286  -0.020   3.260   5.155  0.6885 -0.0794  3.3542
 1957TIP3    H227287   0.104   3.192   5.101 -1.2405  0.3153 -2.2008
 1958TIP3   OH227288   4.362   4.591   6.518 -0.3188  0.2610 -0.6556
 1958TIP3    H127289   4.314   4.509   6.532 -2.5473  1.1640 -2.4042
 1958TIP3    H227290   4.391   4.586   6.427 -0.4440  1.3648 -0.7660
 1959TIP3   OH227291   0.664   4.619  17.133 -0.3275  0.3042  0.1897
 1959TIP3    H127292   0.726   4.547  17.136 -1.0755 -0.3354  1.1461
 1959TIP3    H227293   0.674   4.663  17.218 -1.3000  0.0615  0.4452
 1960TIP3   OH227294   6.052   4.584  17.041 -0.1337  0.3178  0.1816
 1960TIP3    H127295   6.095   4.601  17.125  1.2219 -1.1592 -0.1444
 1960TIP3    H227296   5.969   4.631  17.046  0.2401  0.8716  2.0414
 1961TIP3   OH227297   0.059   3.094   4.317  0.7811 -0.1701  0.3944
 1961TIP3    H127298  -0.008   3.054   4.373  0.4937  0.9206  0.8524
 1961TIP3    H227299   0.115   3.021   4.290 -0.7813 -1.1798 -0.2819
 1962TIP3   OH227300   0.737   1.400   5.152 -0.3115  0.2674  0.7738
 1962TIP3    H127301   0.685   1.327   5.183  0.1003  1.1744  3.9921
 1962TIP3    H227302   0.815   1.399   5.208  2.6584 -0.2683 -2.9623
 1963TIP3   OH227303   1.029   5.047   2.147 -0.2589 -0.3613  0.0372
 1963TIP3    H127304   0.937   5.055   2.170 -0.4262  1.0227 -1.0461
 1963TIP3    H227305   1.067   5.133   2.165  0.2916 -0.1946 -1.7524
 1964TIP3   OH227306   3.948   4.029  14.832  0.5504  0.1054 -0.2722
 1964TIP3    H127307   3.990   3.944  14.818  1.7754 -0.1782  3.7572
 1964TIP3    H227308   4.020   4.092  14.829 -0.2127  0.9830 -2.2410
 1965TIP3   OH227309   0.533   2.383   0.647  0.0165  0.3271 -0.8785
 1965TIP3    H127310   0.462   2.351   0.702  0.7487  1.1164  0.5992
 1965TIP3    H227311   0.558   2.467   0.686  1.1526  0.4966 -1.8948
 1966TIP3   OH227312   5.596   4.263   1.184 -0.2143  0.7868  0.1012
 1966TIP3    H127313   5.603   4.341   1.238 -0.2413  1.1807 -0.4528
 1966TIP3    H227314   5.575   4.296   1.096  1.5243  0.2969 -0.5365
 1967TIP3   OH227315   6.401   5.814  14.137  0.5707  0.4871 -0.6313
 1967TIP3    H127316   6.366   5.766  14.211 -0.7951  1.2213 -0.7693
 1967TIP3    H227317   6.491   5.782  14.127  1.1527  1.1233  1.9753
 1968TIP3   OH227318   2.673   6.366   5.576 -0.5847  0.8039  0.5085
 1968TIP3    H127319   2.671   6.271   5.590 -2.2587  0.5823 -0.8173
 1968TIP3    H227320   2.676   6.376   5.481 -0.9051  2.0697  0.6108
 1969TIP3   OH227321   2.100   0.955   1.658  0.2685  0.2143 -0.0061
 1969TIP3    H127322   2.115   0.928   1.567 -0.5149  0.2517 -0.1590
 1969TIP3    H227323   2.141   0.886   1.710  1.6631  0.7312 -0.3678
 1970TIP3   OH227324   1.291   1.110   0.048  0.3532 -0.1269 -0.1663
 1970TIP3    H127325   1.247   1.117  -0.037  1.8652 -0.7736 -1.0479
 1970TIP3    H227326   1.296   1.200   0.080 -0.0665  0.1476 -0.8383
 1971TIP3   OH227327   1.901   3.692   2.387 -0.1279 -0.4151  0.0607
 1971TIP3    H127328   1.958   3.721   2.316  0.7149 -1.4713  0.2833
 1971TIP3    H227329   1.959   3.646   2.448 -1.0062 -0.4151  0.9304
 1972TIP3   OH227330   5.213   0.666  13.100  0.7458 -0.4170 -0.8357
 1972TIP3    H127331   5.221   0.681  13.194 -2.0474 -1.9251 -0.2613
 1972TIP3    H227332   5.285   0.607  13.079  2.2176  0.9860  0.0304
 1973TIP3   OH227333   5.510   4.495   3.920 -0.6057 -0.4413  0.0776
 1973TIP3    H127334   5.557   4.456   3.846  1.9436 -1.1364  1.9146
 1973TIP3    H227335   5.557   4.576   3.939 -3.0384  1.2973 -0.7956
 1974TIP3   OH227336   2.825   1.831  11.553  0.3829 -0.3260  0.3429
 1974TIP3    H127337   2.779   1.801  11.632  0.9792  0.1159  0.8587
 1974TIP3    H227338   2.832   1.925  11.563 -1.6112  0.0876 -1.3454
 1975TIP3   OH227339   6.683   0.847  13.203 -0.4579 -0.0573  0.4097
 1975TIP3    H127340   6.751   0.795  13.161  0.4671  0.3919  1.2948
 1975TIP3    H227341   6.705   0.843  13.297 -0.9362  1.0924  0.5869
 1976TIP3   OH227342   5.087   4.400   2.732 -0.1352  0.1039 -0.0617
 1976TIP3    H127343   5.158   4.392   2.668 -0.9583  0.1974 -0.9980
 1976TIP3    H227344   5.013   4.355   2.692 -1.4010  2.2647 -0.3035
 1977TIP3   OH227345   0.826   3.937  13.887 -0.1482  0.2178  0.2606
 1977TIP3    H127346   0.889   3.865  13.894  0.3117  0.7238  1.4861
 1977TIP3    H227347   0.749   3.906  13.933 -0.4407  0.0042 -0.3575
 1978TIP3   OH227348   5.732   6.163   4.470 -0.9888 -0.1079 -0.0729
 1978TIP3    H127349   5.772   6.078   4.455  0.0860  0.1537  1.0861
 1978TIP3    H227350   5.737   6.175   4.565  1.2343  2.3050 -0.3814
 1979TIP3   OH227351   5.399   3.291   4.184 -0.2505 -0.1477 -0.0800
 1979TIP3    H127352   5.340   3.241   4.240 -0.7544  1.0807  0.5136
 1979TIP3    H227353   5.436   3.225   4.125 -1.2520 -1.1471  0.3522
 1980TIP3   OH227354   0.401   4.552  13.673 -0.1296  0.3344 -0.3295
 1980TIP3    H127355   0.342   4.628  13.672 -0.9010 -0.2462 -0.5151
 1980TIP3    H227356   0.473   4.578  13.730 -1.0826  0.7073  0.7518
 1981TIP3   OH227357   6.104   4.372   2.845 -0.3134  0.0409 -0.0727
 1981TIP3    H127358   6.125   4.282   2.870 -1.1239  0.0205  0.6182
 1981TIP3    H227359   6.086   4.416   2.928  0.4589  0.9576 -0.3706
 1982TIP3   OH227360   6.252   6.068  14.836 -0.0896  0.5039  0.0945
 1982TIP3    H127361   6.165   6.029  14.829  0.2978 -0.0587 -2.3740
 1982TIP3    H227362   6.247   6.149  14.786  0.3368  1.4669  1.5210
 1983TIP3   OH227363   2.862   4.606   1.138 -0.8906 -0.3141 -0.6727
 1983TIP3    H127364   2.889   4.695   1.161 -0.5494 -0.7660  0.7739
 1983TIP3    H227365   2.768   4.613   1.122 -1.0027  0.1818  0.1404
 1984TIP3   OH227366   3.998   1.047   4.865 -0.5323  0.3760  0.0626
 1984TIP3    H127367   3.947   0.977   4.824 -0.7467  0.4873  0.1381
 1984TIP3    H227368   4.050   1.084   4.793  0.7719 -0.8862  0.3102
 1985TIP3   OH227369   5.181   5.527  13.900  0.2447 -0.5633 -0.4923
 1985TIP3    H127370   5.145   5.457  13.845  0.4416 -1.8870  0.9867
 1985TIP3    H227371   5.105   5.564  13.944  0.4094 -2.1486  1.2575
 1986TIP3   OH227372   2.937   2.042   3.404 -0.0276  1.2544  0.0562
 1986TIP3    H127373   2.965   1.975   3.465 -0.2199  1.1356  0.0155
 1986TIP3    H227374   2.988   2.026   3.325 -0.9183  0.4131 -0.3712
 1987TIP3   OH227375   3.519   5.198  14.302  0.5501 -0.2428 -0.0787
 1987TIP3    H127376   3.427   5.222  14.291  0.6613 -0.3138 -1.2876
 1987TIP3    H227377   3.531   5.193  14.396 -0.7084 -0.3000  0.0982
 1988TIP3   OH227378   2.666   1.241  11.894 -0.2202  0.3772  0.0017
 1988TIP3    H127379   2.610   1.169  11.867 -0.8550  0.4177  1.1802
 1988TIP3    H227380   2.618   1.285  11.965  0.7455  1.1527  0.2051
 1989TIP3   OH227381   5.470   3.280  14.117 -0.1810 -0.1352  0.1244
 1989TIP3    H127382   5.514   3.225  14.052 -1.1309 -1.6733  0.7219
 1989TIP3    H227383   5.504   3.368  14.101  2.9214 -1.1553  0.3935
 1990TIP3   OH227384   6.444   3.902  14.146  0.0652  0.3791  0.0214
 1990TIP3    H127385   6.460   3.810  14.128  0.4324  0.4571 -0.0705
 1990TIP3    H227386   6.438   3.943  14.060 -1.0955  0.2869  0.0412
 1991TIP3   OH227387   5.323   0.578   0.863  0.3301 -0.2860 -0.3709
 1991TIP3    H127388   5.281   0.530   0.791  0.6606 -1.0553 -0.0544
 1991TIP3    H227389   5.365   0.511   0.916  1.0810  0.3793 -0.0971
 1992TIP3   OH227390   6.692   4.891  14.321 -0.2941  0.1259  0.6735
 1992TIP3    H127391   6.693   4.868  14.414  1.4619  0.4775  0.7857
 1992TIP3    H227392   6.686   4.807  14.275 -2.0878  0.0051  1.0805
 1993TIP3   OH227393   4.652   2.703  14.783  0.3697  0.1418  0.2193
 1993TIP3    H127394   4.721   2.731  14.844 -0.5343 -0.7252  1.6963
 1993TIP3    H227395   4.700   2.671  14.706  1.5138  1.9812  0.1032
 1994TIP3   OH227396   2.323   3.098   3.666 -0.3369 -0.1651 -0.4600
 1994TIP3    H127397   2.257   3.168   3.671 -1.3551 -1.1196 -0.0611
 1994TIP3    H227398   2.293   3.033   3.730  1.3946 -0.3116  0.2462
 1995TIP3   OH227399   6.123   1.580   5.625 -0.1602  0.4109  0.0373
 1995TIP3    H127400   6.122   1.675   5.617 -2.0363  0.6129  1.9149
 1995TIP3    H227401   6.034   1.552   5.603  0.4228 -0.9477 -0.7227
 1996TIP3   OH227402   2.093   6.177   0.788 -0.0965  0.0546 -0.2480
 1996TIP3    H127403   2.019   6.197   0.845 -0.7027  0.1374 -1.0527
 1996TIP3    H227404   2.058   6.185   0.699  0.7479 -0.4035 -0.6317
 1997TIP3   OH227405   6.747   2.195  17.353 -0.3025 -0.7487  0.2429
 1997TIP3    H127406   6.681   2.240  17.300  1.3890  0.0659 -1.3040
 1997TIP3    H227407   6.759   2.111  17.310  0.6180 -0.3415 -0.3256
 1998TIP3   OH227408   6.347   4.358  16.520 -0.1290 -0.0018  0.2029
 1998TIP3    H127409   6.291   4.433  16.500  0.1179  0.0120 -0.4579
 1998TIP3    H227410   6.317   4.289  16.461 -0.4679 -0.4859  0.9287
 1999TIP3   OH227411   2.853   1.479  16.465 -0.2474 -0.7073  0.4150
 1999TIP3    H127412   2.945   1.500  16.449 -0.1585 -0.9996  0.5439
 1999TIP3    H227413   2.848   1.466  16.560 -0.0610 -2.4231  0.2071
 2000TIP3   OH227414   4.720   5.560   0.559  0.7196  0.4728 -0.6270
 2000TIP3    H127415   4.778   5.635   0.574  1.7512 -0.0895 -1.6134
 2000TIP3    H227416   4.778   5.492   0.524 -0.4538 -0.2948 -1.1387
 2001TIP3   OH227417   1.297   3.429   5.940  0.7267  0.0283  0.0810
 2001TIP3    H127418   1.378   3.464   5.978  1.5274 -0.3933 -1.1856
 2001TIP3    H227419   1.278   3.350   5.990  2.4355 -1.1932 -1.0976
 2002TIP3   OH227420   2.312   5.842   0.407 -0.6632  0.2663  0.2506
 2002TIP3    H127421   2.351   5.846   0.319  0.7768 -1.2032  0.7625
 2002TIP3    H227422   2.371   5.784   0.456 -1.1901  1.4053  2.3308
 2003TIP3   OH227423   0.417   3.879   5.512 -0.4375  0.1626  0.3284
 2003TIP3    H127424   0.465   3.806   5.550 -0.7276  0.4348  1.2535
 2003TIP3    H227425   0.346   3.838   5.462 -0.2985 -0.1943  0.4201
 2004TIP3   OH227426   3.769   5.184  14.698 -0.2117  0.3822 -0.0543
 2004TIP3    H127427   3.837   5.132  14.740  2.8431  1.5674 -3.0571
 2004TIP3    H227428   3.793   5.275  14.716 -1.7265  0.8406 -0.2039
 2005TIP3   OH227429   2.412   4.408   0.003  0.8348  0.0650  0.2095
 2005TIP3    H127430   2.395   4.495   0.040 -0.2419  0.1381 -0.4019
 2005TIP3    H227431   2.480   4.423  -0.062  0.9168  0.3876  0.3635
 2006TIP3   OH227432   0.700   3.700  14.576 -0.0955 -0.1924  0.0736
 2006TIP3    H127433   0.701   3.678  14.482 -1.6294 -0.0709 -0.0035
 2006TIP3    H227434   0.758   3.636  14.616  1.7002  0.5992 -1.1083
 2007TIP3   OH227435   0.166   5.670   0.752  0.4966  0.7330  0.4195
 2007TIP3    H127436   0.072   5.673   0.768  0.2206  0.0976 -0.9409
 2007TIP3    H227437   0.199   5.607   0.817 -0.3099 -0.4621 -0.2916
 2008TIP3   OH227438   3.696   4.650   3.137 -0.4421 -0.3805 -0.3454
 2008TIP3    H127439   3.605   4.678   3.147 -0.2102  0.3052 -0.0903
 2008TIP3    H227440   3.747   4.726   3.164  0.2077 -0.7840 -0.4287
 2009TIP3   OH227441   5.517   5.360   5.485 -0.2930  1.2015  0.3830
 2009TIP3    H127442   5.527   5.443   5.438 -1.5160 -0.1032 -2.4004
 2009TIP3    H227443   5.600   5.314   5.469 -0.9455  0.4982 -1.1693
 2010TIP3   OH227444   0.660   4.836   4.632 -0.0502 -0.3433  0.0966
 2010TIP3    H127445   0.574   4.804   4.606  0.4522 -1.7748  0.0937
 2010TIP3    H227446   0.675   4.798   4.718 -0.8528  2.7391  1.7310
 2011TIP3   OH227447   5.930   4.513   6.742  0.5811 -0.0673  0.3763
 2011TIP3    H127448   5.958   4.570   6.670 -0.3846 -0.6300 -0.4741
 2011TIP3    H227449   5.845   4.480   6.714  0.5450 -0.9170  1.4411
 2012TIP3   OH227450   0.202   2.338   3.177 -0.3435  0.4523 -0.1151
 2012TIP3    H127451   0.290   2.302   3.191 -0.7114 -0.1184  0.8079
 2012TIP3    H227452   0.182   2.385   3.258 -0.9622  0.4190 -0.2440
 2013TIP3   OH227453   4.871   1.438   0.359  0.0225 -0.0308 -0.1794
 2013TIP3    H127454   4.922   1.412   0.282 -0.1266  2.6328 -1.2967
 2013TIP3    H227455   4.935   1.447   0.429  0.5514 -0.1064 -0.6487
 2014TIP3   OH227456   6.540   6.440  14.858  0.3097 -0.5945  0.0015
 2014TIP3    H127457   6.567   6.519  14.811  2.4802 -0.6135  1.0550
 2014TIP3    H227458   6.489   6.473  14.933  1.2181 -0.1646  0.4426
 2015TIP3   OH227459   0.463   2.098   1.366 -1.1096 -0.3932  0.3015
 2015TIP3    H127460   0.467   2.031   1.435  1.2289 -1.1244 -0.4696
 2015TIP3    H227461   0.462   2.049   1.284 -0.1642  0.4890 -0.2619
 2016TIP3   OH227462   4.158   5.557   3.280  0.1643  0.5559 -0.0634
 2016TIP3    H127463   4.079   5.605   3.307 -0.4089 -0.1183 -0.4981
 2016TIP3    H227464   4.185   5.510   3.358 -0.0226  0.5867  0.0210
 2017TIP3   OH227465   0.292   6.203   0.280 -0.1565 -0.7862  0.1882
 2017TIP3    H127466   0.284   6.151   0.201  2.1898  0.3880 -0.9347
 2017TIP3    H227467   0.281   6.294   0.251 -0.7234 -0.4140  1.4772
 2018TIP3   OH227468   0.819   4.229  16.338  0.1527 -0.1142 -0.4978
 2018TIP3    H127469   0.800   4.155  16.281 -0.2451 -0.3317 -0.0910
 2018TIP3    H227470   0.894   4.273  16.297  1.5451 -1.7515  0.1746
 2019TIP3   OH227471   6.309   0.123  12.090 -0.1089  0.4691  0.4460
 2019TIP3    H127472   6.392   0.164  12.068 -0.2686  1.5330  1.7072
 2019TIP3    H227473   6.333   0.034  12.118  0.3867  0.1434 -0.9288
 2020TIP3   OH227474   5.560   2.679  14.352  0.3038 -0.0347  0.1596
 2020TIP3    H127475   5.626   2.636  14.406  0.4373 -1.3581 -1.0070
 2020TIP3    H227476   5.509   2.732  14.414  1.5907 -0.0493  1.2818
 2021TIP3   OH227477   5.891   5.285   3.837  0.5196  0.5437  0.5169
 2021TIP3    H127478   5.967   5.234   3.808  0.3209  0.8840 -0.6525
 2021TIP3    H227479   5.929   5.356   3.890  1.2505  1.9425 -1.7637
 2022TIP3   OH227480   2.060   0.949   5.086 -0.5552  0.1759  0.5923
 2022TIP3    H127481   1.981   0.953   5.139 -0.0108  0.0305  1.4243
 2022TIP3    H227482   2.130   0.979   5.144  0.2298 -1.0910  0.3420
 2023TIP3   OH227483   1.689   1.000  12.162 -0.4076  0.0756  0.1109
 2023TIP3    H127484   1.725   1.022  12.248 -1.8494  0.2129  0.7057
 2023TIP3    H227485   1.675   1.084  12.119 -2.2254  0.1991  0.8423
 2024TIP3   OH227486   0.751   2.286   6.663 -0.1119 -0.7657  0.0990
 2024TIP3    H127487   0.667   2.281   6.707 -0.0774 -0.5908  0.1848
 2024TIP3    H227488   0.805   2.221   6.706 -0.1052 -0.6554  0.2566
 2025TIP3   OH227489   6.418   4.373   2.997 -0.6386  0.6995 -0.5221
 2025TIP3    H127490   6.380   4.314   2.932 -0.4524  0.4682 -0.4219
 2025TIP3    H227491   6.500   4.402   2.957  0.5577 -1.0999  0.4622
 2026TIP3   OH227492   2.033   3.126   4.424  0.1946  0.2121 -0.1290
 2026TIP3    H127493   1.962   3.086   4.374  0.1120  0.7713 -0.4768
 2026TIP3    H227494   2.111   3.113   4.371  0.3311 -0.2905  0.1929
 2027TIP3   OH227495   4.298   3.958  14.850 -0.9889  0.0647  0.1199
 2027TIP3    H127496   4.304   4.014  14.928 -0.9161  0.8110 -0.4060
 2027TIP3    H227497   4.364   3.890  14.864  2.0696  2.5313 -1.1187
 2028TIP3   OH227498   3.103   5.510   5.687  0.4030  0.5779  0.2184
 2028TIP3    H127499   3.051   5.587   5.664  0.4808 -0.1222 -2.8229
 2028TIP3    H227500   3.040   5.449   5.726 -1.0875 -0.0207 -2.8228
 2029TIP3   OH227501   5.256   4.186  11.650 -0.2923 -0.2927  0.3416
 2029TIP3    H127502   5.164   4.213  11.656 -0.2296  0.2881 -0.9301
 2029TIP3    H227503   5.253   4.094  11.623 -0.4901 -0.6649  1.5774
 2030TIP3   OH227504   0.001   6.261   1.862  0.2843  0.5946  0.0763
 2030TIP3    H127505  -0.091   6.260   1.836  0.2086  0.5778  0.3457
 2030TIP3    H227506   0.004   6.317   1.940  0.6439  1.3406 -0.4558
 2031TIP3   OH227507   2.967   0.522   4.241 -0.8332 -0.5510 -0.0081
 2031TIP3    H127508   2.923   0.459   4.298 -1.9847 -0.8952 -1.2194
 2031TIP3    H227509   3.055   0.531   4.278 -1.9055  0.2031  2.5435
 2032TIP3   OH227510   0.951   6.688   0.603  0.0993  0.6705  0.2733
 2032TIP3    H127511   0.899   6.608   0.602  3.1679 -1.4945  0.0018
 2032TIP3    H227512   0.973   6.702   0.695 -2.1646  2.5467  0.6134
 2033TIP3   OH227513   0.918   1.003   3.955 -0.5629  0.4932  0.3775
 2033TIP3    H127514   0.939   0.992   4.048  0.4202  2.3958  0.4371
 2033TIP3    H227515   0.836   0.956   3.943 -0.3778 -0.3303  2.0542
 2034TIP3   OH227516   3.177   1.583  10.786 -0.4414 -0.2511 -0.2186
 2034TIP3    H127517   3.124   1.504  10.787  1.3913 -1.5312 -0.5511
 2034TIP3    H227518   3.262   1.556  10.822  0.5811  1.2875 -1.3492
 2035TIP3   OH227519   5.072   6.340  16.225 -0.4096 -0.1431  0.4642
 2035TIP3    H127520   5.124   6.406  16.179 -1.4627  0.8652  0.6701
 2035TIP3    H227521   5.101   6.346  16.316 -1.6247  1.2364  0.8068
 2036TIP3   OH227522   4.276   0.426  16.790  0.0551  0.2874  0.4181
 2036TIP3    H127523   4.343   0.486  16.820  0.8565 -0.6873  0.6310
 2036TIP3    H227524   4.285   0.425  16.694 -0.4687  1.0616  0.3493
 2037TIP3   OH227525   3.690   3.487   2.981  0.2575 -0.0131  0.4011
 2037TIP3    H127526   3.634   3.443   3.045 -1.2265  1.5245  0.2205
 2037TIP3    H227527   3.636   3.558   2.947  1.8298  0.6152 -0.8795
 2038TIP3   OH227528   3.906   5.806  12.926  0.4318 -0.1081 -0.1132
 2038TIP3    H127529   3.890   5.893  12.961  0.0898 -1.3313  3.1828
 2038TIP3    H227530   3.995   5.785  12.953  0.5862 -0.7321 -1.0462
 2039TIP3   OH227531   0.737   5.557  12.485  0.0698  0.1093  0.5509
 2039TIP3    H127532   0.823   5.589  12.511 -1.3986  3.0260  2.5056
 2039TIP3    H227533   0.731   5.575  12.392  1.4023  0.3121  0.4940
 2040TIP3   OH227534   3.429   5.480   3.811 -0.2157 -0.0730  0.2168
 2040TIP3    H127535   3.407   5.421   3.883 -3.3329  0.4471 -0.1444
 2040TIP3    H227536   3.409   5.567   3.846 -0.1085  0.3382 -0.7239
 2041TIP3   OH227537   5.177   6.687   4.663 -0.0152  0.0505 -0.3937
 2041TIP3    H127538   5.248   6.748   4.681 -0.1115  0.3594 -1.0314
 2041TIP3    H227539   5.131   6.725   4.588  1.3572 -2.0034 -2.4063
 2042TIP3   OH227540   2.948   6.170   1.610 -0.1065 -0.6304  0.8207
 2042TIP3    H127541   2.898   6.099   1.571 -0.7499 -0.5476  1.4838
 2042TIP3    H227542   2.929   6.246   1.555  1.5309 -1.1958 -0.6274
 2043TIP3   OH227543   2.631   0.346   0.124 -0.0969 -0.1594 -0.2892
 2043TIP3    H127544   2.585   0.335   0.040  1.5078 -0.0450 -1.2280
 2043TIP3    H227545   2.638   0.441   0.134  0.0547 -0.1775 -0.2240
 2044TIP3   OH227546   0.917   3.623  16.386 -0.1002 -0.0584  0.1227
 2044TIP3    H127547   0.973   3.565  16.334  0.4625  0.2384  0.3933
 2044TIP3    H227548   0.886   3.688  16.323  1.4927  0.9778  0.3514
 2045TIP3   OH227549   0.541   2.374  12.739  0.1134 -0.0118  0.2938
 2045TIP3    H127550   0.479   2.393  12.668 -0.1926  0.7899  0.7599
 2045TIP3    H227551   0.534   2.450  12.798 -0.6010 -1.2470  1.8590
 2046TIP3   OH227552   0.338   3.947  16.510  0.6061 -0.0787  0.0968
 2046TIP3    H127553   0.289   3.872  16.477 -1.3037  0.5343  1.3461
 2046TIP3    H227554   0.387   3.912  16.585  1.8980 -0.6345 -0.9825
 2047TIP3   OH227555   5.299   0.719   0.098  0.2914 -0.6152 -0.1152
 2047TIP3    H127556   5.220   0.668   0.117 -0.3669  0.9427  1.5727
 2047TIP3    H227557   5.328   0.751   0.183  0.3278  2.3024 -1.1259
 2048TIP3   OH227558   6.107   3.006   3.872 -0.1856 -0.8189 -0.3276
 2048TIP3    H127559   6.201   3.019   3.885 -0.1932 -0.1327 -0.8711
 2048TIP3    H227560   6.100   2.923   3.826  0.3903  0.5341 -3.0310
 2049TIP3   OH227561   6.212   5.036  14.362  0.4750 -0.4000  0.8128
 2049TIP3    H127562   6.123   5.045  14.396  0.5456  0.9132  0.6975
 2049TIP3    H227563   6.214   4.950  14.321 -1.4513  0.4656 -1.2515
 2050TIP3   OH227564   0.315   3.521  12.546  0.4371 -0.6427  0.2371
 2050TIP3    H127565   0.351   3.604  12.516 -0.8446  0.5229  1.7308
 2050TIP3    H227566   0.381   3.485  12.605  1.0528 -0.7855 -0.5204
 2051TIP3   OH227567   0.910   1.595   6.103 -0.0994 -0.1682 -0.5235
 2051TIP3    H127568   0.946   1.568   6.187 -2.4808 -0.1704  0.5880
 2051TIP3    H227569   0.953   1.679   6.084  1.1229 -0.6043  0.2319
 2052TIP3   OH227570   3.888   1.457  14.248  0.1689 -0.1430  0.3291
 2052TIP3    H127571   3.891   1.415  14.333  0.9993  1.4963  1.1653
 2052TIP3    H227572   3.980   1.461  14.219  0.0140  0.2667 -0.1316
 2053TIP3   OH227573   5.035   2.196   6.131 -0.1621  0.3925 -0.3122
 2053TIP3    H127574   5.078   2.256   6.191 -2.2099 -0.0944  1.8153
 2053TIP3    H227575   5.042   2.238   6.045  3.9997  0.5094 -0.0897
 2054TIP3   OH227576   6.205   2.241  14.660 -0.0379  0.3156 -0.1511
 2054TIP3    H127577   6.150   2.179  14.612  0.8280 -1.2385  0.7790
 2054TIP3    H227578   6.145   2.285  14.720 -0.7105  0.5920 -1.0046
 2055TIP3   OH227579   2.958   0.494   5.823 -0.0579 -0.1719 -0.6411
 2055TIP3    H127580   2.893   0.560   5.798 -0.6786 -0.6014 -0.1722
 2055TIP3    H227581   2.970   0.507   5.917 -0.5552 -1.0421 -0.4437
 2056TIP3   OH227582   5.086   6.311  16.516 -0.1354  0.3573 -0.1301
 2056TIP3    H127583   5.000   6.306  16.558  0.5412 -0.0453  1.2894
 2056TIP3    H227584   5.112   6.220  16.502  0.0348  0.4776 -0.6130
 2057TIP3   OH227585   0.610   1.011   0.249 -0.2230 -0.0597  0.3607
 2057TIP3    H127586   0.629   1.060   0.168 -0.5593  0.4251  0.5761
 2057TIP3    H227587   0.578   0.926   0.218 -1.6685  0.6062 -0.0402
 2058TIP3   OH227588   0.520   3.805  15.283  0.0348  0.5676 -0.4516
 2058TIP3    H127589   0.494   3.740  15.218  1.0841 -0.5600  0.2178
 2058TIP3    H227590   0.488   3.771  15.366  1.6039  0.2663  0.0664
 2059TIP3   OH227591   1.457   0.265   4.819 -0.1124  0.3994  0.1589
 2059TIP3    H127592   1.533   0.316   4.791 -0.7408  1.4046  0.2284
 2059TIP3    H227593   1.395   0.273   4.747 -0.7342  0.8589  0.7275
 2060TIP3   OH227594   3.409   3.093  14.065  0.0195 -0.3620  0.2785
 2060TIP3    H127595   3.318   3.087  14.036 -0.1939  0.5678  0.7115
 2060TIP3    H227596   3.445   3.166  14.014 -0.0640  0.6042  1.5701
 2061TIP3   OH227597   6.291   2.776   3.331 -0.2141 -0.1276 -0.0671
 2061TIP3    H127598   6.371   2.780   3.384 -0.6423 -1.5873  0.7679
 2061TIP3    H227599   6.289   2.686   3.298  0.1661  0.7950 -2.8624
 2062TIP3   OH227600   4.464   3.998  11.874  0.3368  0.0146  0.6813
 2062TIP3    H127601   4.402   4.068  11.852  0.7268 -0.2323 -1.4010
 2062TIP3    H227602   4.409   3.927  11.907 -0.0803  1.1938  2.7048
 2063TIP3   OH227603   1.542   3.531  11.661  0.1026 -0.2094 -0.1687
 2063TIP3    H127604   1.511   3.452  11.706 -0.9326 -0.8310 -1.9010
 2063TIP3    H227605   1.596   3.575  11.726 -0.4023 -1.6489  1.2986
 2064TIP3   OH227606   6.149   2.711   0.841 -0.4336  0.0700  0.4590
 2064TIP3    H127607   6.172   2.652   0.913 -1.0247 -0.2680  0.3792
 2064TIP3    H227608   6.223   2.705   0.780 -1.6358 -2.7765 -0.9193
 2065TIP3   OH227609   4.093   0.421  15.070  0.4481 -0.0919  0.0275
 2065TIP3    H127610   4.088   0.504  15.117 -0.1595  0.6063 -1.2168
 2065TIP3    H227611   4.162   0.434  15.005 -0.7932  0.0480 -1.2905
 2066TIP3   OH227612   3.070   6.607   1.353  0.0949 -0.1062 -0.0644
 2066TIP3    H127613   3.158   6.595   1.319 -0.4444 -0.0397 -1.5349
 2066TIP3    H227614   3.045   6.521   1.386  0.2222 -0.4559 -0.8644
 2067TIP3   OH227615   2.963   2.370   6.163 -0.1452 -0.4233  0.3702
 2067TIP3    H127616   2.961   2.466   6.170  0.8808 -0.4471  1.3447
 2067TIP3    H227617   2.970   2.340   6.254 -0.0306 -1.4150  0.0449
 2068TIP3   OH227618   1.602   3.893  16.875 -0.0336  0.5379 -0.8763
 2068TIP3    H127619   1.655   3.972  16.893  0.9321 -0.3804  0.5055
 2068TIP3    H227620   1.660   3.838  16.822  0.6722 -0.6761  1.0336
 2069TIP3   OH227621   0.131   3.363   5.692  0.1822 -0.4085 -0.4189
 2069TIP3    H127622   0.171   3.433   5.641  1.9213 -1.2502 -0.2664
 2069TIP3    H227623   0.092   3.407   5.768  0.1642  0.5093 -0.9431
 2070TIP3   OH227624   4.222   2.726   1.893  0.3907 -0.6047 -0.6492
 2070TIP3    H127625   4.311   2.721   1.927  0.0945 -0.0166  0.2717
 2070TIP3    H227626   4.186   2.805   1.934 -0.8027 -1.2601 -0.3868
 2071TIP3   OH227627   5.895   6.375   3.650 -0.0589  0.3375 -0.3983
 2071TIP3    H127628   5.871   6.346   3.562  0.4879 -0.9597 -0.1417
 2071TIP3    H227629   5.812   6.377   3.698 -0.1900 -0.2555 -0.5895
 2072TIP3   OH227630   5.299   1.329   2.002  0.4898 -0.5225 -0.0200
 2072TIP3    H127631   5.299   1.369   2.089  1.0949 -0.1391 -0.1936
 2072TIP3    H227632   5.292   1.235   2.020  0.1049 -0.4107  0.4247
 2073TIP3   OH227633   1.297   5.925   2.416 -0.0170  0.3453 -0.3324
 2073TIP3    H127634   1.227   5.978   2.453 -2.0720 -1.8479 -0.8525
 2073TIP3    H227635   1.293   5.941   2.321 -1.3745 -1.4345 -0.6239
 2074TIP3   OH227636   1.503   4.713  13.467  0.6384  0.4840 -0.0211
 2074TIP3    H127637   1.554   4.726  13.386  0.1201  2.2686 -0.1131
 2074TIP3    H227638   1.414   4.740  13.444 -0.0029 -1.0069  0.5972
 2075TIP3   OH227639   2.738   0.412   2.512 -0.1601 -0.5106  0.2094
 2075TIP3    H127640   2.728   0.479   2.444 -1.6504  0.3871  1.2423
 2075TIP3    H227641   2.778   0.457   2.585  0.0067 -1.0846  0.4813
 2076TIP3   OH227642   5.459   4.853  12.309  0.0227  0.0270  0.1108
 2076TIP3    H127643   5.415   4.937  12.313  2.7897  1.5401  2.0263
 2076TIP3    H227644   5.529   4.866  12.245  2.1356  0.1820  2.3159
 2077TIP3   OH227645   0.741   6.049   1.387  0.0540 -0.9305  0.2708
 2077TIP3    H127646   0.678   6.105   1.433  1.9199  1.5869 -0.0520
 2077TIP3    H227647   0.731   6.074   1.295  2.1466  0.2782  0.3211
 2078TIP3   OH227648   6.494   0.213   5.587 -0.4940  0.7281  0.0760
 2078TIP3    H127649   6.437   0.142   5.616 -0.4670  0.4302 -0.6028
 2078TIP3    H227650   6.569   0.208   5.647  0.3361 -0.9303 -1.0131
 2079TIP3   OH227651   0.453   2.244   3.236  0.3858 -0.8109  0.3689
 2079TIP3    H127652   0.461   2.152   3.262  0.4359 -1.2691 -1.1725
 2079TIP3    H227653   0.487   2.247   3.146 -1.9539  0.2111 -0.5602
 2080TIP3   OH227654   5.015   4.679  14.344 -0.5776 -0.0468  0.0387
 2080TIP3    H127655   4.957   4.671  14.420 -2.1037  1.7477 -0.8442
 2080TIP3    H227656   5.052   4.591  14.333  0.7273 -0.0891  3.5748
 2081TIP3   OH227657   5.044   4.274   6.017 -0.2745  0.9663  0.4869
 2081TIP3    H127658   5.078   4.185   6.018 -2.3059  0.1343  0.9752
 2081TIP3    H227659   5.105   4.324   6.071  0.3634 -0.3527  1.0259
 2082TIP3   OH227660   3.959   2.279   1.772 -0.0649 -0.5550  0.0131
 2082TIP3    H127661   3.898   2.237   1.832 -2.8495  1.0798 -1.4047
 2082TIP3    H227662   3.953   2.373   1.793  1.2200 -0.2559 -0.8202
 2083TIP3   OH227663   4.537   6.254  15.597 -0.5106 -0.1012  0.4774
 2083TIP3    H127664   4.478   6.281  15.667 -0.5037  1.2433 -0.0106
 2083TIP3    H227665   4.551   6.333  15.545 -1.8610 -1.4140 -2.0644
 2084TIP3   OH227666   0.803   0.929  11.777  0.3456  0.4529  0.4482
 2084TIP3    H127667   0.761   0.998  11.725  4.2991  0.4269 -3.3829
 2084TIP3    H227668   0.765   0.848  11.744  0.5661  0.5787 -0.1321
 2085TIP3   OH227669   3.494   2.745  15.858 -0.2934 -0.3050 -0.0624
 2085TIP3    H127670   3.514   2.760  15.766  0.8336 -0.3947  0.1468
 2085TIP3    H227671   3.475   2.652  15.863  1.7238 -0.7620  0.1037
 2086TIP3   OH227672   3.620   1.821   1.722  0.0619 -0.1326  0.4152
 2086TIP3    H127673   3.602   1.745   1.778 -0.3580  0.7266  1.4913
 2086TIP3    H227674   3.534   1.860   1.707  0.4335  1.1263  1.3758
 2087TIP3   OH227675   0.046   5.225  15.075 -0.5661 -0.1858 -0.0415
 2087TIP3    H127676   0.031   5.314  15.106 -0.8547  0.2326 -1.3087
 2087TIP3    H227677   0.137   5.225  15.045 -0.5801 -0.2970 -0.0853
 2088TIP3   OH227678   6.430   6.699  11.053 -0.0058  0.5680 -0.1520
 2088TIP3    H127679   6.508   6.643  11.053 -1.0334 -1.0644  2.2561
 2088TIP3    H227680   6.464   6.788  11.039  2.6818  0.2806  3.1545
 2089TIP3   OH227681   2.059   5.345   5.367 -0.0968  0.2229 -0.3755
 2089TIP3    H127682   2.030   5.306   5.285  0.4707  2.6456 -1.8162
 2089TIP3    H227683   2.010   5.426   5.375  1.5098  1.1801  0.4603
 2090TIP3   OH227684   4.650   0.609  13.432 -0.6149 -0.1259  0.4244
 2090TIP3    H127685   4.716   0.554  13.473 -0.2688  0.4551  0.6713
 2090TIP3    H227686   4.700   0.667  13.374 -1.0276 -0.4700 -0.2900
 2091TIP3   OH227687   4.240   0.433  10.365 -0.3674 -0.2928  0.2951
 2091TIP3    H127688   4.215   0.524  10.348 -1.6454 -0.3895  1.4593
 2091TIP3    H227689   4.161   0.393  10.401  0.6502 -1.4381  1.3410
 2092TIP3   OH227690   3.570   1.919  12.679 -0.0423 -0.7910  0.0697
 2092TIP3    H127691   3.662   1.928  12.655 -0.2627  0.7848 -0.2693
 2092TIP3    H227692   3.571   1.867  12.759  1.0323 -1.9913 -0.6906
 2093TIP3   OH227693   1.570   6.236  17.091  0.4847 -0.5469 -0.1489
 2093TIP3    H127694   1.562   6.313  17.035 -0.1104 -1.7310 -1.7657
 2093TIP3    H227695   1.551   6.162  17.033  2.5934 -2.0589  0.9499
 2094TIP3   OH227696   2.955   5.991  11.447  0.0920 -0.0236  0.3621
 2094TIP3    H127697   2.962   6.020  11.538  1.2547 -0.4080  0.4119
 2094TIP3    H227698   2.904   6.060  11.403  0.0395  0.4585  1.1700
 2095TIP3   OH227699   4.611   2.571   4.608  0.2995  0.4110  0.0565
 2095TIP3    H127700   4.580   2.482   4.589 -0.4192  0.5360  0.6264
 2095TIP3    H227701   4.672   2.560   4.681  1.5073  0.1879 -0.9511
 2096TIP3   OH227702   4.847   0.749   1.102  0.6377  0.3598  0.2071
 2096TIP3    H127703   4.829   0.655   1.092 -0.9715  0.6878 -0.3208
 2096TIP3    H227704   4.918   0.766   1.041 -0.0233 -0.2649 -0.7843
 2097TIP3   OH227705   0.559   5.407   1.783  0.0417 -0.6259  0.2441
 2097TIP3    H127706   0.649   5.428   1.810  0.6960 -1.5656 -1.0769
 2097TIP3    H227707   0.507   5.482   1.811  1.4227  0.4372  0.0698
 2098TIP3   OH227708   5.018   6.203   5.262 -0.1967  0.4282  0.1316
 2098TIP3    H127709   4.971   6.131   5.304  0.5888  0.0869  0.4549
 2098TIP3    H227710   4.969   6.221   5.182 -1.3591  0.6719  0.8824
 2099TIP3   OH227711   3.892   0.669  17.167  0.3925  0.0912  0.2786
 2099TIP3    H127712   3.965   0.616  17.135  0.5378 -0.5176  1.5610
 2099TIP3    H227713   3.918   0.759  17.149  0.9559 -0.1777 -0.2857
 2100TIP3   OH227714   6.245   1.437  15.466 -0.3592  0.2117  0.5646
 2100TIP3    H127715   6.276   1.353  15.433  0.3777  0.2251  1.2015
 2100TIP3    H227716   6.197   1.475  15.393  0.9590  0.0912 -0.4082
 2101TIP3   OH227717   4.317   3.153   5.432  0.5271 -0.1256 -0.4807
 2101TIP3    H127718   4.345   3.065   5.406 -1.2965 -0.8350 -0.1738
 2101TIP3    H227719   4.269   3.186   5.356  0.9417  0.5085 -0.4789
 2102TIP3   OH227720   5.116   6.378  11.941  0.3091 -0.1970  0.2271
 2102TIP3    H127721   5.044   6.425  11.985  0.2669 -0.1869  0.1477
 2102TIP3    H227722   5.119   6.293  11.985  0.9683  0.2019  0.9794
 2103TIP3   OH227723   5.159   3.640   1.750  0.4086  0.2279 -0.5714
 2103TIP3    H127724   5.254   3.647   1.753  0.3951  0.4081 -0.5727
 2103TIP3    H227725   5.129   3.688   1.828  0.2731  0.9713 -1.0676
 2104TIP3   OH227726   0.490   3.830  17.321  0.1358  0.6444  0.1621
 2104TIP3    H127727   0.454   3.749  17.284  0.3482  0.8499 -0.5177
 2104TIP3    H227728   0.437   3.900  17.282  1.1937  0.9435 -0.7791
 2105TIP3   OH227729   1.284   5.003  12.585  0.3797 -0.5392  0.4664
 2105TIP3    H127730   1.358   5.063  12.577 -0.5067  0.7367  1.4348
 2105TIP3    H227731   1.261   4.982  12.494 -0.7069  2.4771 -0.0941
 2106TIP3   OH227732   1.665   1.170  15.090  0.0063  0.3968  0.1283
 2106TIP3    H127733   1.570   1.162  15.099 -0.0389  0.0129 -0.5586
 2106TIP3    H227734   1.691   1.236  15.154 -0.5354 -0.5215  1.3401
 2107TIP3   OH227735   1.807   6.407  13.250  0.1331  0.7008  0.7110
 2107TIP3    H127736   1.886   6.364  13.281 -0.7821 -0.8848  0.9431
 2107TIP3    H227737   1.798   6.379  13.159 -0.9793 -0.4168  1.1425
 2108TIP3   OH227738   6.221   1.523   4.382  0.3261 -0.1523  0.4477
 2108TIP3    H127739   6.196   1.499   4.292 -1.1216 -1.3016  1.1167
 2108TIP3    H227740   6.301   1.474   4.398  0.2176 -0.4803  0.0165
 2109TIP3   OH227741   5.886   4.064   3.645 -0.1287 -0.2508 -1.0875
 2109TIP3    H127742   5.968   4.019   3.666 -0.6932  0.0523  2.1394
 2109TIP3    H227743   5.817   4.004   3.670 -0.9406  0.1843 -2.1711
 2110TIP3   OH227744   0.284   4.811   2.234 -0.1685 -0.0710 -0.8244
 2110TIP3    H127745   0.229   4.740   2.267 -0.1042  0.8672  1.5096
 2110TIP3    H227746   0.231   4.890   2.248  0.8108  0.5999 -0.8482
 2111TIP3   OH227747   5.171   4.747  11.391  0.2661 -0.0307  0.2960
 2111TIP3    H127748   5.133   4.662  11.413 -1.7073  1.1004  1.5228
 2111TIP3    H227749   5.134   4.807  11.455  1.0444  1.9023 -0.9877
 2112TIP3   OH227750   6.135   1.412  14.408  0.0604  0.4240  0.2116
 2112TIP3    H127751   6.224   1.446  14.411  0.3712 -0.3972  0.3453
 2112TIP3    H227752   6.130   1.348  14.479 -0.6335  0.4586  0.2066
 2113TIP3   OH227753   3.291   5.693  12.706  0.8087  0.1257 -0.0001
 2113TIP3    H127754   3.231   5.733  12.770  1.1351  0.7075 -0.0526
 2113TIP3    H227755   3.261   5.602  12.699  0.5618  0.1425  0.7321
 2114TIP3   OH227756   6.324   2.114   3.610  0.1791 -0.0891  0.1023
 2114TIP3    H127757   6.417   2.111   3.589  0.0521  0.1063 -0.5046
 2114TIP3    H227758   6.285   2.041   3.561  0.0453 -0.2987  0.5183
 2115TIP3   OH227759   1.662   1.770   4.456 -0.3342  0.3256 -0.0760
 2115TIP3    H127760   1.682   1.677   4.464  1.2935  0.7591  1.8023
 2115TIP3    H227761   1.697   1.794   4.370 -1.9288 -1.0046 -1.1505
 2116TIP3   OH227762   1.794   2.787   4.031  0.3228 -0.2911 -0.3608
 2116TIP3    H127763   1.699   2.790   4.044  0.1415  0.1662 -1.6895
 2116TIP3    H227764   1.826   2.867   4.073 -0.2694  1.2456 -2.6973
 2117TIP3   OH227765   1.931   3.440  14.365 -0.1615 -0.1465 -0.0515
 2117TIP3    H127766   1.912   3.495  14.289 -1.1021  0.0117  0.2825
 2117TIP3    H227767   1.990   3.373  14.331  1.1245  1.1210 -0.4364
 2118TIP3   OH227768   5.751   0.917  15.944  0.0527 -0.4012  0.4111
 2118TIP3    H127769   5.784   0.938  16.031  1.2607  1.6724 -0.4642
 2118TIP3    H227770   5.818   0.949  15.884 -2.2870  1.6144 -1.3798
 2119TIP3   OH227771   1.541   2.007  12.377 -0.1886 -0.1643  0.4639
 2119TIP3    H127772   1.455   2.003  12.419 -0.3249  1.4736  0.3984
 2119TIP3    H227773   1.543   1.932  12.319 -1.8873  0.1777 -0.0858
 2120TIP3   OH227774   4.436   3.305   3.794  0.4493  0.3182 -0.3397
 2120TIP3    H127775   4.472   3.286   3.881  0.5930 -1.0412 -0.6658
 2120TIP3    H227776   4.494   3.373   3.758  0.2817  1.0183  0.6837
 2121TIP3   OH227777   5.756   5.886   1.476 -0.1328 -0.4877  0.4908
 2121TIP3    H127778   5.688   5.948   1.503 -0.7539 -0.5938 -0.7420
 2121TIP3    H227779   5.745   5.879   1.381  3.9327  2.3503 -0.4421
 2122TIP3   OH227780   4.586   0.304  14.713 -0.6411 -0.0165  0.2025
 2122TIP3    H127781   4.665   0.258  14.739 -0.3520  0.8669  0.9340
 2122TIP3    H227782   4.601   0.395  14.739  0.1089  1.2692 -3.9493
 2123TIP3   OH227783   2.567   1.706   3.761  0.0139  0.5974 -0.1240
 2123TIP3    H127784   2.587   1.792   3.798 -0.1150  0.3159  0.6147
 2123TIP3    H227785   2.514   1.663   3.828  0.6002 -0.2965 -0.2155
 2124TIP3   OH227786   3.530   4.969   4.586  0.1387  0.2399 -0.6021
 2124TIP3    H127787   3.594   4.901   4.606  0.8020  0.3080 -2.3533
 2124TIP3    H227788   3.474   4.930   4.519 -0.8028  0.6859 -0.0971
 2125TIP3   OH227789   0.756   1.240  14.132 -0.0940 -0.5217 -0.3493
 2125TIP3    H127790   0.816   1.294  14.183 -1.4523  2.5057 -1.6913
 2125TIP3    H227791   0.814   1.190  14.074  1.2416 -0.0525  0.5213
 2126TIP3   OH227792   4.297   3.800   4.448  0.2261 -0.5849  0.4840
 2126TIP3    H127793   4.329   3.740   4.381  0.2337  0.9175 -0.9175
 2126TIP3    H227794   4.208   3.821   4.420  0.0749 -0.2742  1.1873
 2127TIP3   OH227795   4.649   1.367   2.470  0.0389  0.3813  0.1309
 2127TIP3    H127796   4.728   1.327   2.433 -0.4417 -0.2596 -0.2170
 2127TIP3    H227797   4.651   1.343   2.563  0.5712  0.9039  0.2667
 2128TIP3   OH227798   3.033   2.303  12.837 -0.2925 -0.2749 -0.2871
 2128TIP3    H127799   2.957   2.294  12.779 -0.6254 -0.5334  0.1875
 2128TIP3    H227800   3.103   2.257  12.791 -0.3170  0.2807 -0.9034
 2129TIP3   OH227801   6.587   4.776   0.179  0.3717 -0.5944  0.4206
 2129TIP3    H127802   6.672   4.778   0.135  1.2005  1.2426  1.9407
 2129TIP3    H227803   6.578   4.686   0.211  1.8988 -0.7419  0.5116
 2130TIP3   OH227804   3.892   0.571   3.516  0.3272  0.1412 -0.4713
 2130TIP3    H127805   3.908   0.521   3.436 -0.4609 -0.2818 -0.3736
 2130TIP3    H227806   3.918   0.661   3.494  0.5167 -0.0541 -1.0624
 2131TIP3   OH227807   6.083   5.482  13.129  0.0356 -0.3482  0.6139
 2131TIP3    H127808   6.168   5.501  13.090 -0.6346  1.9932  0.1720
 2131TIP3    H227809   6.103   5.458  13.220  1.1703  0.4262  0.5845
 2132TIP3   OH227810   0.670   6.531  17.122  0.1584  0.1486  0.1213
 2132TIP3    H127811   0.603   6.478  17.078  1.8505 -0.8225 -1.4306
 2132TIP3    H227812   0.689   6.602  17.061  1.4677 -0.3510 -0.0928
 2133TIP3   OH227813   1.875   5.681  15.276 -1.1858  0.0609 -0.0793
 2133TIP3    H127814   1.823   5.667  15.197  2.7475 -1.7318 -2.6797
 2133TIP3    H227815   1.953   5.728  15.246  0.7890 -1.2089  2.5965
 2134TIP3   OH227816   1.183   0.918   0.863 -0.5341  0.0529 -0.1124
 2134TIP3    H127817   1.095   0.945   0.889 -0.3767 -1.3784  2.2507
 2134TIP3    H227818   1.189   0.941   0.771 -2.1448  3.2500  0.4350
 2135TIP3   OH227819   1.238   1.758   2.234 -0.1884 -0.1284  0.6732
 2135TIP3    H127820   1.202   1.806   2.160  0.1864 -0.5402  0.2116
 2135TIP3    H227821   1.211   1.808   2.311  2.6543  2.5611  0.1379
 2136TIP3   OH227822   1.746   5.990  14.544  0.2610  0.1601 -0.0020
 2136TIP3    H127823   1.807   6.046  14.496  2.2751 -1.0156  1.0253
 2136TIP3    H227824   1.697   5.943  14.477  2.1298 -0.5363 -0.9441
 2137TIP3   OH227825   0.691   0.123   5.998 -0.8547 -0.0277 -0.1798
 2137TIP3    H127826   0.730   0.210   6.006  0.3310 -0.3634 -1.8016
 2137TIP3    H227827   0.692   0.105   5.904 -1.5941 -1.5733  0.0780
 2138TIP3   OH227828   1.433   2.339   0.762 -0.2559  0.1841 -0.0904
 2138TIP3    H127829   1.419   2.371   0.851  2.6352  0.2904  0.4218
 2138TIP3    H227830   1.416   2.415   0.706 -2.0618  0.1215  0.3221
 2139TIP3   OH227831   3.091   6.248  12.819 -0.4689  0.0526  0.4871
 2139TIP3    H127832   3.000   6.270  12.837 -0.3083  0.7117  0.5138
 2139TIP3    H227833   3.086   6.171  12.761 -1.0495  0.4810 -0.0468
 2140TIP3   OH227834   6.662   1.940   2.960  0.0210  0.0279  0.0869
 2140TIP3    H127835   6.569   1.957   2.948  0.4355  1.2870 -1.6966
 2140TIP3    H227836   6.668   1.845   2.973 -1.4230 -0.2021 -0.7296
 2141TIP3   OH227837   6.638   5.131  13.856 -0.1057 -0.0100  0.0127
 2141TIP3    H127838   6.606   5.197  13.918  0.1576 -0.0904  0.2367
 2141TIP3    H227839   6.733   5.137  13.861 -0.0582 -0.8988  0.5963
 2142TIP3   OH227840   3.734   3.743  13.051 -0.5005 -0.5256  0.2537
 2142TIP3    H127841   3.721   3.649  13.037  0.0344 -0.3762 -1.6188
 2142TIP3    H227842   3.696   3.784  12.973  2.4907  0.5199 -0.7952
 2143TIP3   OH227843   5.688   6.448  12.698 -0.1805  0.5602 -0.5272
 2143TIP3    H127844   5.602   6.433  12.658 -0.0868  0.5227 -0.7193
 2143TIP3    H227845   5.669   6.493  12.780 -0.4443 -0.2487 -0.1337
 2144TIP3   OH227846   2.763   0.920  13.743 -0.1374 -0.2135 -0.3405
 2144TIP3    H127847   2.812   0.953  13.818 -3.4864  1.3408  1.3938
 2144TIP3    H227848   2.781   0.983  13.673  0.0572  0.5268  0.3656
 2145TIP3   OH227849   2.238   2.798  16.834  0.3682 -0.0669  0.0438
 2145TIP3    H127850   2.255   2.859  16.763  0.1929  0.9644  0.8631
 2145TIP3    H227851   2.303   2.820  16.901  0.7287 -1.2210  0.1012
 2146TIP3   OH227852   4.724   5.685   3.484  0.0558  0.3007  1.0832
 2146TIP3    H127853   4.675   5.761   3.517  1.1783  0.3368  2.7990
 2146TIP3    H227854   4.700   5.680   3.391 -1.7546  1.3992  1.4340
 2147TIP3   OH227855   4.129   5.169  13.234 -0.0458  0.3530 -0.4127
 2147TIP3    H127856   4.110   5.133  13.147 -0.2027  1.2970 -0.7826
 2147TIP3    H227857   4.044   5.196  13.268  0.2653  2.4549 -1.1135
 2148TIP3   OH227858   3.490   1.696   2.741 -0.2017  0.3860  0.4260
 2148TIP3    H127859   3.466   1.661   2.656  1.0545 -0.4176  0.3715
 2148TIP3    H227860   3.551   1.767   2.722 -0.1863  0.4313  0.6369
 2149TIP3   OH227861   2.242   1.256   2.280 -0.2705  0.2288 -0.4884
 2149TIP3    H127862   2.192   1.185   2.320  0.1871  0.1094 -0.1104
 2149TIP3    H227863   2.324   1.215   2.253  1.1779  1.1030  2.1901
 2150TIP3   OH227864   2.696   5.721  14.293 -0.4078  0.1788 -0.3251
 2150TIP3    H127865   2.637   5.780  14.339 -0.3989  0.9272 -1.2448
 2150TIP3    H227866   2.683   5.636  14.336  1.0076  1.2035  2.3256
 2151TIP3   OH227867   0.277   1.054  12.668  0.1115 -0.7747 -0.8567
 2151TIP3    H127868   0.290   1.017  12.580 -1.5001  0.9537 -1.9090
 2151TIP3    H227869   0.262   1.147  12.652 -1.4184 -0.6190  1.1429
 2152TIP3   OH227870   0.260   0.170   3.923  0.0727  0.1589 -0.0326
 2152TIP3    H127871   0.220   0.194   3.840  1.8767  1.3937 -0.6236
 2152TIP3    H227872   0.189   0.172   3.986 -1.0707  0.6461 -1.2927
 2153TIP3   OH227873   2.002   2.577   0.753 -0.1609  0.0084  0.0114
 2153TIP3    H127874   2.020   2.640   0.684  0.4698 -0.1841 -0.0099
 2153TIP3    H227875   1.930   2.615   0.803 -0.3166  0.3627 -0.4803
 2154TIP3   OH227876   3.080   2.095   2.864 -0.1362  0.6693  0.4413
 2154TIP3    H127877   3.002   2.145   2.887  0.3170  0.0845  3.7584
 2154TIP3    H227878   3.047   2.014   2.826 -1.1757  0.4390  1.7820
 2155TIP3   OH227879   0.867   4.657   1.013  0.0660  0.0033  0.3734
 2155TIP3    H127880   0.946   4.657   0.958 -0.1753 -3.0312 -0.1507
 2155TIP3    H227881   0.887   4.594   1.082 -1.7186 -0.5050  0.4615
 2156TIP3   OH227882   3.784   5.754  12.226  0.4640  0.3076 -0.2052
 2156TIP3    H127883   3.691   5.776  12.221  0.4607  0.1910 -0.6376
 2156TIP3    H227884   3.828   5.839  12.235  0.3598  0.4074 -0.6192
 2157TIP3   OH227885   0.542   1.737   3.547 -0.5841 -0.1097  0.2458
 2157TIP3    H127886   0.626   1.751   3.504 -0.5729 -1.8249 -0.3534
 2157TIP3    H227887   0.501   1.665   3.498 -0.8113 -1.7681  2.7033
 2158TIP3   OH227888   2.601   0.672   6.940  0.8647 -0.0304  0.1099
 2158TIP3    H127889   2.611   0.591   6.989  0.9132  1.2776  2.3789
 2158TIP3    H227890   2.516   0.664   6.897  0.6992 -1.1251  0.6151
 2159TIP3   OH227891   5.251   2.146  13.038  0.2712  0.3218 -0.8060
 2159TIP3    H127892   5.186   2.144  12.968 -0.5695 -2.8911 -0.0929
 2159TIP3    H227893   5.334   2.128  12.994  0.4582  2.3629 -1.4224
 2160TIP3   OH227894   1.873   5.920   1.942 -0.7616  0.0030 -0.2959
 2160TIP3    H127895   1.821   5.906   1.863 -2.2122 -1.4125  0.8228
 2160TIP3    H227896   1.820   5.881   2.012  1.9360 -1.8064  0.8985
 2161TIP3   OH227897   5.991   0.829   1.015  0.5205 -0.2945 -0.0649
 2161TIP3    H127898   6.049   0.795   0.948  1.1314  0.2294  0.1886
 2161TIP3    H227899   6.047   0.847   1.090  0.4553  2.2420 -0.5300
 2162TIP3   OH227900   4.517   6.643   2.080 -0.0295  0.0963 -0.0091
 2162TIP3    H127901   4.503   6.570   2.140  1.4738 -1.0066 -0.9196
 2162TIP3    H227902   4.432   6.655   2.037 -0.6759 -0.1701  1.1430
 2163TIP3   OH227903   3.985   3.139   0.340  0.0856 -0.5493  0.2399
 2163TIP3    H127904   4.006   3.228   0.313 -0.4134 -0.5130 -0.0398
 2163TIP3    H227905   3.992   3.087   0.260 -0.6042 -0.5834  0.1974
 2164TIP3   OH227906   0.311   2.568   5.443 -0.1461  0.2017 -0.3627
 2164TIP3    H127907   0.336   2.631   5.511 -0.1494 -0.6628  0.4604
 2164TIP3    H227908   0.365   2.592   5.368  1.0372  0.2024  0.4585
 2165TIP3   OH227909   2.627   4.919  11.236 -0.2134  0.3682  0.4429
 2165TIP3    H127910   2.646   4.908  11.143 -2.0691  1.1717 -0.0756
 2165TIP3    H227911   2.708   4.894  11.280  0.7888  0.2105 -1.3935
 2166TIP3   OH227912   6.664   5.931  15.087  0.1747  0.0287  0.2215
 2166TIP3    H127913   6.585   5.912  15.137 -0.7171  0.7931 -0.8370
 2166TIP3    H227914   6.671   6.027  15.089  0.1506  0.0674 -1.0378
 2167TIP3   OH227915   4.727   0.810  12.036  0.0139  0.6631 -0.4798
 2167TIP3    H127916   4.636   0.808  12.066 -0.3535 -0.7686 -1.5457
 2167TIP3    H227917   4.722   0.843  11.946  0.4087 -0.3075 -0.8797
 2168TIP3   OH227918   6.076   4.481   0.959  0.3938  0.1651  0.2224
 2168TIP3    H127919   6.015   4.408   0.958  0.1939  0.3210  0.6732
 2168TIP3    H227920   6.039   4.543   1.022 -0.4005  1.4712 -1.4360
 2169TIP3   OH227921   0.454   5.554   3.801 -0.0537 -0.2432 -0.2241
 2169TIP3    H127922   0.443   5.647   3.818 -2.7453 -0.5113 -0.0520
 2169TIP3    H227923   0.382   5.512   3.849  1.1533 -2.4272 -0.1825
 2170TIP3   OH227924   0.802   4.472   3.465 -0.0839  0.3095 -0.5578
 2170TIP3    H127925   0.723   4.493   3.515  0.1612  0.7332 -0.3498
 2170TIP3    H227926   0.864   4.441   3.530  0.5514  1.7275 -0.4493
 2171TIP3   OH227927   6.253   0.984   5.856 -0.3127  0.2984  0.3867
 2171TIP3    H127928   6.327   1.045   5.865  1.0352 -1.5516  3.6719
 2171TIP3    H227929   6.233   0.958   5.946 -1.6881 -3.0667 -0.7477
 2172TIP3   OH227930   2.866   2.542   3.498 -1.1911 -0.0071  0.7341
 2172TIP3    H127931   2.859   2.452   3.529  0.2996 -0.4770 -0.1819
 2172TIP3    H227932   2.829   2.540   3.409  1.0702 -0.3204 -0.2617
 2173TIP3   OH227933   4.387   0.409  16.549  0.4806  0.2321  0.0623
 2173TIP3    H127934   4.441   0.487  16.536  1.4121 -0.3747  0.1808
 2173TIP3    H227935   4.416   0.348  16.481  1.3591 -0.8356  1.3419
 2174TIP3   OH227936   4.275   1.874   2.687 -0.1683  0.5581  0.0904
 2174TIP3    H127937   4.306   1.936   2.621  0.5246  1.5642  1.3034
 2174TIP3    H227938   4.298   1.915   2.771  0.1836 -1.2963  0.9506
 2175TIP3   OH227939   1.945   3.632  12.920  0.4181 -0.3553 -0.2209
 2175TIP3    H127940   1.949   3.727  12.920  1.3328 -0.3888  0.4407
 2175TIP3    H227941   1.888   3.610  12.994 -1.7030 -0.2890 -1.7246
 2176TIP3   OH227942   1.668   2.624  14.897  0.4265 -0.3452 -0.1814
 2176TIP3    H127943   1.608   2.573  14.843  1.7229  0.1442 -2.2199
 2176TIP3    H227944   1.622   2.637  14.980 -1.3367 -1.8220 -0.8700
 2177TIP3   OH227945   4.944   4.584   3.395 -0.0257  0.1065  0.8854
 2177TIP3    H127946   4.994   4.513   3.354  0.2107  1.1412 -0.7049
 2177TIP3    H227947   4.963   4.576   3.488  0.1755 -1.7662  0.7179
 2178TIP3   OH227948   3.204   3.888   1.712 -0.0640 -0.1006  0.2882
 2178TIP3    H127949   3.148   3.924   1.781 -0.3871  1.7647 -0.8818
 2178TIP3    H227950   3.161   3.913   1.631  1.0730 -0.9960 -0.6241
 2179TIP3   OH227951   2.498   1.120   5.007 -0.1368 -0.5800 -0.3495
 2179TIP3    H127952   2.486   1.063   4.932  1.0517  2.0263 -2.7076
 2179TIP3    H227953   2.547   1.195   4.973  2.0608 -0.0103  3.4124
 2180TIP3   OH227954   4.262   2.292  15.109  0.2603 -0.2319  0.2746
 2180TIP3    H127955   4.266   2.222  15.174 -0.5157  0.4452  1.0690
 2180TIP3    H227956   4.341   2.344  15.125  0.3362 -0.3635  0.3314
 2181TIP3   OH227957   3.344   1.542   6.680  0.5342  0.0947 -0.2813
 2181TIP3    H127958   3.254   1.558   6.651  0.5808 -1.8170 -1.6353
 2181TIP3    H227959   3.348   1.583   6.767 -0.7974  2.5934 -1.2853
 2182TIP3   OH227960   2.820   3.786  13.677 -0.0981  0.0792  0.0056
 2182TIP3    H127961   2.727   3.767  13.673 -0.6041  2.0734  0.9613
 2182TIP3    H227962   2.853   3.765  13.590 -1.7624  0.8107 -0.8419
 2183TIP3   OH227963   2.560   1.825  15.205  0.3941  0.3772  0.7026
 2183TIP3    H127964   2.544   1.831  15.111  2.0080  0.1834  0.3924
 2183TIP3    H227965   2.488   1.771  15.238  0.1161 -0.0261 -0.5082
 2184TIP3   OH227966   2.687   6.725   0.412  0.3590  0.1814  0.1072
 2184TIP3    H127967   2.763   6.696   0.362 -0.0728  2.7517 -2.3468
 2184TIP3    H227968   2.723   6.776   0.484  0.9868 -0.2266  0.0816
 2185TIP3   OH227969   6.684   6.005  14.308  0.1566  0.7818  0.2805
 2185TIP3    H127970   6.709   6.097  14.301  0.0825  0.8294  0.6215
 2185TIP3    H227971   6.706   5.980  14.397  3.1864 -0.4535 -0.6778
 2186TIP3   OH227972   2.651   3.273   1.414  0.0242 -0.0733 -0.6773
 2186TIP3    H127973   2.642   3.251   1.321 -0.1927  1.7092 -1.1211
 2186TIP3    H227974   2.715   3.211   1.447  0.7400 -0.2272 -2.2365
 2187TIP3   OH227975   1.165   3.371   5.292  0.4015 -0.6406 -0.2981
 2187TIP3    H127976   1.223   3.366   5.216  1.6284 -1.1810  0.6517
 2187TIP3    H227977   1.151   3.280   5.319 -1.0690 -0.5405 -0.6208
 2188TIP3   OH227978   0.974   3.335   2.955 -0.3513  0.6810  0.0052
 2188TIP3    H127979   0.939   3.422   2.975 -1.0889  0.1618  1.0052
 2188TIP3    H227980   0.990   3.295   3.040 -0.5791 -0.3925 -0.4379
 2189TIP3   OH227981   2.747   5.022  15.979 -0.3724  0.3175 -0.2612
 2189TIP3    H127982   2.803   4.959  16.023 -2.8335 -2.1335 -0.3529
 2189TIP3    H227983   2.700   4.970  15.913 -1.8864  2.4440 -0.9691
 2190TIP3   OH227984   4.370   0.786  14.035  0.7862  0.8920  0.4649
 2190TIP3    H127985   4.353   0.710  14.090  0.2784  0.0930 -0.7450
 2190TIP3    H227986   4.315   0.856  14.071  2.8054  1.3613  2.8694
 2191TIP3   OH227987   2.142   5.534  12.751 -0.0311  0.5213  0.4591
 2191TIP3    H127988   2.068   5.474  12.741  0.1184  0.6775 -2.2809
 2191TIP3    H227989   2.217   5.476  12.763 -0.4450  0.3539  2.7614
 2192TIP3   OH227990   2.160   6.002  11.705 -0.1035  0.3434  0.2468
 2192TIP3    H127991   2.186   5.916  11.740  0.0174  1.0197  1.9111
 2192TIP3    H227992   2.066   6.006  11.720 -0.3250  0.0231 -0.9650
 2193TIP3   OH227993   2.008   1.838   0.619 -0.2784 -0.1559  0.1231
 2193TIP3    H127994   1.941   1.818   0.685 -1.3876  0.1071 -0.8988
 2193TIP3    H227995   2.026   1.932   0.633 -1.6449  0.2931 -0.9167
 2194TIP3   OH227996   0.486   2.647  14.879  0.0622 -0.5989 -0.1579
 2194TIP3    H127997   0.402   2.617  14.913 -0.5609  2.2520  1.0935
 2194TIP3    H227998   0.551   2.602  14.933 -0.7688 -0.4969  0.9678
 2195TIP3   OH227999   3.182   5.036  10.845  0.1820 -0.2317 -0.7377
 2195TIP3    H128000   3.181   4.969  10.776  1.5498 -1.9876  0.8062
 2195TIP3    H228001   3.099   5.024  10.891 -0.5324  0.6387 -1.7586
 2196TIP3   OH228002   2.130   4.682  13.614  0.0931  0.5413  0.3698
 2196TIP3    H128003   2.054   4.738  13.631 -0.9271 -1.1912  1.9358
 2196TIP3    H228004   2.197   4.713  13.674  0.6068  1.9375 -0.8637
 2197TIP3   OH228005   2.709   2.619   3.254  0.1196 -0.2445  1.0299
 2197TIP3    H128006   2.625   2.575   3.265 -0.7691  0.9890 -0.4152
 2197TIP3    H228007   2.737   2.596   3.166 -0.6924  2.4690 -0.0471
 2198TIP3   OH228008   4.244   3.839  11.962 -0.0893 -0.1898  0.9023
 2198TIP3    H128009   4.241   3.762  12.018 -0.4137 -0.7164  0.1785
 2198TIP3    H228010   4.217   3.911  12.018  1.2742 -0.4068  1.8844
 2199TIP3   OH228011   4.642   0.362  16.978 -0.1137 -0.1700 -0.1096
 2199TIP3    H128012   4.651   0.268  16.989 -2.1416 -0.2082  2.2943
 2199TIP3    H228013   4.727   0.398  17.004  0.0266 -1.2658  1.0393
 2200TIP3   OH228014   6.416   3.155  11.929 -1.0972  0.0660 -0.3407
 2200TIP3    H128015   6.441   3.075  11.883 -0.5559 -0.7594  1.3056
 2200TIP3    H228016   6.326   3.139  11.958 -0.8216 -0.1745  0.4128
 2201TIP3   OH228017   1.978   0.920   5.458  0.5009 -0.4417 -0.2035
 2201TIP3    H128018   1.961   0.894   5.548  0.3429  1.3949  0.3398
 2201TIP3    H228019   1.981   0.838   5.409 -0.3242 -1.4129  1.3097
 2202TIP3   OH228020   2.527   1.283   5.297  0.3315 -0.0256  0.7228
 2202TIP3    H128021   2.517   1.365   5.346  0.1867  0.4080 -0.0156
 2202TIP3    H228022   2.564   1.310   5.213  0.3136 -0.7280  0.4838
 2203TIP3   OH228023   5.949   2.234  17.359  0.7266 -0.3305 -0.5526
 2203TIP3    H128024   5.902   2.158  17.392 -1.0596  2.0086  2.8588
 2203TIP3    H228025   6.040   2.205  17.353  0.2867 -2.4863  1.6024
 2204TIP3   OH228026   3.674   2.148   1.436 -0.0479 -0.0595 -0.1871
 2204TIP3    H128027   3.728   2.090   1.490 -0.7117 -0.5812 -0.0689
 2204TIP3    H228028   3.720   2.153   1.352 -0.7310 -1.9588 -0.7086
 2205TIP3   OH228029   2.507   5.793  12.223 -0.3255  0.3145 -0.2676
 2205TIP3    H128030   2.469   5.705  12.226 -0.3195  0.3361  0.8162
 2205TIP3    H228031   2.485   5.831  12.308  0.2813  1.1075 -0.4576
 2206TIP3   OH228032   0.972   2.860  17.107  0.5802  0.1874  0.0687
 2206TIP3    H128033   0.947   2.806  17.032 -0.1884 -0.3351  0.6854
 2206TIP3    H228034   0.910   2.932  17.107 -0.1247 -0.4033  0.8321
 2207TIP3   OH228035   3.793   2.291  14.998 -0.3668  0.4453  0.2049
 2207TIP3    H128036   3.716   2.293  15.055 -0.8968  1.6151 -0.5007
 2207TIP3    H228037   3.859   2.242  15.047 -0.8849  1.1970  1.7100
 2208TIP3   OH228038   6.038   5.041   2.677  0.2543  0.6857  0.3501
 2208TIP3    H128039   6.051   5.108   2.610 -0.5836  1.6761  1.1458
 2208TIP3    H228040   6.058   5.085   2.759 -3.0644  0.8783  1.1892
 2209TIP3   OH228041   5.545   0.082  15.028  0.4325 -0.2204  1.0304
 2209TIP3    H128042   5.523   0.044  14.943 -2.3665  2.8536  0.1128
 2209TIP3    H228043   5.519   0.016  15.092  0.2292 -1.6412 -0.4546
 2210TIP3   OH228044   5.922   0.304  11.255  0.0904 -0.1340  1.0048
 2210TIP3    H128045   5.929   0.210  11.244  0.7497  0.0457 -0.2994
 2210TIP3    H228046   5.952   0.321  11.344  1.1563 -1.0370  0.8313
 2211TIP3   OH228047   6.188   6.308  15.535  0.3586 -0.2385 -0.2353
 2211TIP3    H128048   6.107   6.353  15.561 -0.8246 -1.3124 -1.8724
 2211TIP3    H228049   6.190   6.229  15.589  1.5119  0.8203  1.3654
 2212TIP3   OH228050   3.343   0.247  16.627  0.2558 -0.9066 -0.1301
 2212TIP3    H128051   3.421   0.205  16.664  1.1990  0.1603 -0.8207
 2212TIP3    H228052   3.286   0.261  16.702  1.0222 -1.0937  0.5073
 2213TIP3   OH228053   6.610   6.496  12.097  0.4164  0.1352  0.2443
 2213TIP3    H128054   6.623   6.521  12.189  0.6590  0.4187  0.1311
 2213TIP3    H228055   6.692   6.519  12.054  0.0893  0.5489 -0.1627
 2214TIP3   OH228056   5.040   2.945  12.287  0.3579  0.7878 -0.0645
 2214TIP3    H128057   4.980   3.020  12.287 -1.3412 -0.5159 -0.3234
 2214TIP3    H228058   5.086   2.951  12.371 -1.8351  0.5625  1.2206
 2215TIP3   OH228059   1.004   3.892   3.627 -0.1982 -0.4645  0.4208
 2215TIP3    H128060   1.043   3.954   3.689  1.6831 -1.4412  0.3107
 2215TIP3    H228061   0.987   3.814   3.680  0.5690 -0.9848 -0.0744
 2216TIP3   OH228062   1.843   5.555   1.489 -0.0073  0.1921 -0.3098
 2216TIP3    H128063   1.836   5.464   1.461 -0.6151 -0.2937  1.3069
 2216TIP3    H228064   1.875   5.550   1.579 -0.3402  1.5617 -0.0949
 2217TIP3   OH228065   6.025   4.854   3.607 -0.3559  0.1354  0.1940
 2217TIP3    H128066   5.934   4.882   3.596  0.1840  3.4042  2.6150
 2217TIP3    H228067   6.021   4.787   3.676 -0.8244  1.5802  1.6221
 2218TIP3   OH228068   0.030   0.273  11.354 -0.9015  0.3441  0.1565
 2218TIP3    H128069   0.126   0.265  11.351 -1.0183 -1.2170 -0.2244
 2218TIP3    H228070   0.011   0.353  11.306  0.3060  1.6132  1.6927
 2219TIP3   OH228071   5.548   3.085  12.459  0.6041 -0.6010 -0.2530
 2219TIP3    H128072   5.515   3.010  12.409  2.0534 -0.9543 -0.7113
 2219TIP3    H228073   5.472   3.143  12.468 -0.3300 -1.7380 -0.6034
 2220TIP3   OH228074   2.406   6.198  16.025 -0.8275  0.5322  0.4703
 2220TIP3    H128075   2.435   6.216  16.115 -1.7569 -1.2488  1.1786
 2220TIP3    H228076   2.435   6.109  16.008 -3.1336 -0.2202  0.1067
 2221TIP3   OH228077   2.247   0.835   5.686  0.0193  0.2153  0.0070
 2221TIP3    H128078   2.331   0.793   5.705 -0.4109  0.4055  2.6691
 2221TIP3    H228079   2.260   0.877   5.601  1.8155 -1.7240 -0.7484
 2222TIP3   OH228080   3.966   6.080  11.968  0.1551 -0.2297 -0.1224
 2222TIP3    H128081   4.022   6.008  11.938 -0.2401 -1.3527  1.6443
 2222TIP3    H228082   3.936   6.052  12.054 -3.1084  0.3264 -0.9303
 2223TIP3   OH228083   2.106   4.909   4.492  0.3991 -0.1099 -0.1257
 2223TIP3    H128084   2.082   4.849   4.422 -0.4109 -0.4689  0.4468
 2223TIP3    H228085   2.065   4.873   4.571  0.4625  0.8136  0.3531
 2224TIP3   OH228086   0.744   2.480  11.395  0.0964  0.6521  0.2708
 2224TIP3    H128087   0.739   2.498  11.489 -0.1267 -0.0102  0.3908
 2224TIP3    H228088   0.655   2.455  11.371  0.5190 -0.9786  0.2661
 2225TIP3   OH228089   2.685   0.595   6.038 -0.2872 -0.2307  0.1640
 2225TIP3    H128090   2.742   0.616   6.112 -0.7278 -1.8667  1.0113
 2225TIP3    H228091   2.715   0.652   5.968  1.4181 -0.0142  1.0285
 2226TIP3   OH228092   0.888   2.133   4.987  0.2313  0.4983 -0.7166
 2226TIP3    H128093   0.972   2.154   5.029  1.2548 -0.7877 -1.9810
 2226TIP3    H228094   0.828   2.116   5.059  1.5446 -0.2577  0.2536
 2227TIP3   OH228095   2.674   3.409   5.821  0.3827  0.5013 -0.1425
 2227TIP3    H128096   2.671   3.461   5.740 -0.1672 -0.0667 -0.4907
 2227TIP3    H228097   2.601   3.443   5.873  1.1167  1.2958  0.3889
 2228TIP3   OH228098   2.378   2.771   5.886 -0.3685 -0.9174  0.4072
 2228TIP3    H128099   2.327   2.849   5.864  1.8145  0.0487 -1.6973
 2228TIP3    H228100   2.318   2.698   5.870 -1.3142  0.1789 -1.4007
 2229TIP3   OH228101   5.781   4.521  13.923 -0.5191 -0.3414  0.2256
 2229TIP3    H128102   5.697   4.509  13.969  0.3003 -1.7500  1.4441
 2229TIP3    H228103   5.802   4.613  13.935 -1.4926 -0.1491  0.6150
 2230TIP3   OH228104   0.439   2.646   5.139 -0.1874  0.3156  0.6748
 2230TIP3    H128105   0.485   2.692   5.209  2.3781  1.4706 -1.6008
 2230TIP3    H228106   0.417   2.714   5.076  0.3167 -1.0306 -1.0241
 2231TIP3   OH228107   4.943   1.895   5.567 -0.0657  0.2889 -0.1452
 2231TIP3    H128108   4.866   1.874   5.514  1.1103 -0.3575 -1.6605
 2231TIP3    H228109   4.959   1.988   5.549  0.5173 -0.0051 -1.2095
 2232TIP3   OH228110   4.688   0.084  17.011  0.3562  0.3965  0.0396
 2232TIP3    H128111   4.666   0.032  17.087  0.2496 -1.2260 -1.0505
 2232TIP3    H228112   4.635   0.048  16.940  1.0740  1.2869 -0.9983
 2233TIP3   OH228113   1.742   4.588   1.387 -0.3380 -0.2789  0.0718
 2233TIP3    H128114   1.801   4.627   1.452  1.2067  0.6732 -1.7915
 2233TIP3    H228115   1.740   4.652   1.316 -1.3970 -1.6108 -1.1464
 2234TIP3   OH228116   0.966   4.982   2.448  0.2677 -0.7140  0.1344
 2234TIP3    H128117   0.939   5.047   2.383  2.2091 -1.6453 -1.7029
 2234TIP3    H228118   1.049   5.016   2.483 -0.2000 -0.7702  1.3359
 2235TIP3   OH228119   4.571   1.859   0.147 -0.1455  0.7869 -0.5097
 2235TIP3    H128120   4.602   1.784   0.198 -0.2530  0.7898 -0.4392
 2235TIP3    H228121   4.651   1.909   0.127 -0.1885  1.2045  0.3302
 2236TIP3   OH228122   1.164   4.523  11.601 -0.7148  0.0583  0.4182
 2236TIP3    H128123   1.174   4.618  11.595 -0.0764  0.0490  1.1345
 2236TIP3    H228124   1.143   4.496  11.512  0.0882  0.7665 -0.0114
 2237TIP3   OH228125   3.956   2.940   1.060  0.3448  0.4580  0.3956
 2237TIP3    H128126   3.914   2.938   0.974 -0.7958 -0.3178  0.9456
 2237TIP3    H228127   3.896   2.892   1.117  0.8914  1.2877  1.7116
 2238TIP3   OH228128   1.460   5.597  12.913 -0.4743 -0.6104 -0.6864
 2238TIP3    H128129   1.450   5.684  12.949  0.4217 -1.0084  0.5773
 2238TIP3    H228130   1.550   5.594  12.881 -0.0210 -1.5093  0.5854
 2239TIP3   OH228131   3.943   5.363   0.131  0.1979 -0.2803  0.4806
 2239TIP3    H128132   3.960   5.312   0.052  1.6750  2.9218 -1.5116
 2239TIP3    H228133   3.856   5.401   0.117  0.0799 -0.4293  0.8106
 2240TIP3   OH228134   0.967   3.320   0.404  0.2629 -0.2058  0.5064
 2240TIP3    H128135   0.964   3.413   0.381  1.0719 -0.2620  0.1545
 2240TIP3    H228136   1.056   3.293   0.381 -0.6686 -1.6475 -1.7676
 2241TIP3   OH228137   0.217   6.329   2.691  0.7235  0.1932 -0.2584
 2241TIP3    H128138   0.218   6.351   2.784 -0.1996  0.5866 -0.3236
 2241TIP3    H228139   0.308   6.308   2.669  1.0551  0.7310  0.5799
 2242TIP3   OH228140   6.317   5.784  15.563  0.3353 -0.4561  0.4801
 2242TIP3    H128141   6.311   5.760  15.656  1.0207 -0.6028  0.4912
 2242TIP3    H228142   6.396   5.740  15.532  0.5468  0.2342  0.0241
 2243TIP3   OH228143   0.647   2.970  13.092  1.1056 -0.1810  0.2449
 2243TIP3    H128144   0.595   2.940  13.017 -0.3272 -0.1240  1.1746
 2243TIP3    H228145   0.629   3.064  13.097  1.3213 -0.1556  0.5722
 2244TIP3   OH228146   6.136   0.289   5.646  0.1928  0.8340 -0.0491
 2244TIP3    H128147   6.184   0.206   5.654 -2.4813 -0.8508  0.1386
 2244TIP3    H228148   6.169   0.344   5.716  1.8623 -0.1755 -0.0082
 2245TIP3   OH228149   2.170   4.155  14.422  0.3672 -0.1161 -0.4099
 2245TIP3    H128150   2.148   4.156  14.329 -1.7843 -0.6276  0.0392
 2245TIP3    H228151   2.086   4.165  14.467  1.2973 -0.3526  1.5001
 2246TIP3   OH228152   6.123   4.428  12.743 -0.6385  0.6859 -0.1216
 2246TIP3    H128153   6.204   4.446  12.695 -0.2559 -0.6931 -0.0219
 2246TIP3    H228154   6.053   4.456  12.684 -0.2135 -1.7522 -1.9003
 2247TIP3   OH228155   4.203   2.298  14.109  0.4658 -0.2791  0.2739
 2247TIP3    H128156   4.122   2.341  14.081 -0.3219 -0.4311  2.1495
 2247TIP3    H228157   4.175   2.212  14.140  1.3319 -0.3040  1.0311
 2248TIP3   OH228158   4.274   3.524   0.061 -0.1916  0.3203 -0.1539
 2248TIP3    H128159   4.309   3.550   0.146  0.2327 -0.3789 -0.1080
 2248TIP3    H228160   4.246   3.606   0.021  0.6364  0.7882  0.1989
 2249TIP3   OH228161   3.481   3.189  11.110 -0.0433  0.1627  0.0139
 2249TIP3    H128162   3.510   3.158  11.195  0.6704  0.4237 -0.1282
 2249TIP3    H228163   3.553   3.170  11.051 -0.8668 -0.7993 -0.7232
 2250TIP3   OH228164   3.272   5.438  11.966  0.1468  0.7829 -0.0240
 2250TIP3    H128165   3.228   5.414  11.884  0.2202 -0.9593  0.3907
 2250TIP3    H228166   3.364   5.443  11.943  0.3227 -0.9796  0.1646
 2251TIP3   OH228167   4.115   1.175  14.272  0.6287  0.4745 -0.6025
 2251TIP3    H128168   4.102   1.266  14.245 -2.3094  0.0983 -0.8738
 2251TIP3    H228169   4.079   1.171  14.361 -1.1278 -0.7522 -1.3113
 2252TIP3   OH228170   3.189   5.019   5.674 -0.6189 -0.0190 -0.5967
 2252TIP3    H128171   3.121   5.023   5.607  0.0170  0.7482 -1.2219
 2252TIP3    H228172   3.249   5.090   5.651 -1.0513  1.1320  1.5495
 2253TIP3   OH228173   3.165   2.693   4.303 -0.1263  0.3338 -0.1081
 2253TIP3    H128174   3.107   2.624   4.334  0.6651 -0.6640 -0.7874
 2253TIP3    H228175   3.222   2.650   4.239  1.0862  1.3777  0.2359
 2254TIP3   OH228176   3.393   5.204   4.597  0.1936 -0.1609 -0.5491
 2254TIP3    H128177   3.417   5.114   4.577 -0.5460 -0.1216 -1.6687
 2254TIP3    H228178   3.468   5.256   4.569  0.9601 -0.4829  0.8494
 2255TIP3   OH228179   2.234   5.905  14.303 -0.2765 -0.1916 -1.1320
 2255TIP3    H128180   2.174   5.853  14.249 -1.5094 -0.3152  0.2755
 2255TIP3    H228181   2.233   5.861  14.388 -0.0674  1.2047 -0.3900
 2256TIP3   OH228182   3.196   5.355   2.958  0.5377 -0.0655  0.0341
 2256TIP3    H128183   3.262   5.299   2.918  1.4492  0.8758  0.1725
 2256TIP3    H228184   3.130   5.368   2.889  2.0187  1.4306 -1.1847
 2257TIP3   OH228185   3.711   5.692  15.667  0.2826 -0.7239 -0.1814
 2257TIP3    H128186   3.644   5.729  15.610 -0.3804  0.1522  1.1204
 2257TIP3    H228187   3.711   5.749  15.744  2.5516 -0.6780 -0.1547
 2258TIP3   OH228188   3.016   5.150  12.686 -0.3734  0.3029  0.0704
 2258TIP3    H128189   2.962   5.162  12.607 -1.1687  1.7790  0.7752
 2258TIP3    H228190   3.106   5.147  12.654 -0.6820  0.9366 -0.9034
 2259TIP3   OH228191   5.894   5.396   5.084  0.9422  0.5119 -0.3112
 2259TIP3    H128192   5.819   5.339   5.066 -1.3222  1.7103  4.0374
 2259TIP3    H228193   5.865   5.483   5.056  1.9458  0.5780 -1.2348
 2260TIP3   OH228194   4.523   6.408  11.444  0.8229  0.1160  0.2826
 2260TIP3    H128195   4.563   6.337  11.395 -0.0503  0.0285 -0.3282
 2260TIP3    H228196   4.429   6.395  11.434  0.6419  1.2283  0.3352
 2261TIP3   OH228197   5.778   1.932  15.718  0.4710  0.2602 -0.0609
 2261TIP3    H128198   5.781   1.836  15.723  1.3362  0.1155 -2.2434
 2261TIP3    H228199   5.728   1.950  15.638 -0.4606  1.6844  0.8003
 2262TIP3   OH228200   1.738   2.970   2.231  0.1873 -0.1538  0.5505
 2262TIP3    H128201   1.781   2.912   2.294  0.8281  0.9471  1.1739
 2262TIP3    H228202   1.748   2.927   2.147  1.1302 -0.6913  0.9253
 2263TIP3   OH228203   3.974   1.584  16.909  0.4393 -0.2324  0.7282
 2263TIP3    H128204   3.901   1.560  16.852 -0.2643  0.6759  1.2152
 2263TIP3    H228205   3.933   1.607  16.992  1.1912  1.0357  0.7800
 2264TIP3   OH228206   2.226   2.020   4.391  0.0594 -1.1973  0.3410
 2264TIP3    H128207   2.190   1.942   4.349 -0.6652 -0.1364 -1.1215
 2264TIP3    H228208   2.289   2.054   4.327 -2.1290  1.2862 -0.6996
 2265TIP3   OH228209   5.393   6.453  10.613 -0.2965  0.4271 -0.1534
 2265TIP3    H128210   5.416   6.364  10.587 -1.6441  0.7090 -2.5631
 2265TIP3    H228211   5.448   6.471  10.689  2.8689 -1.0502 -1.9219
 2266TIP3   OH228212   5.647   2.511   2.000  0.0611 -0.0033 -0.3787
 2266TIP3    H128213   5.691   2.517   2.085  1.4486 -0.1597 -1.0460
 2266TIP3    H228214   5.555   2.496   2.021  0.1609  1.2445  1.0918
 2267TIP3   OH228215   6.173   6.148   0.475 -0.5469  0.3587 -0.6559
 2267TIP3    H128216   6.136   6.207   0.540  0.3811  0.9647 -0.6598
 2267TIP3    H228217   6.148   6.185   0.391 -0.3513  0.5054 -0.6521
 2268TIP3   OH228218   3.244   3.818   3.079  0.2647 -0.2661 -0.5190
 2268TIP3    H128219   3.290   3.889   3.034  1.0495 -0.3899  0.0594
 2268TIP3    H228220   3.159   3.813   3.036  0.0013  1.3569 -0.2544
 2269TIP3   OH228221   0.452   0.367  13.476  0.5564 -0.3226 -0.0842
 2269TIP3    H128222   0.374   0.416  13.502 -0.0152 -1.1950 -0.1000
 2269TIP3    H228223   0.522   0.432  13.473 -0.4300  0.7406 -1.3566
 2270TIP3   OH228224   4.297   4.361  16.134  0.0652 -0.4717  0.5269
 2270TIP3    H128225   4.353   4.323  16.067 -0.3971 -2.7555  1.3327
 2270TIP3    H228226   4.312   4.455  16.128  0.7601 -0.6829 -2.0895
 2271TIP3   OH228227   0.417   3.748  12.774  0.0639  0.0642 -0.4857
 2271TIP3    H128228   0.335   3.742  12.824  0.2985 -0.0561 -0.1124
 2271TIP3    H228229   0.408   3.830  12.725 -0.8602 -0.6259 -1.5121
 2272TIP3   OH228230   0.261   2.840   6.223 -0.1506 -1.0157 -0.5012
 2272TIP3    H128231   0.168   2.822   6.230 -0.2083 -0.3826  0.6863
 2272TIP3    H228232   0.273   2.925   6.265  0.9907 -1.2082 -0.3823
 2273TIP3   OH228233   4.017   0.362  16.042 -0.5799 -0.1796 -0.4345
 2273TIP3    H128234   4.033   0.279  16.088 -1.9261  0.3805  1.1402
 2273TIP3    H228235   4.103   0.403  16.034 -0.2752 -0.3891  1.4511
 2274TIP3   OH228236   4.377   2.100  16.739 -0.0516  0.2446  0.0676
 2274TIP3    H128237   4.292   2.075  16.775 -0.1888 -0.4617 -0.7116
 2274TIP3    H228238   4.412   2.164  16.801 -0.3512 -0.7972  1.3563
 2275TIP3   OH228239   4.668   3.494   2.715 -0.0596  0.2231  0.5905
 2275TIP3    H128240   4.618   3.438   2.656 -1.9527  0.1143  2.1712
 2275TIP3    H228241   4.657   3.582   2.679  0.3041 -0.0402 -0.1828
 2276TIP3   OH228242   3.851   1.994  16.748 -0.4001  0.0728  0.1611
 2276TIP3    H128243   3.878   1.967  16.836 -1.0276  0.0930  0.3669
 2276TIP3    H228244   3.930   1.984  16.695 -0.3542 -1.3112  0.4247
 2277TIP3   OH228245   2.855   6.469   3.773  0.2749 -0.3215 -0.1909
 2277TIP3    H128246   2.878   6.461   3.866 -0.0371  1.6086  0.0926
 2277TIP3    H228247   2.774   6.420   3.764 -0.5214  0.7403  0.9312
 2278TIP3   OH228248   3.309   1.778   0.560  0.6703 -0.5867  0.0071
 2278TIP3    H128249   3.288   1.705   0.501 -0.0684 -0.4281  0.0695
 2278TIP3    H228250   3.227   1.826   0.569  0.5514 -1.0457  1.7731
 2279TIP3   OH228251   1.813   0.569   0.457  0.5651 -0.0878  0.6710
 2279TIP3    H128252   1.733   0.595   0.413  0.7072 -1.6878 -0.6132
 2279TIP3    H228253   1.785   0.503   0.521  0.8819 -0.9410 -0.0537
 2280TIP3   OH228254   0.735   3.769  15.833  0.1469  0.0696 -0.2131
 2280TIP3    H128255   0.643   3.778  15.856  0.5833 -0.7088  2.1826
 2280TIP3    H228256   0.748   3.675  15.820  0.1120  0.3850 -3.2640
 2281TIP3   OH228257   0.199   0.100   6.207 -0.0942  0.0441 -0.1234
 2281TIP3    H128258   0.146   0.176   6.184 -1.7187 -1.5710 -2.1276
 2281TIP3    H228259   0.138   0.041   6.251  0.6366 -0.8794 -0.3171
 2282TIP3   OH228260   3.529   3.526  13.579 -0.3480 -0.6911  0.6790
 2282TIP3    H128261   3.585   3.555  13.651 -0.0655 -0.0874  0.2275
 2282TIP3    H228262   3.585   3.532  13.502 -0.7410 -1.0335  0.3663
 2283TIP3   OH228263   2.729   2.634  15.378 -0.1501  0.7298  0.2497
 2283TIP3    H128264   2.725   2.571  15.306 -0.9186  1.9220 -0.7986
 2283TIP3    H228265   2.751   2.582  15.455 -3.4533 -1.3265 -0.0259
 2284TIP3   OH228266   0.296   1.441   4.599 -0.8576 -0.1478 -0.4083
 2284TIP3    H128267   0.249   1.488   4.668 -1.2549 -1.1808  0.0389
 2284TIP3    H228268   0.381   1.422   4.638 -1.4942 -1.7607  0.2513
 2285TIP3   OH228269   4.908   1.315  16.723  0.7199 -0.1432 -0.2897
 2285TIP3    H128270   4.848   1.371  16.771  1.2669 -1.3826  1.9585
 2285TIP3    H228271   4.857   1.237  16.702  0.3183  0.6039 -2.3351
 2286TIP3   OH228272   4.734   5.802  15.217 -1.0139  0.3961 -0.0853
 2286TIP3    H128273   4.650   5.780  15.256 -1.6332  1.0169 -1.0411
 2286TIP3    H228274   4.713   5.837  15.130  0.3478 -1.8525 -1.4545
 2287TIP3   OH228275   5.172   5.149  12.939  0.4048 -0.0535 -0.5649
 2287TIP3    H128276   5.259   5.112  12.924  1.0863  1.0950  0.3221
 2287TIP3    H228277   5.186   5.218  13.004 -1.1459  0.2909 -0.5403
 2288TIP3   OH228278   5.077   0.066  13.834  0.4661 -0.9454  0.0540
 2288TIP3    H128279   5.082  -0.003  13.767  0.9912 -1.1428  0.2918
 2288TIP3    H228280   4.989   0.101  13.825  0.3027 -1.4275 -0.2915
 2289TIP3   OH228281   5.658   1.565  16.264 -0.1596 -0.1126  0.6159
 2289TIP3    H128282   5.726   1.560  16.196 -0.0136  1.9989  0.5467
 2289TIP3    H228283   5.675   1.490  16.320  1.9261  0.0663  0.3061
 2290TIP3   OH228284   5.884   2.561   4.372  0.5194  0.5493 -0.3520
 2290TIP3    H128285   5.970   2.547   4.333  0.7219  0.7561  0.0096
 2290TIP3    H228286   5.823   2.513   4.316  0.7879  0.9284 -0.9741
 2291TIP3   OH228287   0.005   2.686  13.508  0.4113 -0.1749  0.4828
 2291TIP3    H128288   0.093   2.663  13.538  0.0036 -0.1240  1.7755
 2291TIP3    H228289   0.012   2.687  13.412  1.2109 -2.5744  0.4638
 2292TIP3   OH228290   2.250   2.082  15.397  0.0967  0.1634 -0.0515
 2292TIP3    H128291   2.169   2.133  15.400  0.1025  0.1905 -0.3234
 2292TIP3    H228292   2.231   2.002  15.446 -0.2657 -0.0746 -0.5692
 2293TIP3   OH228293   0.248   3.358   4.722 -0.1746 -0.3855 -0.5097
 2293TIP3    H128294   0.290   3.386   4.641 -0.2679  1.9601  0.1682
 2293TIP3    H228295   0.165   3.321   4.695  0.7493 -1.7559 -1.6102
 2294TIP3   OH228296   0.179   2.488   3.421  0.3722 -0.0933  0.3884
 2294TIP3    H128297   0.148   2.484   3.511  0.6122 -2.2729  0.4396
 2294TIP3    H228298   0.261   2.538   3.426  0.4868 -0.3632  1.4286
 2295TIP3   OH228299   4.690   0.329   1.396 -0.6525  0.1753 -0.4974
 2295TIP3    H128300   4.639   0.367   1.324  0.5107  0.5152 -1.1567
 2295TIP3    H228301   4.625   0.279   1.447 -1.8610  1.4760 -0.6889
 2296TIP3   OH228302   4.322   6.027   6.498 -0.5752  0.0475 -0.0648
 2296TIP3    H128303   4.275   5.949   6.469 -1.0754  0.4790 -0.4325
 2296TIP3    H228304   4.382   5.995   6.565 -0.8622 -0.6344 -0.1241
 2297TIP3   OH228305   6.267   3.738   3.082  1.1150 -0.4987 -0.2345
 2297TIP3    H128306   6.216   3.713   3.005  0.2361 -0.1633  0.2261
 2297TIP3    H228307   6.325   3.808   3.052 -0.9713  1.3940 -0.0504
 2298TIP3   OH228308   6.244   1.382  16.559  0.2269  0.3465 -0.7287
 2298TIP3    H128309   6.306   1.318  16.595  1.5041  1.4949 -0.8085
 2298TIP3    H228310   6.253   1.459  16.615 -2.9914 -0.2313  0.8428
 2299TIP3   OH228311   3.082   3.164   3.191 -0.1307  0.4258  0.7465
 2299TIP3    H128312   3.146   3.235   3.187 -1.1247  1.3326  0.6477
 2299TIP3    H228313   3.035   3.168   3.108 -0.5348 -0.0176  0.9438
 2300TIP3   OH228314   5.561   2.872  13.609 -0.2329  0.1335 -0.0766
 2300TIP3    H128315   5.494   2.850  13.673  0.1557  0.5059  0.4646
 2300TIP3    H228316   5.517   2.863  13.524 -1.2979  1.4127  0.3002
 2301TIP3   OH228317   4.762   3.859   2.531  0.0275 -0.3915  0.0049
 2301TIP3    H128318   4.761   3.863   2.627 -1.2580 -2.3451  0.1367
 2301TIP3    H228319   4.670   3.866   2.506  0.2241 -1.1597 -0.9985
 2302TIP3   OH228320   1.614   1.893   0.776  0.4789  0.3944  0.2355
 2302TIP3    H128321   1.564   1.911   0.697  0.5321  0.8450  0.3028
 2302TIP3    H228322   1.695   1.852   0.744  0.4090  0.3859  0.0694
 2303TIP3   OH228323   0.950   5.337  13.363 -0.6949 -0.2089  0.1157
 2303TIP3    H128324   0.964   5.303  13.451 -1.8492  1.1218  0.8649
 2303TIP3    H228325   1.013   5.290  13.308  0.1118 -1.0004  1.6557
 2304TIP3   OH228326   4.681   4.577   3.635 -0.4277  1.2777 -0.5147
 2304TIP3    H128327   4.672   4.666   3.600  1.5502  2.1241  0.8818
 2304TIP3    H228328   4.656   4.586   3.727 -0.0165  0.4310 -0.3154
 2305TIP3   OH228329   4.918   1.894  14.565  0.2272 -0.2756  0.0943
 2305TIP3    H128330   4.883   1.983  14.570  0.7792 -0.0932  0.9193
 2305TIP3    H228331   4.861   1.842  14.622  0.8064 -0.1390  0.8087
 2306TIP3   OH228332   3.082   1.203  14.449  0.2072 -0.3740 -0.6406
 2306TIP3    H128333   3.111   1.173  14.535  2.9142 -1.2741 -1.7545
 2306TIP3    H228334   3.104   1.297  14.448  0.5916 -0.4586 -0.4854
 2307TIP3   OH228335   6.743   4.000  17.199  0.2278  0.1096  0.2357
 2307TIP3    H128336   6.778   4.082  17.164  0.0187  0.7657  1.5061
 2307TIP3    H228337   6.821   3.948  17.221  0.4959  1.3627  2.5836
 2308TIP3   OH228338   0.290   3.141  16.330  0.3225  0.5700 -0.4921
 2308TIP3    H128339   0.210   3.152  16.382  0.5084 -1.1745  0.2382
 2308TIP3    H228340   0.276   3.060  16.280  1.7709 -0.0207 -0.0151
 2309TIP3   OH228341   2.087   6.681  15.653  0.4958  0.4019 -0.1098
 2309TIP3    H128342   2.092   6.770  15.620 -1.0760  1.0984  1.3585
 2309TIP3    H228343   1.995   6.656  15.641  0.7177 -0.6734  0.3160
 2310TIP3   OH228344   2.692   1.091   3.242 -0.0043  0.1848  0.3598
 2310TIP3    H128345   2.612   1.123   3.284  0.7413  1.7124  0.6975
 2310TIP3    H228346   2.670   1.003   3.212 -1.5912  0.3136  1.0450
 2311TIP3   OH228347   4.337   4.644   0.548 -0.3496 -0.2536  0.5838
 2311TIP3    H128348   4.424   4.674   0.523 -0.6364 -0.9186 -1.3896
 2311TIP3    H228349   4.351   4.560   0.591 -0.0751 -0.9566 -0.8409
 2312TIP3   OH228350   5.958   1.619  14.617 -0.3109  0.2113 -0.3803
 2312TIP3    H128351   5.969   1.640  14.525  0.7465  0.5288 -0.1923
 2312TIP3    H228352   5.970   1.702  14.663 -3.3726  0.5950 -0.0876
 2313TIP3   OH228353   0.449   6.740   6.173  0.5609  0.8073  0.5930
 2313TIP3    H128354   0.496   6.756   6.091  0.2131  1.4311  0.5073
 2313TIP3    H228355   0.374   6.799   6.169  0.1956  0.3851  1.0814
 2314TIP3   OH228356   3.218   6.645   2.567  0.3293  0.0553 -0.1139
 2314TIP3    H128357   3.126   6.646   2.539 -1.0093 -1.3357  3.5597
 2314TIP3    H228358   3.226   6.721   2.625  1.2040 -0.3815  0.3495
 2315TIP3   OH228359   3.810   5.941   4.404 -0.2441 -0.2179 -0.3126
 2315TIP3    H128360   3.870   6.015   4.413 -0.3745 -0.1501  0.0223
 2315TIP3    H228361   3.820   5.913   4.313 -1.1484  1.0357 -0.8283
 2316TIP3   OH228362   0.877   4.019  14.220  0.3260 -0.2911  0.5078
 2316TIP3    H128363   0.954   4.068  14.250  0.6858 -0.9034  0.6099
 2316TIP3    H228364   0.880   4.024  14.125 -0.0032  0.4288  0.5303
 2317TIP3   OH228365   2.999   6.454  14.309 -0.4849  0.5503 -0.1788
 2317TIP3    H128366   2.995   6.378  14.251 -1.4952  1.3581 -1.2205
 2317TIP3    H228367   3.092   6.479  14.310 -0.4234  0.4257 -1.3491
 2318TIP3   OH228368   5.229   3.554   3.267  0.8011  0.0599  0.0378
 2318TIP3    H128369   5.257   3.595   3.348  0.4931 -0.7749  0.5774
 2318TIP3    H228370   5.273   3.604   3.198 -0.6053  2.1538  0.5844
 2319TIP3   OH228371   6.061   4.682   1.821 -0.3250 -0.4041  0.3784
 2319TIP3    H128372   6.129   4.637   1.872  0.3718 -0.7108 -0.7731
 2319TIP3    H228373   6.107   4.753   1.778 -0.6150 -0.9234 -0.8233
 2320TIP3   OH228374   4.986   2.431   4.011 -0.1883 -0.2480 -0.3147
 2320TIP3    H128375   4.923   2.496   4.041 -1.6521 -2.3509  1.5255
 2320TIP3    H228376   4.953   2.404   3.925 -0.3364  0.4564 -0.4820
 2321TIP3   OH228377   1.613   2.229  13.811  0.7853  0.4117  0.1207
 2321TIP3    H128378   1.698   2.210  13.849  1.2251  0.3196 -0.8742
 2321TIP3    H228379   1.622   2.317  13.774 -0.3597  1.5055  2.2163
 2322TIP3   OH228380   4.877   6.692  16.661  0.2830 -0.3446 -0.8647
 2322TIP3    H128381   4.850   6.783  16.647  1.3550  0.1205 -0.0913
 2322TIP3    H228382   4.811   6.656  16.721  1.2883  0.7652  0.9931
 2323TIP3   OH228383   5.847   5.091  16.520  0.4831 -0.4998 -0.1723
 2323TIP3    H128384   5.938   5.061  16.520  0.9278  0.8113  0.2500
 2323TIP3    H228385   5.831   5.118  16.429  0.0820 -1.9222 -0.5555
 2324TIP3   OH228386   2.525   5.863   1.631 -0.1759  0.3753 -0.0908
 2324TIP3    H128387   2.553   5.954   1.632  2.6585 -0.4146  1.1414
 2324TIP3    H228388   2.470   5.854   1.709 -1.1911  1.1588 -0.6810
 2325TIP3   OH228389   6.432   0.576   4.279 -0.1797  0.1670 -0.7999
 2325TIP3    H128390   6.520   0.615   4.273 -0.6616  1.7228  1.2723
 2325TIP3    H228391   6.423   0.526   4.198  3.0831 -1.0885 -0.5389
 2326TIP3   OH228392   2.478   1.990  17.119  0.3096  0.2685 -0.4075
 2326TIP3    H128393   2.494   2.021  17.030 -0.8545  0.5048 -0.5523
 2326TIP3    H228394   2.424   2.058  17.160  0.4610 -0.0411  0.3389
 2327TIP3   OH228395   0.716   4.641  15.009  0.1573 -0.2784  0.3268
 2327TIP3    H128396   0.702   4.666  14.918  2.9409  1.3836  0.2417
 2327TIP3    H228397   0.680   4.552  15.015  0.3001 -0.6258 -2.5009
 2328TIP3   OH228398   5.103   1.641  13.137  0.3610 -0.4844 -0.1202
 2328TIP3    H128399   5.114   1.666  13.229 -0.1248  0.7970 -0.3873
 2328TIP3    H228400   5.096   1.724  13.090  0.2945 -1.1218 -1.2861
 2329TIP3   OH228401   3.718   6.752  14.667  0.6573  0.4117 -0.4816
 2329TIP3    H128402   3.625   6.736  14.655  0.3616  1.1809  0.6140
 2329TIP3    H228403   3.751   6.674  14.711  0.4396  0.3241 -0.4754
 2330TIP3   OH228404   4.781   2.334  15.229 -0.1780 -0.7831  0.2568
 2330TIP3    H128405   4.855   2.378  15.188 -0.3720 -0.6486  0.0487
 2330TIP3    H228406   4.706   2.389  15.208 -0.3208 -0.8619  0.5606
 2331TIP3   OH228407   6.481   0.852  13.442  0.5988 -0.2014 -0.0720
 2331TIP3    H128408   6.396   0.828  13.477  0.4437  2.5436  1.6951
 2331TIP3    H228409   6.462   0.900  13.362  0.5823 -0.5835 -0.3023
 2332TIP3   OH228410   5.412   6.153  15.464 -0.2465 -0.5695  0.2761
 2332TIP3    H128411   5.359   6.149  15.544 -1.7639 -2.6702 -0.7254
 2332TIP3    H228412   5.406   6.064  15.428  0.1100  0.3908 -2.3390
 2333TIP3   OH228413   3.538   5.107   1.207 -0.2535 -0.6768 -0.1206
 2333TIP3    H128414   3.540   5.013   1.221  2.4589 -0.5333  1.1980
 2333TIP3    H228415   3.517   5.144   1.293  0.4595 -0.0671 -0.1937
 2334TIP3   OH228416   0.974   2.346  11.491 -0.2241  0.0128  0.4062
 2334TIP3    H128417   0.895   2.391  11.460 -0.0677  0.7951  1.1158
 2334TIP3    H228418   1.013   2.310  11.412 -0.4434  0.9961 -0.1669
 2335TIP3   OH228419   4.167   0.120   3.363 -0.0741  0.1907 -0.0927
 2335TIP3    H128420   4.171   0.119   3.268  0.8046  0.1183 -0.0589
 2335TIP3    H228421   4.258   0.112   3.392 -0.4179 -1.1569  0.7606
 2336TIP3   OH228422   4.252   3.208   2.004  0.0582 -0.1659  0.1959
 2336TIP3    H128423   4.235   3.302   2.014 -2.9905 -0.5503 -0.2882
 2336TIP3    H228424   4.308   3.202   1.927 -1.1966  1.2252 -0.8879
 2337TIP3   OH228425   2.871   4.877  11.351 -0.1303 -0.3862 -0.3069
 2337TIP3    H128426   2.894   4.956  11.399 -0.2355 -0.5070 -0.0540
 2337TIP3    H228427   2.940   4.814  11.373 -1.2373 -1.1018  1.3152
 2338TIP3   OH228428   4.873   3.418   0.030 -0.2183  0.4718  0.0820
 2338TIP3    H128429   4.852   3.336   0.076 -1.5861  1.5877  1.5661
 2338TIP3    H228430   4.826   3.411  -0.053  0.9090 -0.8525 -0.4926
 2339TIP3   OH228431   1.988   5.068  14.023  0.4756  1.0229  0.0165
 2339TIP3    H128432   1.952   5.078  14.112 -1.8188  0.3941 -0.7642
 2339TIP3    H228433   1.920   5.020  13.976  2.4070 -0.2244 -1.6448
 2340TIP3   OH228434   2.966   2.421   1.865 -0.3085 -0.9343 -0.1115
 2340TIP3    H128435   2.907   2.378   1.928 -1.1121  0.6372  0.2606
 2340TIP3    H228436   2.962   2.365   1.787 -1.6444 -1.3119  0.2017
 2341TIP3   OH228437   1.474   1.439  12.234  0.4055  0.0771  0.2271
 2341TIP3    H128438   1.470   1.382  12.311 -1.2873 -1.6977 -1.0744
 2341TIP3    H228439   1.432   1.520  12.261  1.0214 -0.0216  1.5306
 2342TIP3   OH228440   1.307   0.479  11.944 -0.7396 -0.1691  0.0999
 2342TIP3    H128441   1.314   0.399  11.893 -1.4579 -1.3711  1.8013
 2342TIP3    H228442   1.314   0.549  11.879  0.2832 -1.5774 -1.3843
 2343TIP3   OH228443   3.041   3.891   3.987 -0.4373  0.5191  0.1961
 2343TIP3    H128444   3.118   3.878   4.042  1.0397  1.7953 -1.4343
 2343TIP3    H228445   3.064   3.964   3.930 -1.4680 -1.2689 -2.7567
 2344TIP3   OH228446   4.894   1.970   2.122 -0.0958  0.2681  0.7428
 2344TIP3    H128447   4.934   1.909   2.185 -2.2698 -1.1879  0.8099
 2344TIP3    H228448   4.823   2.011   2.171 -0.0056  1.3013  0.0383
 2345TIP3   OH228449   2.142   5.064  11.963 -0.0513  0.0009  0.6422
 2345TIP3    H128450   2.048   5.051  11.977  0.2326  0.0174  2.9106
 2345TIP3    H228451   2.183   5.004  12.025  1.5704 -2.7105 -2.6996
 2346TIP3   OH228452   5.476   0.584  14.564 -0.2310  0.2735 -0.2760
 2346TIP3    H128453   5.423   0.526  14.618  0.0258  1.5939  1.4628
 2346TIP3    H228454   5.486   0.663  14.616  2.1687  0.6590 -1.1762
 2347TIP3   OH228455   0.494   6.056   4.776  0.5965 -0.1224 -0.0606
 2347TIP3    H128456   0.578   6.012   4.769 -0.8198 -2.9045 -1.0800
 2347TIP3    H228457   0.448   6.010   4.846 -0.9719 -0.3605 -1.1914
 2348TIP3   OH228458   2.606   0.917   5.520 -0.2122  0.2151  0.2217
 2348TIP3    H128459   2.682   0.954   5.566 -0.5479 -1.7472  2.5584
 2348TIP3    H228460   2.552   0.993   5.498  1.9721  1.5875 -0.7405
 2349TIP3   OH228461   3.660   4.557  13.677 -0.5984 -0.3530  0.2511
 2349TIP3    H128462   3.590   4.542  13.741 -0.3941 -0.1805  0.5195
 2349TIP3    H228463   3.737   4.515  13.716 -0.5167 -0.4081  0.0299
 2350TIP3   OH228464   0.836   5.738  15.964  0.3284 -0.4474  0.0085
 2350TIP3    H128465   0.808   5.648  15.951  1.4019 -0.5167 -2.4438
 2350TIP3    H228466   0.920   5.730  16.009 -0.5618 -0.5127  1.7468
 2351TIP3   OH228467   0.173   0.507  15.875  0.0079 -0.0894  0.4369
 2351TIP3    H128468   0.246   0.486  15.933 -0.1500 -3.1179 -0.3284
 2351TIP3    H228469   0.212   0.512  15.788 -0.0051  2.9689  0.4978
 2352TIP3   OH228470   3.504   3.990   1.509 -0.6690  0.6109  0.0205
 2352TIP3    H128471   3.592   3.960   1.532 -0.7543  1.2344  1.2717
 2352TIP3    H228472   3.454   3.909   1.494  0.4769  0.2603 -2.3393
 2353TIP3   OH228473   3.119   6.046   4.613  0.1375  0.1790  0.3417
 2353TIP3    H128474   3.104   5.960   4.652 -2.2094  0.4078  0.1328
 2353TIP3    H228475   3.209   6.067   4.635  0.3652 -1.7557  1.5312
 2354TIP3   OH228476   5.895   6.470   1.561  0.2437 -0.4524  0.6873
 2354TIP3    H128477   5.971   6.415   1.541 -0.8495 -1.0919 -2.2068
 2354TIP3    H228478   5.928   6.559   1.556  0.6977 -0.6891 -1.4103
 2355TIP3   OH228479   2.158   0.126  15.171  0.2126  0.1763 -0.0818
 2355TIP3    H128480   2.116   0.205  15.135  1.5096  0.7452 -0.4079
 2355TIP3    H228481   2.158   0.064  15.098  1.0595  0.6276 -0.4769
 2356TIP3   OH228482   5.126   3.861   4.090  0.0223  0.0535 -0.4388
 2356TIP3    H128483   5.156   3.772   4.110 -0.3835 -0.0747 -0.3930
 2356TIP3    H228484   5.175   3.917   4.150  1.0630 -0.0287 -1.1715
 2357TIP3   OH228485   6.236   0.959   4.458 -0.4994 -0.2428  0.1571
 2357TIP3    H128486   6.296   1.002   4.520 -2.0518  1.6767  0.4562
 2357TIP3    H228487   6.225   1.023   4.387 -3.4956  0.3100  0.9738
 2358TIP3   OH228488   4.659   1.705   4.749  0.1396 -0.2369 -0.3220
 2358TIP3    H128489   4.586   1.648   4.773  0.1783 -0.3228 -0.4110
 2358TIP3    H228490   4.661   1.704   4.653  1.3289 -1.6008 -0.3151
 2359TIP3   OH228491   3.116   2.620  13.430 -0.1337  0.1256 -0.4274
 2359TIP3    H128492   3.039   2.632  13.375 -1.5024 -2.6556  0.6729
 2359TIP3    H228493   3.186   2.667  13.384 -1.5328 -0.6582 -3.6529
 2360TIP3   OH228494   6.303   3.238   5.583 -0.7737  0.1513 -0.3057
 2360TIP3    H128495   6.305   3.196   5.497 -0.7461  1.8852 -1.1925
 2360TIP3    H228496   6.227   3.200   5.626 -0.3634 -1.2817 -0.7928
 2361TIP3   OH228497   4.067   1.124   2.869 -0.1825 -0.7090  0.3011
 2361TIP3    H128498   4.125   1.057   2.832  1.4564  0.8449 -0.1086
 2361TIP3    H228499   4.046   1.091   2.956  1.9351 -1.0354  0.7458
 2362TIP3   OH228500   3.774   1.005  11.206  0.1398 -0.0474  0.0317
 2362TIP3    H128501   3.863   1.010  11.241  0.0213 -0.7976  0.4671
 2362TIP3    H228502   3.718   1.025  11.281 -0.1264 -1.8602  0.3619
 2363TIP3   OH228503   1.140   4.073  14.636 -0.2992  0.1212  0.5598
 2363TIP3    H128504   1.107   3.988  14.664 -2.1314  1.2068  1.8861
 2363TIP3    H228505   1.231   4.073  14.665  0.6692 -2.4130 -1.9782
 2364TIP3   OH228506   5.320   5.737   2.825 -0.3470  0.2240 -0.4419
 2364TIP3    H128507   5.281   5.674   2.764 -0.6586  0.4165 -0.4455
 2364TIP3    H228508   5.413   5.717   2.824 -0.1185  1.1813 -2.1177
 2365TIP3   OH228509   5.871   4.657   3.158 -0.1529  0.4556 -0.1779
 2365TIP3    H128510   5.817   4.670   3.080  0.1715  0.5750 -0.3861
 2365TIP3    H228511   5.821   4.597   3.213  1.3206 -2.9378 -2.2055
 2366TIP3   OH228512   5.615   4.582  14.203 -0.4696 -0.1057  0.3228
 2366TIP3    H128513   5.704   4.548  14.213 -0.0601  0.2952 -1.5224
 2366TIP3    H228514   5.626   4.677  14.198 -0.9974 -0.0551  0.0125
 2367TIP3   OH228515   1.256   4.727   5.632  0.0900 -0.7244 -0.8338
 2367TIP3    H128516   1.271   4.674   5.553  0.0165 -0.5264 -0.9824
 2367TIP3    H228517   1.242   4.815   5.598  0.2747 -0.5987 -0.5842
 2368TIP3   OH228518   5.625   3.013   2.504  0.3382  0.4633 -0.1535
 2368TIP3    H128519   5.585   3.027   2.418  0.6908  0.6408 -0.2916
 2368TIP3    H228520   5.593   3.086   2.557 -1.9002 -0.9729  0.6230
 2369TIP3   OH228521   5.348   3.357   2.622 -0.0687 -0.0503 -0.7202
 2369TIP3    H128522   5.291   3.394   2.690  0.3061  0.5083 -0.7005
 2369TIP3    H228523   5.353   3.426   2.556  1.0177  0.1270 -0.4658
 2370TIP3   OH228524   1.028   3.917   1.686  0.2105 -0.4476  0.4976
 2370TIP3    H128525   1.015   3.827   1.656  1.1384 -1.6810  3.4323
 2370TIP3    H228526   1.094   3.953   1.627 -1.1049 -1.1741 -1.5361
 2371TIP3   OH228527   6.008   2.634  17.051  0.0586 -0.5475 -0.2300
 2371TIP3    H128528   5.942   2.697  17.023 -1.0503 -1.0848  1.0445
 2371TIP3    H228529   5.987   2.554  17.004  0.8103 -0.2765 -1.0416
 2372TIP3   OH228530   6.339   3.022  12.545  0.1420  0.4416 -0.0027
 2372TIP3    H128531   6.304   2.966  12.475  1.3646 -0.2316 -0.1071
 2372TIP3    H228532   6.423   3.052  12.510  1.6568 -1.3578  1.8323
 2373TIP3   OH228533   6.584   5.699   0.542  0.4955 -0.9220 -0.2197
 2373TIP3    H128534   6.619   5.610   0.538 -1.2282 -1.6018 -1.5401
 2373TIP3    H228535   6.540   5.710   0.458  1.7045  1.6622 -0.6045
 2374TIP3   OH228536   6.716   2.617  16.956  0.1705  0.5103 -0.0307
 2374TIP3    H128537   6.744   2.704  16.984  1.0211  0.0499  0.5708
 2374TIP3    H228538   6.721   2.619  16.860  0.6396  0.9751  0.0039
 2375TIP3   OH228539   4.896   6.255  11.755 -0.0225 -0.5130  0.1698
 2375TIP3    H128540   4.973   6.207  11.727  0.3792 -0.7482  1.6225
 2375TIP3    H228541   4.906   6.265  11.850 -0.8619  1.0608  0.1391
 2376TIP3   OH228542   1.548   3.892  15.211  0.4266  0.0300 -0.3753
 2376TIP3    H128543   1.467   3.942  15.221 -0.6067 -0.6222 -4.1041
 2376TIP3    H228544   1.520   3.803  15.192  2.0829 -0.5110 -0.4841
 2377TIP3   OH228545   2.314   3.037  11.934  0.5658 -0.2675 -0.0915
 2377TIP3    H128546   2.364   3.054  11.854  1.0727  0.0508  0.2863
 2377TIP3    H228547   2.377   3.051  12.004 -0.2889  1.0805  0.4455
 2378TIP3   OH228548   3.868   1.168  12.915  0.4020 -0.4588 -0.3003
 2378TIP3    H128549   3.812   1.101  12.875  0.5755 -1.0829  0.4870
 2378TIP3    H228550   3.956   1.132  12.909  0.3587 -0.9149  1.2803
 2379TIP3   OH228551   2.401   5.044   1.089 -0.2700  0.0618  0.2598
 2379TIP3    H128552   2.449   4.971   1.051  1.8269  0.6550  1.5999
 2379TIP3    H228553   2.364   5.090   1.013  0.9768 -0.6590 -0.8361
 2380TIP3   OH228554   1.960   1.994   1.789 -0.4953 -0.3064  0.5832
 2380TIP3    H128555   2.017   2.051   1.737 -0.5971 -1.5104 -0.9077
 2380TIP3    H228556   1.941   1.919   1.732  0.3947 -2.3334  2.7902
 2381TIP3   OH228557   1.320   0.839  14.215  0.3720  0.1934  0.4013
 2381TIP3    H128558   1.370   0.815  14.293  0.8882  1.2407  0.4078
 2381TIP3    H228559   1.363   0.793  14.143  0.5051  0.0105  0.5978
 2382TIP3   OH228560   5.927   5.626  14.750  0.6910  0.7799  0.5025
 2382TIP3    H128561   6.016   5.617  14.715  0.6210  1.9402 -0.0358
 2382TIP3    H228562   5.904   5.539  14.781  1.4252  0.0842 -0.8117
 2383TIP3   OH228563   4.506   2.251  13.753 -0.1659  0.2205  0.1702
 2383TIP3    H128564   4.537   2.273  13.841  0.5822 -0.7292  0.1674
 2383TIP3    H228565   4.563   2.301  13.694  0.0525  0.0251  0.2115
 2384TIP3   OH228566   1.798   3.512  12.121 -0.2032  0.3121  0.4225
 2384TIP3    H128567   1.879   3.558  12.099  0.2768 -0.3484  0.7824
 2384TIP3    H228568   1.742   3.579  12.161 -0.0292  0.8827 -0.2854
 2385TIP3   OH228569   2.116   4.229   1.833 -0.2463  0.1005  0.5396
 2385TIP3    H128570   2.036   4.279   1.818 -0.6098 -0.1686  1.5703
 2385TIP3    H228571   2.176   4.292   1.874 -0.3013  0.0043  0.7661
 2386TIP3   OH228572   2.041   4.147  12.447  0.1665 -0.6565  0.2624
 2386TIP3    H128573   2.055   4.225  12.393  0.1492  0.5631  1.9312
 2386TIP3    H228574   2.009   4.081  12.386  0.1501  0.6498 -1.2093
 2387TIP3   OH228575   2.576   3.862  16.974 -0.2402 -0.4298  0.1509
 2387TIP3    H128576   2.643   3.921  16.939  0.2840 -0.1731  1.5148
 2387TIP3    H228577   2.495   3.913  16.971  0.1078  0.1749  0.8146
 2388TIP3   OH228578   2.150   2.480  11.393 -0.2728  0.1193  0.0950
 2388TIP3    H128579   2.151   2.541  11.467  0.0043 -1.5189  1.5131
 2388TIP3    H228580   2.226   2.505  11.341 -0.1954  1.0180  0.6109
 2389TIP3   OH228581   3.013   2.775   0.301  0.0417  0.0309  0.5383
 2389TIP3    H128582   2.991   2.805   0.213  0.6874 -0.7076  0.1079
 2389TIP3    H228583   3.091   2.826   0.324  0.3780 -0.3867  0.3310
 2390TIP3   OH228584   3.819   0.647  15.599  0.1273  0.2584  0.3603
 2390TIP3    H128585   3.726   0.631  15.579 -0.0084  2.9124 -1.6939
 2390TIP3    H228586   3.818   0.726  15.653  1.1998  0.8308 -0.4207
 2391TIP3   OH228587   6.197   4.739  14.528  0.7361  0.6496 -0.1134
 2391TIP3    H128588   6.242   4.758  14.446  0.0805  3.2367  0.0553
 2391TIP3    H228589   6.163   4.650  14.516  1.3826  0.6379 -2.2912
 2392TIP3   OH228590   6.071   5.572   3.570 -0.2012 -0.2901 -0.3993
 2392TIP3    H128591   6.134   5.533   3.510  0.2426 -1.4674  0.7724
 2392TIP3    H228592   5.986   5.540   3.540  0.2301 -3.4285  1.2854
 2393TIP3   OH228593   0.957   3.195   2.231 -0.1254  0.7224 -0.0370
 2393TIP3    H128594   1.009   3.261   2.185  0.1207  0.6899  0.1936
 2393TIP3    H228595   0.910   3.244   2.299 -0.4757  0.7677 -0.3068
 2394TIP3   OH228596   1.859   3.761  10.703  0.3173  0.3955  0.1476
 2394TIP3    H128597   1.766   3.745  10.684  0.1982 -0.0156  1.0180
 2394TIP3    H228598   1.860   3.847  10.745 -0.1971 -1.0889  3.5466
 2395TIP3   OH228599   1.740   0.225  15.490 -0.4880  0.1111 -0.0026
 2395TIP3    H128600   1.667   0.167  15.468  0.7873 -2.4689  1.9483
 2395TIP3    H228601   1.816   0.183  15.449  0.3071  1.0657  0.4677
 2396TIP3   OH228602   5.797   4.841  16.112  0.0399  0.0144  0.3086
 2396TIP3    H128603   5.830   4.781  16.046 -1.7038 -0.4225 -0.2216
 2396TIP3    H228604   5.798   4.790  16.194  0.3559 -0.1010  0.2333
 2397TIP3   OH228605   4.405   0.901  11.294  0.1473  0.2734 -0.8944
 2397TIP3    H128606   4.432   0.951  11.217 -1.1366 -0.1966 -1.6901
 2397TIP3    H228607   4.381   0.815  11.259  0.7552 -0.3697  0.2188
 2398TIP3   OH228608   0.519   0.578   1.105  0.4275  0.4836 -0.0449
 2398TIP3    H128609   0.533   0.599   1.197 -1.5185  0.1702  0.3693
 2398TIP3    H228610   0.566   0.496   1.092  0.8734  0.6251  0.6034
 2399TIP3   OH228611   0.108   4.356  15.389 -0.2685 -0.7156  0.2562
 2399TIP3    H128612   0.166   4.430  15.407 -0.2386 -0.7290  0.2192
 2399TIP3    H228613   0.072   4.375  15.302 -0.4206 -0.6430  0.3353
 2400TIP3   OH228614   1.466   5.440  12.070 -0.5316 -0.6766  0.4496
 2400TIP3    H128615   1.405   5.492  12.017  0.3297  0.2272  0.3007
 2400TIP3    H228616   1.436   5.350  12.061 -1.1389 -0.3860 -0.5785
 2401TIP3   OH228617   2.328   3.819   5.098 -0.1868  0.2662  0.3689
 2401TIP3    H128618   2.304   3.745   5.043  0.5208  0.2364  0.0886
 2401TIP3    H228619   2.422   3.831   5.083 -0.4816  1.8879 -0.4187
 2402TIP3   OH228620   0.483   1.713  12.439  0.3548 -0.2904 -0.3942
 2402TIP3    H128621   0.487   1.764  12.358  0.8227  0.5636  0.1600
 2402TIP3    H228622   0.391   1.689  12.448  0.5781 -2.1388 -2.2324
 2403TIP3   OH228623   5.776   1.614  12.312 -0.0116  0.1316  0.0811
 2403TIP3    H128624   5.771   1.630  12.406 -0.3419  0.4246  0.0164
 2403TIP3    H228625   5.863   1.643  12.287 -0.4950  1.6154  0.0139
 2404TIP3   OH228626   2.092   6.037   4.022  0.8573 -0.4848  0.2886
 2404TIP3    H128627   2.093   6.040   3.926 -1.1907  1.4801  0.2395
 2404TIP3    H228628   2.000   6.022   4.045  1.2253 -0.4170  1.9615
 2405TIP3   OH228629   4.749   1.092  16.770 -0.0461  0.3699  0.3002
 2405TIP3    H128630   4.804   1.034  16.822  0.4175 -0.9895 -1.6026
 2405TIP3    H228631   4.662   1.085  16.810  0.1317 -1.1964  0.4677
 2406TIP3   OH228632   5.640   1.347  15.519 -0.2914  0.0263  0.8040
 2406TIP3    H128633   5.663   1.268  15.469  1.8047  0.4668  0.9932
 2406TIP3    H228634   5.724   1.387  15.539 -1.2329  1.2127  2.5301
 2407TIP3   OH228635   3.959   0.537   5.550 -1.0092 -0.1016  0.1429
 2407TIP3    H128636   3.981   0.581   5.632  0.9275  1.0882 -0.9103
 2407TIP3    H228637   3.987   0.446   5.563  0.0149  0.2549  0.5799
 2408TIP3   OH228638   3.945   6.032  16.450  0.1674  0.1503 -0.3108
 2408TIP3    H128639   3.870   6.054  16.395 -0.7830  0.5866  1.0977
 2408TIP3    H228640   4.010   6.099  16.429 -0.1078  0.2025 -1.0208
 2409TIP3   OH228641   5.061   3.053   2.206 -0.0074 -0.5754 -0.0416
 2409TIP3    H128642   5.062   3.085   2.296 -1.9495  1.9477 -0.7962
 2409TIP3    H228643   5.020   2.966   2.212 -0.5551 -0.2487  1.4456
 2410TIP3   OH228644   0.188   4.501  14.107 -0.4679  0.4688 -0.0908
 2410TIP3    H128645   0.263   4.511  14.165 -1.5309  1.1506  1.2090
 2410TIP3    H228646   0.200   4.414  14.068 -0.0087 -0.2745  1.6034
 2411TIP3   OH228647   5.868   4.165  12.991  0.0481  0.1236  0.7132
 2411TIP3    H128648   5.845   4.093  13.049  0.6063 -0.8940 -0.2901
 2411TIP3    H228649   5.958   4.145  12.963 -0.5917 -0.0244 -1.3575
 2412TIP3   OH228650   0.291   4.874  16.487  0.2262  0.9453  0.2688
 2412TIP3    H128651   0.342   4.955  16.490 -0.6824  1.5376 -0.1608
 2412TIP3    H228652   0.354   4.806  16.513  1.4796  1.5415 -1.0224
 2413TIP3   OH228653   2.895   0.068  14.474 -0.1191  0.3424  0.7543
 2413TIP3    H128654   2.929   0.092  14.387 -0.3705 -1.2935  0.1686
 2413TIP3    H228655   2.902   0.149  14.525 -0.5122  1.5167 -0.9460
 2414TIP3   OH228656   5.702   0.553  16.436  0.2125  0.0241  0.4883
 2414TIP3    H128657   5.704   0.534  16.342  2.4962 -0.9009  0.6633
 2414TIP3    H228658   5.650   0.483  16.474  3.0863 -2.3859  0.3560
 2415TIP3   OH228659   6.617   1.488  16.702  0.0979  0.1752  0.8670
 2415TIP3    H128660   6.652   1.531  16.780 -0.0930  0.0385  1.0290
 2415TIP3    H228661   6.527   1.520  16.696  0.2279  0.4748  0.4896
 2416TIP3   OH228662   0.696   6.060  15.607 -0.4693 -0.5814 -0.3717
 2416TIP3    H128663   0.725   6.103  15.526  1.4627 -1.8315 -0.4021
 2416TIP3    H228664   0.774   6.056  15.661 -1.5937 -0.3311  1.3562
 2417TIP3   OH228665   1.167   3.316   1.865  0.3626 -0.5684 -0.3866
 2417TIP3    H128666   1.166   3.390   1.803  4.2671 -0.7916 -0.9698
 2417TIP3    H228667   1.103   3.255   1.829 -1.5476  1.6535 -1.0006
 2418TIP3   OH228668   5.713   1.334  11.321 -0.1723 -0.2181  0.2390
 2418TIP3    H128669   5.747   1.348  11.233 -0.8496  3.7750  0.4342
 2418TIP3    H228670   5.770   1.266  11.358  2.7646  0.8265 -1.9563
 2419TIP3   OH228671   5.307   2.860  14.551 -0.0488 -0.8389  0.3478
 2419TIP3    H128672   5.363   2.913  14.608  0.7328 -0.5202 -0.6737
 2419TIP3    H228673   5.298   2.777  14.597  0.1530 -0.4204  1.1655
 2420TIP3   OH228674   1.199   5.606   0.814  0.3060 -0.0763 -0.1543
 2420TIP3    H128675   1.239   5.670   0.755 -0.6415  0.9681  0.2982
 2420TIP3    H228676   1.273   5.569   0.863  1.0975 -0.8956 -1.8906
 2421TIP3   OH228677   0.233   4.830   5.972  0.1158  0.0843  0.2887
 2421TIP3    H128678   0.207   4.838   5.880 -1.2345 -2.0896  0.4087
 2421TIP3    H228679   0.176   4.891   6.018 -0.0376  0.2967 -0.1724
 2422TIP3   OH228680   3.455   4.628   2.742  0.2040  0.3117  0.0621
 2422TIP3    H128681   3.467   4.534   2.753  0.4282  0.3878  0.4678
 2422TIP3    H228682   3.393   4.653   2.811 -1.4787  0.1125 -1.2996
 2423TIP3   OH228683   2.876   2.065   2.125  0.1647 -0.5474 -0.3303
 2423TIP3    H128684   2.956   2.056   2.177 -0.6089 -1.1530  0.8023
 2423TIP3    H228685   2.905   2.051   2.035  1.2336 -1.4331  0.1140
 2424TIP3   OH228686   1.140   4.905  14.538 -0.7510 -0.3372  0.1461
 2424TIP3    H128687   1.148   4.817  14.500  1.3897  0.3471 -1.1727
 2424TIP3    H228688   1.230   4.937  14.543 -1.4808  1.7671  0.6535
 2425TIP3   OH228689   3.575   2.053  16.556 -0.5833 -0.3797  0.2697
 2425TIP3    H128690   3.594   2.136  16.600 -1.4845 -1.4448  2.8646
 2425TIP3    H228691   3.628   1.988  16.603 -0.8999 -1.4755 -0.8308
 2426TIP3   OH228692   3.413   0.096   3.201 -0.2204  0.3962  0.1056
 2426TIP3    H128693   3.410   0.149   3.280  1.5774 -0.4660  0.8209
 2426TIP3    H228694   3.428   0.158   3.130  1.1754  0.9485  0.8457
 2427TIP3   OH228695   3.625   0.263   3.269 -0.1968  0.8921 -0.6042
 2427TIP3    H128696   3.709   0.236   3.307 -1.4419 -0.2768  1.4844
 2427TIP3    H228697   3.649   0.301   3.185  2.2714 -1.2029 -0.9959
 2428TIP3   OH228698   5.732   4.903   3.665 -0.0047 -0.0366  0.8045
 2428TIP3    H128699   5.685   4.877   3.585  0.1090 -0.2867  0.8172
 2428TIP3    H228700   5.697   4.846   3.733  1.6478 -1.5732  0.4536
 2429TIP3   OH228701   4.313   1.348  16.629  0.1349 -0.3515 -0.1289
 2429TIP3    H128702   4.403   1.374  16.610  0.5021  0.1430  2.0490
 2429TIP3    H228703   4.295   1.386  16.715 -1.5354 -1.9745  0.2861
 2430TIP3   OH228704   1.588   1.209   0.836 -0.6191  0.2079  0.1034
 2430TIP3    H128705   1.627   1.285   0.793 -1.9626  2.3101  2.3646
 2430TIP3    H228706   1.503   1.240   0.868 -0.2573 -1.5219  3.1521
 2431TIP3   OH228707   5.876   5.100   5.969 -0.0777  0.0135 -0.0559
 2431TIP3    H128708   5.790   5.104   6.010 -1.0196 -2.3954 -1.5475
 2431TIP3    H228709   5.874   5.167   5.901  0.6106  2.3611  2.0732
 2432TIP3   OH228710   6.701   0.121   5.753  0.2436  0.3036 -0.0593
 2432TIP3    H128711   6.783   0.140   5.798 -0.3602  2.3213  0.3007
 2432TIP3    H228712   6.638   0.103   5.823  0.0430  0.2931 -0.2407
 2433TIP3   OH228713   4.526   4.058  14.234 -0.0831  0.7223  0.1727
 2433TIP3    H128714   4.438   4.055  14.272 -0.9744  0.3999 -1.8161
 2433TIP3    H228715   4.529   3.983  14.175  1.8008  0.3235  0.7094
 2434TIP3   OH228716   6.229   6.400   3.490 -0.8720  1.0335 -0.2639
 2434TIP3    H128717   6.232   6.371   3.581  0.8024  1.9733  0.0296
 2434TIP3    H228718   6.216   6.320   3.439  1.4619 -0.0157  0.6351
 2435TIP3   OH228719   5.910   2.999  11.924  0.0737  0.3362  0.8375
 2435TIP3    H128720   5.981   3.051  11.886 -0.4610 -0.0137 -0.7337
 2435TIP3    H228721   5.935   2.908  11.909 -0.7978  0.2119  0.0489
 2436TIP3   OH228722   6.684   4.188   1.157 -0.2965  0.4253  0.2080
 2436TIP3    H128723   6.708   4.232   1.076  0.2455  1.1309  0.7363
 2436TIP3    H228724   6.642   4.107   1.129 -0.9476  1.0917 -0.7777
 2437TIP3   OH228725   1.735   0.885  14.035 -0.1742  0.2142 -0.1070
 2437TIP3    H128726   1.823   0.921  14.024  0.5571 -1.4841 -0.1924
 2437TIP3    H228727   1.709   0.910  14.124  0.8199 -0.0915  0.2813
 2438TIP3   OH228728   3.125   5.388  12.936 -0.3190 -0.4268 -0.1855
 2438TIP3    H128729   3.174   5.388  12.854 -1.1585  0.2528 -0.7033
 2438TIP3    H228730   3.047   5.441  12.918 -1.9435 -2.5445  0.1902
 2439TIP3   OH228731   2.926   2.338  16.312 -0.1912 -0.0292 -0.4837
 2439TIP3    H128732   2.847   2.285  16.321  0.3715 -0.7374  0.6015
 2439TIP3    H228733   2.983   2.308  16.383  1.3266 -0.0195 -1.6321
 2440TIP3   OH228734   3.295   1.200  15.737 -0.0112  0.3341 -0.2380
 2440TIP3    H128735   3.377   1.246  15.719  0.8960 -0.9117  0.5404
 2440TIP3    H228736   3.254   1.250  15.806 -0.4043  1.5159 -1.2832
 2441TIP3   OH228737   2.187   5.026   0.625  0.1069 -0.0480 -0.6001
 2441TIP3    H128738   2.141   4.943   0.618 -2.4665  1.3411 -1.4658
 2441TIP3    H228739   2.279   5.005   0.608  0.2349 -3.2602  2.8978
 2442TIP3   OH228740   0.281   2.817   5.619 -0.4310 -0.0873 -0.3875
 2442TIP3    H128741   0.186   2.808   5.608 -0.9254  1.7127  1.7005
 2442TIP3    H228742   0.297   2.911   5.613  1.4951 -0.4569 -2.1835
 2443TIP3   OH228743   4.439   1.043   1.990  0.3296  0.1133 -0.0343
 2443TIP3    H128744   4.383   1.057   1.913  1.3903 -2.3606 -1.3982
 2443TIP3    H228745   4.424   1.119   2.045 -1.0240  1.6605 -2.3658
 2444TIP3   OH228746   1.639   5.127  13.036 -0.3085  0.1422  0.2428
 2444TIP3    H128747   1.615   5.216  13.063 -1.0255  0.3494 -1.0001
 2444TIP3    H228748   1.584   5.110  12.960 -0.2570 -1.4237  0.5359
 2445TIP3   OH228749   3.506   1.001   0.140  0.6291  0.5623 -0.2668
 2445TIP3    H128750   3.524   0.958   0.224  1.1429  1.0357 -0.1291
 2445TIP3    H228751   3.411   1.012   0.139  0.4784 -0.5674 -0.3013
 2446TIP3   OH228752   5.300   4.927  11.209  0.0720 -0.7109 -0.1093
 2446TIP3    H128753   5.297   4.839  11.246  0.7423 -0.7888 -0.2252
 2446TIP3    H228754   5.371   4.924  11.145  0.7530  0.1611  0.5767
 2447TIP3   OH228755   3.702   3.529   1.480 -0.1335 -0.0672 -0.1638
 2447TIP3    H128756   3.756   3.451   1.493 -0.8994 -0.5144  0.3784
 2447TIP3    H228757   3.689   3.534   1.385 -1.3257 -1.4718 -0.1005
 2448TIP3   OH228758   6.593   2.990   1.636  0.4212  0.4257 -0.0828
 2448TIP3    H128759   6.641   3.022   1.712  0.1667 -0.6591  0.5588
 2448TIP3    H228760   6.659   2.977   1.569  1.0083 -0.8731  0.7278
 2449TIP3   OH228761   3.978   0.579  16.618 -0.2194 -0.6964  1.0039
 2449TIP3    H128762   3.916   0.507  16.606 -0.5712 -0.2744  0.2537
 2449TIP3    H228763   3.947   0.648  16.560  1.0892 -0.5633  0.4254
 2450TIP3   OH228764   3.203   2.444   6.821  0.1787  0.3202 -0.0451
 2450TIP3    H128765   3.220   2.509   6.889 -0.8574 -1.1822  1.7580
 2450TIP3    H228766   3.270   2.377   6.835  1.1375  0.8595 -1.7763
 2451TIP3   OH228767   0.127   4.382   3.444  0.0050 -0.4064  0.1593
 2451TIP3    H128768   0.049   4.347   3.399 -0.2089 -0.6380  0.7020
 2451TIP3    H228769   0.170   4.437   3.378  1.3957 -3.1343 -1.3829
 2452TIP3   OH228770   4.344   4.191   0.485 -0.4595 -0.4829 -0.6996
 2452TIP3    H128771   4.266   4.148   0.450 -0.0940  0.1527 -2.3921
 2452TIP3    H228772   4.369   4.137   0.560 -0.2253 -3.0661 -2.4750
 2453TIP3   OH228773   6.433   3.693  12.547  0.2462 -0.5007 -0.4709
 2453TIP3    H128774   6.513   3.742  12.525 -0.9835  1.8473 -0.0687
 2453TIP3    H228775   6.370   3.720  12.480 -0.3505 -2.0212 -0.5557
 2454TIP3   OH228776   5.599   2.079  13.572 -0.3291  0.5093  0.1544
 2454TIP3    H128777   5.684   2.100  13.535 -0.6178  0.2443 -0.6758
 2454TIP3    H228778   5.603   2.112  13.662  1.4447 -1.4571  0.8849
 2455TIP3   OH228779   3.298   5.733  11.824 -0.0047 -0.1685  0.3866
 2455TIP3    H128780   3.213   5.730  11.780 -0.2258 -0.6361  0.8280
 2455TIP3    H228781   3.316   5.826  11.834 -1.8638  0.0495  2.8760
 2456TIP3   OH228782   3.227   6.488  15.896  0.0446  0.0104 -0.0010
 2456TIP3    H128783   3.258   6.398  15.887  0.0295 -0.0619  0.5972
 2456TIP3    H228784   3.280   6.524  15.967  0.8389  0.8339 -0.9694
 2457TIP3   OH228785   2.716   0.148  13.756 -0.3320 -0.7735  0.3499
 2457TIP3    H128786   2.687   0.057  13.757 -1.3818 -0.5218 -1.7267
 2457TIP3    H228787   2.769   0.157  13.835  0.6830 -3.4451  0.0771
 2458TIP3   OH228788   6.101   0.990   3.974  0.0979  0.1120 -0.0808
 2458TIP3    H128789   6.135   1.065   4.022 -1.2033  2.0192 -1.9846
 2458TIP3    H228790   6.153   0.987   3.893 -0.7895 -0.1526 -0.6576
 2459TIP3   OH228791   4.564   6.345   1.652 -0.1358  0.2440  0.3305
 2459TIP3    H128792   4.521   6.403   1.589  0.2129  1.0685  0.8365
 2459TIP3    H228793   4.497   6.329   1.719 -0.8514 -1.4497 -0.7102
 2460TIP3   OH228794   3.663   6.420   2.181 -0.7266 -0.4800 -0.5529
 2460TIP3    H128795   3.679   6.514   2.172 -0.6652 -0.3978  0.3195
 2460TIP3    H228796   3.671   6.403   2.275  3.8389 -2.1481 -0.9932
 2461TIP3   OH228797   1.508   2.257   1.662  0.2295 -0.4494  0.0107
 2461TIP3    H128798   1.577   2.199   1.693 -0.3017 -0.7737  0.6371
 2461TIP3    H228799   1.486   2.310   1.739  0.3215  0.1905 -0.3998
 2462TIP3   OH228800   1.081   2.763   2.115 -0.1920 -0.8839 -0.3182
 2462TIP3    H128801   1.128   2.846   2.108 -0.9071 -0.5690 -1.6569
 2462TIP3    H228802   1.003   2.784   2.167  0.2368 -1.0222  0.4071
 2463TIP3   OH228803   5.085   2.374   4.986  0.5536 -0.6120  0.3259
 2463TIP3    H128804   5.035   2.294   5.006  2.8511 -1.9783  0.9265
 2463TIP3    H228805   5.124   2.357   4.901 -0.1469  0.5476 -0.2461
 2464TIP3   OH228806   0.354   2.057   2.568  0.2121  0.0605 -0.0884
 2464TIP3    H128807   0.437   2.105   2.567  0.1681  0.1312 -1.1875
 2464TIP3    H228808   0.314   2.081   2.652 -0.0825  2.4295 -0.8217
 2465TIP3   OH228809   5.006   0.006  14.737 -0.9825 -0.0707 -0.6515
 2465TIP3    H128810   4.953   0.004  14.657 -0.4519 -0.0552 -1.0031
 2465TIP3    H228811   5.090  -0.032  14.712 -0.6465  0.3785 -0.2233
 2466TIP3   OH228812   0.410   0.975   4.266  0.0069  0.5944  0.0582
 2466TIP3    H128813   0.428   0.909   4.333 -2.1555  0.2456  0.3730
 2466TIP3    H228814   0.315   0.969   4.251 -0.2463  3.4665 -0.0642
 2467TIP3   OH228815   2.872   3.454  15.763 -0.4736 -0.0458 -0.2412
 2467TIP3    H128816   2.958   3.426  15.795  0.2727  1.4039 -0.9146
 2467TIP3    H228817   2.850   3.530  15.817 -1.8894 -1.0932  0.7086
 2468TIP3   OH228818   2.902   4.649   3.358 -0.1703  0.3765 -0.2702
 2468TIP3    H128819   2.810   4.676   3.363 -0.0885  0.5737  0.2918
 2468TIP3    H228820   2.935   4.693   3.280 -0.6141  0.1083 -0.6169
 2469TIP3   OH228821   2.607   2.578  11.228 -0.3804 -0.1732  0.7173
 2469TIP3    H128822   2.647   2.659  11.261 -1.4388  0.0266  1.5853
 2469TIP3    H228823   2.642   2.510  11.285  0.3114 -0.2983  0.1506
 2470TIP3   OH228824   5.014   4.143  13.690  0.0302 -0.2979  1.0956
 2470TIP3    H128825   5.055   4.228  13.703  0.3159 -0.2128 -0.2547
 2470TIP3    H228826   5.016   4.102  13.777  0.6865  0.7074  1.5723
 2471TIP3   OH228827   5.232   3.508   4.173  0.4475  0.4057 -0.0425
 2471TIP3    H128828   5.302   3.445   4.189 -1.5767 -1.5468  1.7130
 2471TIP3    H228829   5.232   3.565   4.250  1.5160  1.9399 -1.0999
 2472TIP3   OH228830   1.336   2.305  13.790 -0.3969 -0.7802  0.3052
 2472TIP3    H128831   1.308   2.326  13.700  1.6102 -1.0833 -0.4535
 2472TIP3    H228832   1.427   2.275  13.780  0.4097  0.6141  2.6071
 2473TIP3   OH228833   2.960   6.674   5.851  0.5319  0.6691  0.0632
 2473TIP3    H128834   2.973   6.767   5.834  0.6338  0.4448 -1.1545
 2473TIP3    H228835   2.998   6.630   5.775 -0.1449 -0.3342  0.2886
 2474TIP3   OH228836   4.315   0.049  14.139 -0.1525 -0.0678  0.2936
 2474TIP3    H128837   4.314   0.107  14.063 -1.4071  0.1032  0.4055
 2474TIP3    H228838   4.222   0.031  14.156  0.1655 -3.2192 -0.5882
 2475TIP3   OH228839   2.746   4.835  14.177  0.3421 -0.0016 -0.5713
 2475TIP3    H128840   2.792   4.916  14.153 -0.1868 -0.3598 -3.1416
 2475TIP3    H228841   2.661   4.843  14.134 -0.6275 -0.9251  1.1144
 2476TIP3   OH228842   3.704   1.847   2.633  0.5091  0.4708  0.0141
 2476TIP3    H128843   3.797   1.865   2.642  0.2881  1.0906  1.3334
 2476TIP3    H228844   3.679   1.887   2.550  1.3718  0.5024 -0.2346
 2477TIP3   OH228845   5.897   3.504  15.154  0.3057 -0.6789  0.0515
 2477TIP3    H128846   5.946   3.576  15.194  0.4187  0.2795 -1.7145
 2477TIP3    H228847   5.951   3.427  15.170  0.5884 -0.2634  1.2665
 2478TIP3   OH228848   0.689   5.600  12.201 -0.0332 -0.3155 -0.4183
 2478TIP3    H128849   0.731   5.536  12.143 -1.2096 -0.4938 -1.1161
 2478TIP3    H228850   0.697   5.683  12.155  2.8018  0.3924  1.1579
 2479TIP3   OH228851   0.378   5.370  12.042 -0.4454  0.1389 -0.1136
 2479TIP3    H128852   0.396   5.463  12.050 -1.1873  0.2266  0.7044
 2479TIP3    H228853   0.284   5.363  12.055 -0.3213 -0.7772  0.3635
 2480TIP3   OH228854   4.048   0.225   1.952 -0.1280 -0.0543 -0.1827
 2480TIP3    H128855   4.112   0.282   1.995 -0.2902 -1.2141  1.7224
 2480TIP3    H228856   4.086   0.206   1.866  1.2563  0.6523  0.2446
 2481TIP3   OH228857   3.724   5.428   5.759 -0.2881  0.7939 -0.7322
 2481TIP3    H128858   3.732   5.523   5.767 -2.5996  0.9257  1.6493
 2481TIP3    H228859   3.694   5.399   5.845  0.9137 -2.2090 -1.2030
 2482TIP3   OH228860   2.669   0.316  12.746 -0.7531 -0.1073 -0.6592
 2482TIP3    H128861   2.666   0.224  12.722 -0.4556 -0.4974  0.7267
 2482TIP3    H228862   2.763   0.335  12.758 -0.9562 -0.5339  2.2543
 2483TIP3   OH228863   1.009   5.926  11.567  0.3323  0.2363 -0.0354
 2483TIP3    H128864   0.933   5.914  11.510 -0.1823  0.0533  0.6783
 2483TIP3    H228865   1.075   5.866  11.532 -0.0868 -0.1028 -0.2461
 2484TIP3   OH228866   2.404   4.853  11.747  0.3929  0.0398  0.5689
 2484TIP3    H128867   2.472   4.914  11.716  0.9745 -1.2814 -0.9190
 2484TIP3    H228868   2.337   4.855  11.678 -1.3674  1.6625  2.2289
 2485TIP3   OH228869   5.370   3.398  14.527 -0.5563 -0.2911  0.5438
 2485TIP3    H128870   5.315   3.466  14.566  2.1161  1.2172  1.9210
 2485TIP3    H228871   5.327   3.378  14.443 -1.3674  3.2789 -0.0521
 2486TIP3   OH228872   1.056   5.313   2.254 -0.4918 -0.2608 -0.1847
 2486TIP3    H128873   1.077   5.405   2.238 -0.6111 -0.3755 -1.0276
 2486TIP3    H228874   1.062   5.303   2.349 -0.3537  0.5859 -0.1016
 2487TIP3   OH228875   4.600   1.173   5.062  0.8369 -0.1582 -0.6704
 2487TIP3    H128876   4.540   1.141   5.130 -0.0312  0.9574 -0.8752
 2487TIP3    H228877   4.675   1.207   5.111  0.0506  0.9863 -0.2129
 2488TIP3   OH228878   1.700   4.377   3.456  0.2328  0.0758  0.5424
 2488TIP3    H128879   1.759   4.351   3.385  0.4164 -0.8347  1.0058
 2488TIP3    H228880   1.687   4.296   3.507 -0.2491  0.6061  1.2853
 2489TIP3   OH228881   1.962   4.519  17.175 -0.5049 -0.0322  0.0363
 2489TIP3    H128882   2.056   4.535  17.180 -0.9207  2.5654  1.0770
 2489TIP3    H228883   1.929   4.541  17.262 -2.2410  0.4297 -0.6855
 2490TIP3   OH228884   3.177   3.301   4.701  0.2434 -0.2314  0.0322
 2490TIP3    H128885   3.103   3.361   4.711 -1.3446 -2.1635  0.6991
 2490TIP3    H228886   3.140   3.225   4.657  2.2901 -0.5869 -1.2009
 2491TIP3   OH228887   4.198   0.771   2.310  0.8478 -0.0166 -0.2105
 2491TIP3    H128888   4.268   0.831   2.283  1.6460 -0.3794  1.0036
 2491TIP3    H228889   4.226   0.686   2.277  0.9983 -0.1673  0.2996
 2492TIP3   OH228890   3.205   4.445  12.295  0.2005  0.1451 -0.2711
 2492TIP3    H128891   3.229   4.358  12.328  1.3851  0.0799 -1.2373
 2492TIP3    H228892   3.242   4.448  12.207 -0.6230  1.2961 -0.5995
 2493TIP3   OH228893   2.773   2.756  11.356  0.1000 -0.0789  0.0378
 2493TIP3    H128894   2.829   2.699  11.409 -0.4365  0.1271  0.8488
 2493TIP3    H228895   2.746   2.826  11.416  2.2567  2.1500 -1.4030
 2494TIP3   OH228896   4.544   2.521   2.703  0.5829  0.0905  0.0793
 2494TIP3    H128897   4.516   2.435   2.734  1.3571 -0.1383  0.1777
 2494TIP3    H228898   4.535   2.517   2.608  3.5938 -1.2605 -0.2491
 2495TIP3   OH228899   3.653   2.574  17.374 -0.1602  0.6748  0.1922
 2495TIP3    H128900   3.668   2.544  17.464  0.2206  2.4072  0.7294
 2495TIP3    H228901   3.725   2.536  17.324 -0.3017 -0.1966  0.6313
 2496TIP3   OH228902   0.712   4.456   5.638  0.3814 -0.0530  0.3967
 2496TIP3    H128903   0.698   4.497   5.723  0.9602 -1.1871  1.0695
 2496TIP3    H228904   0.769   4.517   5.591 -0.5398  0.9279  0.5362
 2497TIP3   OH228905   3.384   4.521   0.690  0.1700 -0.1832 -0.0520
 2497TIP3    H128906   3.346   4.434   0.686  2.3955 -1.2088 -0.2590
 2497TIP3    H228907   3.345   4.562   0.767  1.3882 -2.5301  1.9157
 2498TIP3   OH228908   0.934   0.035  15.641  0.1526  0.1350  0.8768
 2498TIP3    H128909   0.867   0.016  15.576 -0.0477  0.0320  1.1108
 2498TIP3    H228910   0.969  -0.051  15.665  2.1401  0.3044 -1.0698
 2499TIP3   OH228911   4.135   5.420  16.068 -0.3684 -0.3326  0.3365
 2499TIP3    H128912   4.055   5.460  16.034 -0.8867 -1.0450  0.6847
 2499TIP3    H228913   4.105   5.364  16.140  0.6144  0.5801  1.5026
 2500TIP3   OH228914   6.029   5.416  12.508  0.0650  0.1214 -0.6025
 2500TIP3    H128915   6.067   5.477  12.445 -1.0726  0.7886 -0.6776
 2500TIP3    H228916   6.083   5.426  12.587 -0.5920  1.9027 -0.3239
 2501TIP3   OH228917   1.991   0.396   4.638 -0.0081 -0.3127  0.0071
 2501TIP3    H128918   1.938   0.445   4.575 -1.0073  0.4155  1.3858
 2501TIP3    H228919   1.995   0.451   4.716  1.1316 -1.2363  0.6503
 2502TIP3   OH228920   1.102   3.715  11.948 -0.0690  0.3273 -0.1292
 2502TIP3    H128921   1.100   3.723  11.853  1.3157 -2.7214 -0.5484
 2502TIP3    H228922   1.178   3.767  11.975  0.1172  0.4204 -0.8188
 2503TIP3   OH228923   2.211   0.341   4.259  0.1376 -0.5971 -0.2299
 2503TIP3    H128924   2.289   0.290   4.278 -0.4698 -1.8834 -1.0465
 2503TIP3    H228925   2.152   0.280   4.214 -1.2132  0.4207  0.0789
 2504TIP3   OH228926   2.825   0.408  16.088 -0.7040 -0.2070  0.1316
 2504TIP3    H128927   2.765   0.363  16.028 -0.9758 -2.7583  2.1393
 2504TIP3    H228928   2.902   0.350  16.092 -0.7814 -0.2245  2.3297
 2505TIP3   OH228929   2.374   0.154   0.475 -0.4284 -0.3697  0.1033
 2505TIP3    H128930   2.312   0.192   0.412  0.0492 -0.8980 -0.7011
 2505TIP3    H228931   2.433   0.101   0.422  0.4436 -0.2394  0.9162
 2506TIP3   OH228932   1.375   3.312  14.245  0.4275 -0.2110 -0.3164
 2506TIP3    H128933   1.309   3.378  14.227 -1.5185 -2.2794 -1.1850
 2506TIP3    H228934   1.374   3.303  14.340 -2.4789 -1.9527 -0.4037
 2507TIP3   OH228935   5.738   1.182   3.653  0.4600 -0.4286 -0.6056
 2507TIP3    H128936   5.801   1.119   3.688 -1.1711 -1.3265  0.8577
 2507TIP3    H228937   5.745   1.258   3.711  2.3961  0.8124 -2.3448
 2508TIP3   OH228938   1.750   0.350   4.256  0.3755 -0.0644 -0.2898
 2508TIP3    H128939   1.807   0.277   4.231 -0.1471 -0.3914 -0.5365
 2508TIP3    H228940   1.714   0.326   4.341 -0.6759 -0.6263 -0.8742
 2509TIP3   OH228941   4.379   3.578   4.281  0.0935 -0.0019 -0.1922
 2509TIP3    H128942   4.395   3.494   4.325  0.3820 -0.1673 -0.6109
 2509TIP3    H228943   4.413   3.566   4.193  3.2292  1.5994  0.6205
 2510TIP3   OH228944   3.586   5.465  14.541  0.0644  0.0183  0.4670
 2510TIP3    H128945   3.680   5.447  14.531 -0.0570 -0.1629 -0.4655
 2510TIP3    H228946   3.582   5.558  14.564  0.3884  0.8374 -2.3452
 2511TIP3   OH228947   2.289   1.050   6.208  0.2802  0.3670 -0.1203
 2511TIP3    H128948   2.350   1.031   6.279  1.3227 -0.8414 -1.2792
 2511TIP3    H228949   2.215   1.093   6.250  1.4613  0.9006  1.4830
 2512TIP3   OH228950   0.467   0.883   2.230  0.2557  0.0969 -0.0284
 2512TIP3    H128951   0.409   0.890   2.155  0.2734  2.2846  0.0926
 2512TIP3    H228952   0.434   0.948   2.292  1.5358 -0.1524  0.9628
 2513TIP3   OH228953   1.462   5.492   5.699  0.0946 -0.0712 -0.1404
 2513TIP3    H128954   1.472   5.462   5.789 -0.2174 -3.1228 -1.0290
 2513TIP3    H228955   1.387   5.552   5.703 -0.9684 -1.4204  1.3847
 2514TIP3   OH228956   5.394   4.280   5.423  0.4374 -0.1901  0.1711
 2514TIP3    H128957   5.324   4.245   5.478  2.0547 -2.2925  1.0820
 2514TIP3    H228958   5.350   4.316   5.347 -1.6873 -0.3035  1.2669
 2515TIP3   OH228959   4.215   2.508  14.932  0.0622 -0.3498 -0.2424
 2515TIP3    H128960   4.294   2.562  14.927  0.9635 -1.5493  0.5903
 2515TIP3    H228961   4.239   2.435  14.990 -2.1367  0.0525  1.2691
 2516TIP3   OH228962   3.643   3.023   3.551 -0.4017 -0.1365  0.4425
 2516TIP3    H128963   3.619   2.965   3.623  0.1809 -0.0774  0.6898
 2516TIP3    H228964   3.733   3.049   3.570 -0.4629  0.3942  0.0327
 2517TIP3   OH228965   4.192   2.175  16.092 -0.1347 -0.1047  0.6481
 2517TIP3    H128966   4.188   2.265  16.125  0.8343 -0.2211  1.1192
 2517TIP3    H228967   4.147   2.122  16.158  1.0733 -0.2271  1.3874
 2518TIP3   OH228968   0.093   4.953   1.538  0.4482  0.6234  0.3717
 2518TIP3    H128969   0.177   4.916   1.511 -0.0661  0.4905 -1.1380
 2518TIP3    H228970   0.058   4.994   1.459 -1.8346 -1.0592  0.4227
 2519TIP3   OH228971   4.797   6.488   0.587 -0.4145 -0.4040 -0.0239
 2519TIP3    H128972   4.718   6.541   0.579 -0.0430 -0.0425 -1.6871
 2519TIP3    H228973   4.770   6.400   0.559 -0.2459 -0.2781 -0.6024
 2520TIP3   OH228974   3.301   0.321   3.363 -0.1653  0.3401 -0.1151
 2520TIP3    H128975   3.301   0.352   3.273 -2.0904  1.2392  0.1369
 2520TIP3    H228976   3.369   0.372   3.407  2.2646 -1.5454 -1.4288
 2521TIP3   OH228977   1.809   1.853  13.918 -0.0637 -0.4661  0.1487
 2521TIP3    H128978   1.817   1.868  13.823  1.3968  1.0888  0.4611
 2521TIP3    H228979   1.895   1.876  13.953 -0.7217 -0.5560  1.9349
 2522TIP3   OH228980   1.269   6.671   3.681 -0.2179  0.3849  0.2111
 2522TIP3    H128981   1.217   6.748   3.660 -0.2210  0.4377  0.4056
 2522TIP3    H228982   1.223   6.631   3.755  1.1239  1.5686  1.7533
 2523TIP3   OH228983   5.593   3.698   1.511  0.8702 -0.3060 -0.2041
 2523TIP3    H128984   5.687   3.685   1.523  1.3253  2.6640  0.1171
 2523TIP3    H228985   5.584   3.791   1.491 -2.1208 -0.2535  0.9409
 2524TIP3   OH228986   3.527   5.122   0.088  0.3697  0.8154  0.1969
 2524TIP3    H128987   3.472   5.200   0.091 -0.4605  0.2439  0.3060
 2524TIP3    H228988   3.606   5.150   0.042 -0.0900  1.6031 -0.1355
 2525TIP3   OH228989   4.445   5.515   5.111  0.2562 -0.3409  0.0622
 2525TIP3    H128990   4.350   5.501   5.111 -0.1110  1.1339 -2.9950
 2525TIP3    H228991   4.464   5.557   5.194 -2.0515  0.6608  0.1529
 2526TIP3   OH228992   0.724   6.565  10.958 -0.5620 -0.0547  0.0578
 2526TIP3    H128993   0.657   6.499  10.977 -0.9110 -0.1682 -1.4756
 2526TIP3    H228994   0.735   6.562  10.863  0.7257  0.8425  0.1483
 2527TIP3   OH228995   0.838   3.140  16.212 -0.2479  0.3476  0.4598
 2527TIP3    H128996   0.866   3.112  16.298  0.9126  1.5348  0.5027
 2527TIP3    H228997   0.899   3.098  16.151  0.5395  1.4944  0.4220
 2528TIP3   OH228998   0.347   3.085   6.413  0.4054  0.5370  0.9109
 2528TIP3    H128999   0.353   3.110   6.505  4.3228  2.1775  0.4164
 2528TIP3    H229000   0.331   3.167   6.367  1.1399  0.1780 -0.0085
 2529TIP3   OH229001   4.048   5.587   1.265 -0.3140 -0.7091 -0.5546
 2529TIP3    H129002   4.089   5.646   1.203 -1.1868  1.0557  0.4696
 2529TIP3    H229003   3.972   5.635   1.298 -0.2342 -1.8064  1.4120
 2530TIP3   OH229004   2.503   4.078  11.488 -0.2983  0.2351  0.1441
 2530TIP3    H129005   2.541   4.003  11.442  0.0332  1.2596 -1.3294
 2530TIP3    H229006   2.577   4.117  11.535 -0.0652  0.6588 -0.5488
 2531TIP3   OH229007   4.252   2.612   2.495  0.0570  0.5308 -0.1905
 2531TIP3    H129008   4.178   2.592   2.438  0.2191 -0.9387  0.0830
 2531TIP3    H229009   4.228   2.576   2.581  1.1734 -0.2026 -0.1579
 2532TIP3   OH229010   1.906   1.886   2.840  0.4324  0.2123 -0.7327
 2532TIP3    H129011   1.853   1.879   2.761 -2.5965 -3.3739  1.2952
 2532TIP3    H229012   1.905   1.798   2.878  0.3028  1.9747  4.0517
 2533TIP3   OH229013   5.124   3.857  12.761 -0.3168 -0.0080 -0.0332
 2533TIP3    H129014   5.183   3.902  12.701 -1.1573  0.3166 -0.6238
 2533TIP3    H229015   5.169   3.861  12.846 -0.2202  1.6311 -0.1358
 2534TIP3   OH229016   0.679   4.542  12.045 -0.5851 -0.2491  0.0707
 2534TIP3    H129017   0.747   4.570  12.106 -0.0971 -0.2732 -0.4536
 2534TIP3    H229018   0.630   4.476  12.094 -0.8206  0.4294  0.7827
 2535TIP3   OH229019   6.230   0.770  13.524  0.3738 -0.7249 -0.0750
 2535TIP3    H129020   6.165   0.759  13.455 -0.4762  0.8762  0.4139
 2535TIP3    H229021   6.186   0.737  13.603 -1.2416  3.1450  0.9078
 2536TIP3   OH229022   2.052   2.866  13.876 -0.1636 -0.2231  0.0324
 2536TIP3    H129023   2.066   2.934  13.811  0.2844 -0.6925 -0.3752
 2536TIP3    H229024   2.141   2.845  13.907 -0.4329  0.7705  1.6150
 2537TIP3   OH229025   6.651   1.766  16.312 -0.1921  0.7206 -0.0200
 2537TIP3    H129026   6.564   1.749  16.277  0.0138  2.3447 -1.4508
 2537TIP3    H229027   6.706   1.697  16.275 -0.9496 -0.8325  1.5687
 2538TIP3   OH229028   0.368   0.168  14.528  0.0573  0.0341 -0.2924
 2538TIP3    H129029   0.300   0.137  14.469  0.6170  0.0807 -0.9680
 2538TIP3    H229030   0.369   0.263  14.515  1.7424 -0.1630 -1.9395
 2539TIP3   OH229031   2.959   5.042  16.385  0.2782 -0.2390 -0.2247
 2539TIP3    H129032   3.011   5.055  16.306  0.9664 -0.9038  0.0991
 2539TIP3    H229033   2.999   5.101  16.450  0.4989 -0.5898 -0.0368
 2540TIP3   OH229034   3.762   4.606   6.550  0.5767 -0.1645  0.5996
 2540TIP3    H129035   3.673   4.621   6.518  1.2603  0.3458 -1.1993
 2540TIP3    H229036   3.780   4.680   6.608  0.0960  0.1302  0.3745
 2541TIP3   OH229037   1.947   0.941   5.726  0.6726  0.4362  0.0611
 2541TIP3    H129038   1.966   0.886   5.802 -0.5196  0.8254  0.6693
 2541TIP3    H229039   2.013   1.010   5.728  2.2830 -1.0055 -0.7898
 2542TIP3   OH229040   5.792   3.251  12.018 -0.2795 -0.8937  0.2626
 2542TIP3    H129041   5.749   3.251  12.103 -1.5074  0.0563 -0.3244
 2542TIP3    H229042   5.820   3.161  12.005  0.2611 -0.9760  1.8190
 2543TIP3   OH229043   6.753   2.867   6.199  0.0947 -0.3100  0.1165
 2543TIP3    H129044   6.772   2.955   6.168  1.3315 -1.5455 -3.0061
 2543TIP3    H229045   6.716   2.822   6.123 -0.6333 -2.4826  1.6489
 2544TIP3   OH229046   4.988   2.140   2.821 -0.2661 -0.5221 -0.3588
 2544TIP3    H129047   5.073   2.181   2.803 -0.2906  1.1614  2.5868
 2544TIP3    H229048   5.009   2.067   2.879 -0.7965  0.2490  0.8535
 2545TIP3   OH229049   5.057   3.017   1.299 -0.0991 -0.3261 -0.6047
 2545TIP3    H129050   5.045   3.015   1.204  3.6429 -0.4912 -1.2165
 2545TIP3    H229051   5.115   3.091   1.315 -0.1772 -0.6359  1.4995
 2546TIP3   OH229052   0.089   5.711   5.233 -0.3745 -0.7020 -0.0171
 2546TIP3    H129053   0.130   5.651   5.170  0.9491  1.1592 -1.0260
 2546TIP3    H229054   0.028   5.656   5.282  1.2930 -3.0422 -0.3623
 2547TIP3   OH229055   3.327   3.309   6.158 -0.9238 -0.0470  0.4185
 2547TIP3    H129056   3.384   3.385   6.142 -0.5214 -0.5540 -0.6672
 2547TIP3    H229057   3.294   3.286   6.071 -0.3313 -1.6527  0.5859
 2548TIP3   OH229058   6.530   0.038  11.887  0.2294  0.2407  0.2205
 2548TIP3    H129059   6.524   0.112  11.826 -0.8849 -0.1910 -0.2199
 2548TIP3    H229060   6.551   0.078  11.971 -0.6310  1.0937  0.0449
 2549TIP3   OH229061   2.587   4.169   2.928 -0.1466 -0.4306 -0.5111
 2549TIP3    H129062   2.606   4.075   2.921 -0.9722 -0.7981  1.4088
 2549TIP3    H229063   2.573   4.183   3.022 -3.5152  0.9162 -1.0834
 2550TIP3   OH229064   0.906   4.508  11.314  0.6173 -0.1931  0.1915
 2550TIP3    H129065   0.869   4.427  11.279 -2.0006  0.6982  0.6256
 2550TIP3    H229066   1.000   4.494  11.312  0.3262 -2.6262 -1.1870
 2551TIP3   OH229067   6.123   2.599   2.615  0.1385  0.8853 -0.1431
 2551TIP3    H129068   6.161   2.666   2.673  1.3523 -0.9597  1.3415
 2551TIP3    H229069   6.192   2.533   2.608 -1.0662 -0.2792 -1.4277
 2552TIP3   OH229070   6.000   5.704   5.787  0.7666  0.6295 -0.0973
 2552TIP3    H129071   5.946   5.754   5.848  0.6036 -0.3013  0.5495
 2552TIP3    H229072   5.946   5.694   5.709  0.5429  0.8931  0.0252
 2553TIP3   OH229073   2.022   4.375   1.413 -0.4417 -0.1301 -0.3330
 2553TIP3    H129074   2.000   4.415   1.329 -0.3256  0.1873 -0.2142
 2553TIP3    H229075   1.939   4.341   1.446 -0.8917  1.4990  0.3426
 2554TIP3   OH229076   5.053   0.481  17.289  0.3443 -0.2016  0.0965
 2554TIP3    H129077   5.103   0.478  17.370  0.1361 -0.4839  0.2185
 2554TIP3    H229078   5.049   0.574  17.266  0.4402 -0.1248  0.3865
 2555TIP3   OH229079   0.176   0.125  15.202  0.4050 -0.3584 -0.1490
 2555TIP3    H129080   0.257   0.147  15.156  0.4178  0.3202  0.1917
 2555TIP3    H229081   0.181   0.174  15.284 -0.2564 -0.4789 -0.0354
 2556TIP3   OH229082   1.854   1.127  16.813 -0.0816 -0.7250  0.9048
 2556TIP3    H129083   1.944   1.126  16.846  0.2216  0.5658  0.1891
 2556TIP3    H229084   1.800   1.112  16.890  0.7618 -2.1652  1.2427
 2557TIP3   OH229085   6.668   6.563  11.761 -0.4701  1.1764  0.5851
 2557TIP3    H129086   6.748   6.601  11.797  0.6707 -0.4209 -0.1238
 2557TIP3    H229087   6.600   6.627  11.781  1.1232  3.0365  0.3844
 2558TIP3   OH229088   5.643   1.504   5.722  0.4994  0.2153  0.0892
 2558TIP3    H129089   5.630   1.411   5.736  0.0910  0.2278 -0.1721
 2558TIP3    H229090   5.583   1.546   5.785  1.3136  0.3193  0.8201
 2559TIP3   OH229091   4.587   2.231  12.731  0.2849 -0.0525  0.0705
 2559TIP3    H129092   4.609   2.140  12.711  1.1565 -0.0156  0.7543
 2559TIP3    H229093   4.562   2.229  12.824  1.0818  0.5096  0.3094
 2560TIP3   OH229094   5.999   2.346   2.837  0.0273 -0.2658 -0.1328
 2560TIP3    H129095   5.992   2.395   2.755 -2.7629 -1.9246 -1.0102
 2560TIP3    H229096   6.003   2.254   2.810  0.6756 -0.7831  1.5716
 2561TIP3   OH229097   4.640   4.156   0.331  0.3612  0.4089 -1.2861
 2561TIP3    H129098   4.684   4.163   0.415  0.8078  2.3609 -1.6410
 2561TIP3    H229099   4.625   4.062   0.319 -0.7244  0.1441  1.4569
 2562TIP3   OH229100   1.284   2.901   5.245  0.0961 -0.3079  0.6338
 2562TIP3    H129101   1.317   2.861   5.326 -0.4095  0.2993  1.1485
 2562TIP3    H229102   1.252   2.827   5.194  0.2804 -0.6863  1.0561
 2563TIP3   OH229103   2.113   3.895   2.559 -0.7744  0.1861 -0.4641
 2563TIP3    H129104   2.128   3.958   2.488 -1.7391 -1.3035 -2.0888
 2563TIP3    H229105   2.191   3.839   2.558 -0.9216 -0.0187 -0.5596
 2564TIP3   OH229106   6.437   4.877   1.195  0.1053 -0.2803 -0.0280
 2564TIP3    H129107   6.455   4.942   1.263 -1.6688  0.0259  0.2004
 2564TIP3    H229108   6.487   4.800   1.221  1.1381  0.5191  0.4556
 2565TIP3   OH229109   3.717   5.076   0.707 -0.4524  0.1520  0.5048
 2565TIP3    H129110   3.645   5.076   0.770 -0.7922  1.0423  0.1372
 2565TIP3    H229111   3.750   4.987   0.708 -0.6865  0.0617  1.6747
 2566TIP3   OH229112   5.402   3.764  10.770 -0.2365 -0.1277 -0.2090
 2566TIP3    H129113   5.475   3.819  10.740 -1.9494  1.1450 -2.3759
 2566TIP3    H229114   5.332   3.825  10.791 -0.8565 -1.3352  1.4991
 2567TIP3   OH229115   6.729   4.153   3.719  0.5546  0.0343  0.2870
 2567TIP3    H129116   6.813   4.152   3.674  1.4475  0.0372  1.8958
 2567TIP3    H229117   6.750   4.175   3.810 -1.1571 -0.1822  0.7754
 2568TIP3   OH229118   6.377   3.284   2.479  0.0682 -0.1205 -0.1464
 2568TIP3    H129119   6.463   3.302   2.516  0.0787  1.0579 -0.6919
 2568TIP3    H229120   6.321   3.353   2.513 -0.1506  0.4042 -1.5103
 2569TIP3   OH229121   0.310   0.642   5.189 -0.3058 -0.3508  0.2626
 2569TIP3    H129122   0.227   0.667   5.229 -1.0925 -1.6355 -0.4978
 2569TIP3    H229123   0.315   0.696   5.110 -1.0456 -1.1653 -0.3524
 2570TIP3   OH229124   4.794   1.673  16.019 -0.2343  0.3994  0.3727
 2570TIP3    H129125   4.760   1.712  16.099  0.2384  0.2563  0.6463
 2570TIP3    H229126   4.875   1.630  16.045 -0.2005  0.1389 -0.1344
 2571TIP3   OH229127   5.969   5.727  11.062 -0.5014 -0.0146  0.4572
 2571TIP3    H129128   5.965   5.674  10.983  0.1065 -0.1738  0.5214
 2571TIP3    H229129   6.037   5.792  11.044 -3.2666  2.7491 -0.7945
 2572TIP3   OH229130   2.147   3.845   5.303  0.3877 -0.0133  0.5603
 2572TIP3    H129131   2.221   3.808   5.256  0.2926  2.3720 -1.7285
 2572TIP3    H229132   2.179   3.928   5.337 -1.4491  1.7890 -1.7326
 2573TIP3   OH229133   3.805   0.686  14.120  0.1894 -0.4151 -0.0129
 2573TIP3    H129134   3.854   0.633  14.058 -0.2942 -0.6230 -0.2247
 2573TIP3    H229135   3.719   0.698  14.079 -0.6984 -1.8717  1.2595
 2574TIP3   OH229136   6.249   4.055   4.895  0.0763  0.2131 -0.5202
 2574TIP3    H129137   6.203   3.972   4.896 -0.5549  0.5380 -1.7160
 2574TIP3    H229138   6.212   4.104   4.969  0.3010 -0.4620  0.0547
 2575TIP3   OH229139   2.969   1.666   3.560 -0.7586 -0.4419  0.2691
 2575TIP3    H129140   3.043   1.714   3.523 -1.0730  0.2299  0.4913
 2575TIP3    H229141   2.895   1.690   3.505 -0.8606 -0.9362  0.1825
 2576TIP3   OH229142   5.147   3.185  13.517 -0.0967 -0.4366 -0.0381
 2576TIP3    H129143   5.198   3.266  13.518 -1.7370  0.6670 -0.9050
 2576TIP3    H229144   5.063   3.210  13.555 -0.1157 -2.1572  1.1873
 2577TIP3   OH229145   2.472   0.965   4.260  0.7355 -0.0301 -0.2865
 2577TIP3    H129146   2.505   0.996   4.345  0.2236  0.8063 -0.3907
 2577TIP3    H229147   2.416   1.035   4.229  0.9937 -0.2961 -1.3751
 2578TIP3   OH229148   5.438   1.355  11.985 -0.0206 -0.8379 -0.2225
 2578TIP3    H129149   5.495   1.365  12.061 -1.2834  0.0924  0.6340
 2578TIP3    H229150   5.353   1.332  12.021 -0.4802 -1.0693 -1.4084
 2579TIP3   OH229151   2.946   4.651   1.972  0.1375 -0.1435  0.1558
 2579TIP3    H129152   2.892   4.572   1.971 -1.5067  0.9333 -0.8416
 2579TIP3    H229153   3.021   4.630   1.916  0.4955 -1.4634  1.0768
 2580TIP3   OH229154   5.569   0.953   5.057  0.5289 -0.6583  0.1379
 2580TIP3    H129155   5.614   0.872   5.082  0.2768 -1.2284 -1.1848
 2580TIP3    H229156   5.480   0.942   5.092 -0.2255 -2.0473 -2.0294
 2581TIP3   OH229157   4.702   5.471   0.944  0.3694  0.5309 -0.0054
 2581TIP3    H129158   4.654   5.425   1.013  2.2524 -2.3217 -0.4433
 2581TIP3    H229159   4.635   5.491   0.878 -0.6982 -0.8342  0.6129
 2582TIP3   OH229160   3.057   3.050   2.916 -0.9382 -0.3984  0.1569
 2582TIP3    H129161   3.130   3.102   2.883  0.5023 -1.0029  2.2096
 2582TIP3    H229162   3.044   2.982   2.850 -1.7375  1.4653 -1.7343
 2583TIP3   OH229163   3.834   3.694   0.601  0.5266 -0.1825 -0.0896
 2583TIP3    H129164   3.761   3.750   0.627  0.8031 -0.4303  1.2992
 2583TIP3    H229165   3.831   3.693   0.505 -1.6227 -0.6354 -0.0575
 2584TIP3   OH229166   3.450   5.672   0.350 -0.4696 -0.1914  0.3850
 2584TIP3    H129167   3.512   5.618   0.400 -0.4165  0.5451  1.1270
 2584TIP3    H229168   3.369   5.668   0.401 -0.7950 -0.4657 -0.1451
 2585TIP3   OH229169   1.578   2.478   2.174 -0.5989 -0.0302 -0.6626
 2585TIP3    H129170   1.495   2.502   2.215  0.5976  2.2765  0.6132
 2585TIP3    H229171   1.637   2.460   2.247  0.9520  1.8286 -1.3766
 2586TIP3   OH229172   1.245   4.721   2.515 -0.4435 -0.1234  0.3065
 2586TIP3    H129173   1.151   4.727   2.500 -0.6191  1.1107  1.7164
 2586TIP3    H229174   1.269   4.632   2.486 -1.9150 -0.2323 -0.6243
 2587TIP3   OH229175   2.252   1.485   6.921 -0.0249  0.4514  0.0444
 2587TIP3    H129176   2.334   1.525   6.892 -0.4129  1.5850  0.4437
 2587TIP3    H229177   2.264   1.391   6.907  1.3734  0.5923  0.1777
 2588TIP3   OH229178   1.127   4.586  15.189  0.0167 -0.7008  0.0772
 2588TIP3    H129179   1.039   4.614  15.216  0.1242 -0.4669  0.1857
 2588TIP3    H229180   1.116   4.559  15.098 -0.0320 -0.0448 -0.1157
 2589TIP3   OH229181   6.069   2.699  12.203  0.2597  0.1307  0.0089
 2589TIP3    H129182   6.068   2.604  12.207 -1.4864  0.1328  0.4175
 2589TIP3    H229183   6.095   2.719  12.113  1.1391 -0.7063  0.0636
 2590TIP3   OH229184   5.628   1.474   6.168  0.0370  0.8809  0.2705
 2590TIP3    H129185   5.695   1.528   6.211 -0.0812  0.6623  0.7279
 2590TIP3    H229186   5.625   1.394   6.220 -0.4558  0.8168  0.1432
 2591TIP3   OH229187   3.997   5.422  14.529  0.1749  0.3221 -0.7404
 2591TIP3    H129188   3.935   5.431  14.602  0.6558  0.9591 -0.3918
 2591TIP3    H229189   4.083   5.433  14.569  0.4610  0.4442 -1.3705
 2592TIP3   OH229190   1.238   5.036  11.109 -0.2299 -0.0199 -0.8206
 2592TIP3    H129191   1.224   5.108  11.047  1.8224 -0.1097 -1.4833
 2592TIP3    H229192   1.313   4.989  11.074  1.3628  0.2165  1.9430
 2593TIP3   OH229193   2.382   1.013  13.151  0.3769  0.0246  0.0366
 2593TIP3    H129194   2.391   0.971  13.236  1.1891  1.2651  0.6013
 2593TIP3    H229195   2.452   1.079  13.150  0.0273  0.3991 -1.3628
 2594TIP3   OH229196   6.233   6.658   0.167  0.1491  0.0502 -0.2119
 2594TIP3    H129197   6.162   6.673   0.104 -0.5880  0.5328  0.7120
 2594TIP3    H229198   6.268   6.746   0.185  3.7504 -0.3816 -3.6779
 2595TIP3   OH229199   0.016   0.814   2.070  0.1657 -0.2152  0.1459
 2595TIP3    H129200   0.029   0.893   2.019 -0.5059  0.1832  0.5753
 2595TIP3    H229201  -0.078   0.797   2.064  0.1174 -0.3093  1.0241
 2596TIP3   OH229202   4.584   2.605  15.336  0.9910  0.1567  0.1211
 2596TIP3    H129203   4.518   2.661  15.377 -0.5205 -1.3252 -0.1799
 2596TIP3    H229204   4.666   2.651  15.350  0.3458  0.5815  3.2721
 2597TIP3   OH229205   6.242   6.417   5.590  0.0931  0.4535 -0.2571
 2597TIP3    H129206   6.272   6.462   5.511  0.2402  0.3376 -0.2672
 2597TIP3    H229207   6.225   6.327   5.561 -1.6573  0.8573 -0.5842
 2598TIP3   OH229208   5.878   6.330   4.325 -0.3204 -0.5302 -0.0816
 2598TIP3    H129209   5.813   6.261   4.339 -0.2764 -0.3998  0.8417
 2598TIP3    H229210   5.923   6.338   4.409 -0.4342  0.7318 -0.1230
 2599TIP3   OH229211   6.628   4.397   6.507  0.3010 -0.2704  0.1263
 2599TIP3    H129212   6.588   4.323   6.554  0.3934 -1.1847 -1.1965
 2599TIP3    H229213   6.683   4.356   6.441  0.1767  0.9963 -0.7835
 2600TIP3   OH229214   1.620   5.352  15.074 -0.4867 -0.0079  0.3203
 2600TIP3    H129215   1.677   5.275  15.076  1.0544  1.0807  0.2355
 2600TIP3    H229216   1.650   5.401  14.997  0.4423  2.0186  1.8759
 2601TIP3   OH229217   6.553   2.673  15.117  0.3003 -0.3750 -0.1002
 2601TIP3    H129218   6.570   2.656  15.025 -2.6154  1.2977 -1.1021
 2601TIP3    H229219   6.579   2.764  15.130  0.8543 -0.6446  0.8216
 2602TIP3   OH229220   0.840   2.302   0.940 -0.1476 -0.1446  0.5047
 2602TIP3    H129221   0.874   2.307   0.851  0.6344 -3.3890  0.5160
 2602TIP3    H229222   0.745   2.300   0.930 -0.0490 -1.8579 -0.4169
 2603TIP3   OH229223   3.053   4.747   5.132 -0.4308 -0.1572 -0.0025
 2603TIP3    H129224   3.138   4.742   5.088 -0.8268 -0.9337 -0.7201
 2603TIP3    H229225   2.998   4.798   5.072 -0.2108  1.1968  0.9224
 2604TIP3   OH229226   0.560   0.644  15.652  0.8295  0.2540  0.4973
 2604TIP3    H129227   0.624   0.609  15.590  0.5849 -2.0815  1.4518
 2604TIP3    H229228   0.590   0.614  15.738 -1.0520 -0.1958  1.0642
 2605TIP3   OH229229   5.922   2.389  13.163  0.0534 -0.2561 -0.3161
 2605TIP3    H129230   5.848   2.440  13.195  0.2832  0.4110 -0.8289
 2605TIP3    H229231   5.884   2.305  13.138 -0.6611  0.3061 -1.1952
 2606TIP3   OH229232   5.297   0.878   4.142 -0.1811 -0.1309  0.1541
 2606TIP3    H129233   5.257   0.802   4.100  1.6229 -0.7462 -0.5232
 2606TIP3    H229234   5.266   0.874   4.232 -1.3669 -0.7587 -0.2570
 2607TIP3   OH229235   6.392   2.303  13.730  0.3730  0.2869 -0.8063
 2607TIP3    H129236   6.435   2.294  13.814 -1.1893 -1.7558 -0.1346
 2607TIP3    H229237   6.445   2.251  13.669  0.2855 -0.0849 -0.5671
 2608TIP3   OH229238   0.322   4.005  14.465 -0.6901  0.3132 -0.1336
 2608TIP3    H129239   0.340   4.040  14.378 -0.1221  2.3455  0.7410
 2608TIP3    H229240   0.408   3.976  14.497 -0.9164 -0.5476 -0.2600
 2609TIP3   OH229241   6.253   2.837   2.691  0.1840  0.3684  0.7321
 2609TIP3    H129242   6.285   2.893   2.620 -0.7433  1.6663  1.2887
 2609TIP3    H229243   6.314   2.853   2.763  1.2668 -1.1314  0.1878
 2610TIP3   OH229244   0.696   1.936  13.968 -0.4282  0.3778  0.0073
 2610TIP3    H129245   0.616   1.951  14.019  0.1021  1.0074  0.6856
 2610TIP3    H229246   0.752   2.010  13.990 -0.5564  1.2483 -2.2899
 2611TIP3   OH229247   3.794   4.218  10.992  0.1721 -0.1972 -0.2932
 2611TIP3    H129248   3.846   4.209  11.071  1.4358 -0.4344 -1.1210
 2611TIP3    H229249   3.764   4.309  10.992  3.4636  1.0284 -1.4560
 2612TIP3   OH229250   6.504   1.563  12.809 -0.2509  0.3363  0.4480
 2612TIP3    H129251   6.555   1.494  12.853 -0.7989  0.2302  0.9322
 2612TIP3    H229252   6.565   1.600  12.745 -0.6899 -2.4115 -1.8038
 2613TIP3   OH229253   5.124   3.193  15.339  0.0124  0.1054 -0.2143
 2613TIP3    H129254   5.070   3.171  15.263  1.8899 -0.7179 -1.3901
 2613TIP3    H229255   5.106   3.123  15.402  0.7146 -0.9502 -1.1534
 2614TIP3   OH229256   5.365   3.871   4.520  0.5587  0.1155 -0.3044
 2614TIP3    H129257   5.291   3.904   4.570  1.6154  1.9882  0.1019
 2614TIP3    H229258   5.409   3.949   4.486  2.4850 -0.9003 -0.3374
 2615TIP3   OH229259   1.721   3.756   6.314 -0.1857  0.1034 -0.5266
 2615TIP3    H129260   1.687   3.834   6.271 -0.1877 -0.5298 -1.7359
 2615TIP3    H229261   1.704   3.685   6.252  1.4980 -0.5641 -0.2938
 2616TIP3   OH229262   0.021   2.477   3.944  0.2441 -0.0341  0.5329
 2616TIP3    H129263  -0.034   2.535   3.892  0.9661 -1.3758 -1.8757
 2616TIP3    H229264  -0.041   2.413   3.982 -0.0990 -0.3169 -0.4725
 2617TIP3   OH229265   6.697   0.894   4.393 -0.0182  0.5800 -0.4882
 2617TIP3    H129266   6.631   0.894   4.323  1.3715 -0.2423 -1.8442
 2617TIP3    H229267   6.654   0.849   4.466 -0.9890  0.1044 -1.3233
 2618TIP3   OH229268   4.716   2.206   1.245  0.0408  0.5069  0.0451
 2618TIP3    H129269   4.741   2.163   1.327 -0.2256  0.4255  0.0836
 2618TIP3    H229270   4.632   2.168   1.223 -0.3340  1.2157  0.2322
 2619TIP3   OH229271   3.432   0.927  12.351 -0.5603 -0.1719  0.2083
 2619TIP3    H129272   3.505   0.974  12.311 -1.0649 -0.3461 -0.9622
 2619TIP3    H229273   3.355   0.979  12.328 -0.8397 -0.0421  1.3508
 2620TIP3   OH229274   6.239   3.834   6.374 -0.0337  0.4285  0.4880
 2620TIP3    H129275   6.283   3.786   6.444  0.9876 -0.3742 -0.6417
 2620TIP3    H229276   6.166   3.779   6.348  0.3446  0.1025  0.0909
 2621TIP3   OH229277   0.277   3.472   3.226 -0.1008  0.1865 -0.2454
 2621TIP3    H129278   0.225   3.443   3.151  1.0410 -1.2100 -0.5364
 2621TIP3    H229279   0.256   3.409   3.295 -0.2160  0.7515  0.2525
 2622TIP3   OH229280   5.415   3.992  15.951 -0.0374 -0.1692  0.1710
 2622TIP3    H129281   5.378   3.925  15.894 -1.6740  0.6921  0.1676
 2622TIP3    H229282   5.505   4.002  15.920  0.0682 -1.9491 -0.1873
 2623TIP3   OH229283   6.716   2.197   3.174 -0.2241 -0.5098 -0.0141
 2623TIP3    H129284   6.810   2.209   3.180 -0.5226  2.2090  0.2218
 2623TIP3    H229285   6.692   2.233   3.088 -1.1725 -0.2479  0.3485
 2624TIP3   OH229286   3.957   1.929  13.892 -0.0818  0.2884  0.2238
 2624TIP3    H129287   3.965   2.024  13.886  1.5289  0.1167 -0.6166
 2624TIP3    H229288   3.944   1.913  13.986  1.1542  1.2329  0.5834
 2625TIP3   OH229289   3.683   1.856   0.090 -0.0113 -0.0188 -0.3512
 2625TIP3    H129290   3.689   1.766   0.122 -1.6278 -0.1735 -0.4344
 2625TIP3    H229291   3.595   1.863   0.054 -0.6678  2.1990  1.4874
 2626TIP3   OH229292   0.114   0.128   0.695  0.3646 -0.3165 -0.4127
 2626TIP3    H129293   0.155   0.044   0.672 -0.5446 -0.8329 -0.1744
 2626TIP3    H229294   0.119   0.179   0.615  1.9877 -0.1388 -0.2431
 2627TIP3   OH229295   4.100   0.550   1.389 -0.3251  0.3657  1.0006
 2627TIP3    H129296   4.120   0.582   1.301  0.9853  2.6607  2.0382
 2627TIP3    H229297   4.185   0.520   1.423 -0.2183  2.1147  2.4183
 2628TIP3   OH229298   1.049   1.643  15.410 -0.1837 -0.2274  0.2766
 2628TIP3    H129299   1.100   1.724  15.403  0.4729 -0.6717 -0.2802
 2628TIP3    H229300   1.027   1.637  15.503 -1.6940  1.4329  0.0829
 2629TIP3   OH229301   0.067   6.685  13.953 -0.1134 -0.3312  0.2295
 2629TIP3    H129302   0.037   6.776  13.955  0.2255 -0.1068 -2.0842
 2629TIP3    H229303  -0.013   6.633  13.961 -0.3298  0.1289  1.3711
 2630TIP3   OH229304   1.239   6.105   5.958  0.5322 -0.0308 -0.2315
 2630TIP3    H129305   1.283   6.162   5.894 -1.5843  1.0019 -0.8699
 2630TIP3    H229306   1.172   6.161   5.997 -0.1976 -1.5164  0.7077
 2631TIP3   OH229307   4.276   6.712  16.194 -0.2933  0.2731 -0.0797
 2631TIP3    H129308   4.245   6.753  16.275  0.9388  0.0081  0.5589
 2631TIP3    H229309   4.254   6.774  16.125  0.8864  1.7282  0.7732
 2632TIP3   OH229310   5.443   0.429   3.819 -0.0444  0.4914  0.3357
 2632TIP3    H129311   5.355   0.432   3.781  0.0808 -0.6459 -0.0562
 2632TIP3    H229312   5.428   0.428   3.913 -0.5780 -2.1690  0.2860
 2633TIP3   OH229313   5.720   0.849   0.530 -0.0026  0.3926  1.0882
 2633TIP3    H129314   5.793   0.823   0.586  1.6289 -0.5855 -1.3528
 2633TIP3    H229315   5.684   0.767   0.498  0.8840  0.8899 -1.3942
 2634TIP3   OH229316   4.019   6.728  14.213  0.3491 -0.2348  0.4874
 2634TIP3    H129317   3.968   6.759  14.288  1.9622  2.4826  0.6161
 2634TIP3    H229318   3.991   6.782  14.140  1.8483  0.2404  0.2127
 2635TIP3   OH229319   4.624   2.275   3.080 -0.0545  0.3589 -0.2697
 2635TIP3    H129320   4.625   2.182   3.101 -1.7675  0.6591  1.4019
 2635TIP3    H229321   4.689   2.284   3.010  0.9381 -1.8932  0.2553
 2636TIP3   OH229322   1.526   5.921  11.307 -0.4972  0.1756 -0.2454
 2636TIP3    H129323   1.563   5.845  11.352 -0.4451  0.6225  0.4965
 2636TIP3    H229324   1.431   5.911  11.318 -0.4852  2.1262  3.2930
 2637TIP3   OH229325   2.324   0.147   1.728 -0.7357 -0.2129  0.5454
 2637TIP3    H129326   2.276   0.073   1.765 -0.2882 -0.3601  0.8274
 2637TIP3    H229327   2.376   0.109   1.657 -1.7263  0.0967 -0.3682
 2638TIP3   OH229328   3.547   3.366   4.330  0.0215  0.3232  0.4008
 2638TIP3    H129329   3.549   3.283   4.378  0.1409  0.1427  0.0849
 2638TIP3    H229330   3.633   3.373   4.290 -1.0831 -1.1558 -2.5374
 2639TIP3   OH229331   1.965   6.260   1.808  0.0410 -0.3201 -0.6169
 2639TIP3    H129332   2.013   6.183   1.842  1.2448 -0.0204 -1.5610
 2639TIP3    H229333   1.905   6.224   1.744  2.1452 -0.3516 -2.7127
 2640TIP3   OH229334   3.948   5.419   2.075 -0.3477  0.3121  0.0130
 2640TIP3    H129335   3.885   5.474   2.028 -1.2071 -1.0794 -0.5156
 2640TIP3    H229336   3.942   5.334   2.032 -1.2361 -1.0700  2.6281
 2641TIP3   OH229337   1.281   1.805   2.937 -0.2720  0.6558 -0.4650
 2641TIP3    H129338   1.206   1.758   2.901 -0.6915 -0.2058  1.3839
 2641TIP3    H229339   1.246   1.849   3.015  1.0528  0.5139  0.2360
 2642TIP3   OH229340   1.482   5.383  13.836  0.1694  0.1892 -0.0131
 2642TIP3    H129341   1.562   5.436  13.832  1.7802 -2.0290  1.0058
 2642TIP3    H229342   1.494   5.317  13.767 -1.0032  0.1014 -0.1427
 2643TIP3   OH229343   2.147   3.355  13.168 -0.2387 -0.2934 -0.0793
 2643TIP3    H129344   2.237   3.380  13.191  1.1213 -3.3116 -1.4919
 2643TIP3    H229345   2.143   3.367  13.073 -0.0350 -3.4077 -0.5864
 2644TIP3   OH229346   4.932   6.477   0.835 -0.5044 -0.0594 -0.3468
 2644TIP3    H129347   4.879   6.502   0.759 -0.8801 -0.8117 -0.3381
 2644TIP3    H229348   4.928   6.382   0.837  0.9890 -0.1451 -0.4336
 2645TIP3   OH229349   2.864   5.236  14.492 -0.6716  0.3137 -0.5363
 2645TIP3    H129350   2.888   5.224  14.400  0.6012  0.9430 -0.3094
 2645TIP3    H229351   2.771   5.212  14.496 -0.0291 -2.7442 -1.3731
 2646TIP3   OH229352   2.908   4.473   4.844  0.4516  0.2255  0.3645
 2646TIP3    H129353   2.987   4.528   4.842 -0.3124  1.3566 -0.0947
 2646TIP3    H229354   2.906   4.438   4.933  1.5326  0.0736  0.3447
 2647TIP3   OH229355   0.603   0.431   0.063  0.5099  0.1505  0.0342
 2647TIP3    H129356   0.529   0.391   0.108  1.4016 -2.2300 -0.5038
 2647TIP3    H229357   0.576   0.432  -0.029  1.0861 -0.6034 -0.1454
 2648TIP3   OH229358   0.439   4.708   4.122  0.1746 -0.4336  0.4356
 2648TIP3    H129359   0.497   4.668   4.057  0.2676  0.1111  0.1804
 2648TIP3    H229360   0.378   4.638   4.145  0.9936 -1.0488  0.7955
 2649TIP3   OH229361   1.377   0.792  16.376 -0.0742  0.0735  0.2316
 2649TIP3    H129362   1.425   0.711  16.393  1.5092  1.0418  0.5478
 2649TIP3    H229363   1.317   0.801  16.450  1.3982  0.3585  1.4230
 2650TIP3   OH229364   5.456   5.262  11.618  0.0480 -0.4650  0.3125
 2650TIP3    H129365   5.446   5.357  11.614 -0.0105 -0.4790  0.1214
 2650TIP3    H229366   5.518   5.242  11.548 -1.2398 -0.7506 -0.7923
 2651TIP3   OH229367   3.751   0.762  16.697 -0.1882 -0.0099 -0.6566
 2651TIP3    H129368   3.741   0.722  16.783  0.0759 -0.4405 -0.8291
 2651TIP3    H229369   3.807   0.838  16.713 -1.4794  0.8809 -0.1595
 2652TIP3   OH229370   3.997   2.808   6.641  0.1713  0.1541 -0.7499
 2652TIP3    H129371   4.002   2.904   6.641 -0.8844  0.3364  2.4956
 2652TIP3    H229372   4.083   2.780   6.672 -0.1936  0.2020  0.3412
 2653TIP3   OH229373   5.913   3.105   4.387  0.7279 -0.2349 -0.0828
 2653TIP3    H129374   5.935   3.067   4.301 -0.7657 -1.2791 -0.0518
 2653TIP3    H229375   5.965   3.053   4.449  2.8459  1.3857 -0.3777
 2654TIP3   OH229376   4.226   3.200  12.281 -0.0071  0.5262 -0.1687
 2654TIP3    H129377   4.177   3.193  12.199 -0.4110  1.6949 -0.0377
 2654TIP3    H229378   4.249   3.292  12.288  0.4480  0.3522  0.7939
 2655TIP3   OH229379   6.499   6.123   3.790 -0.1689 -0.3634 -0.0237
 2655TIP3    H129380   6.479   6.216   3.783  0.6579 -0.0268  1.6116
 2655TIP3    H229381   6.579   6.119   3.842  0.1239 -1.9680 -0.5386
 2656TIP3   OH229382   3.752   4.854  11.590  0.3532 -0.1960 -0.3973
 2656TIP3    H129383   3.793   4.873  11.675 -1.2071 -0.0962  0.3596
 2656TIP3    H229384   3.778   4.764  11.571  0.6615 -0.2457  0.2125
 2657TIP3   OH229385   0.242   0.058  12.572 -0.3023 -0.0455 -0.4898
 2657TIP3    H129386   0.267   0.127  12.511  1.7441 -0.6895 -0.4350
 2657TIP3    H229387   0.258   0.095  12.659  0.9354 -0.5902 -0.4616
 2658TIP3   OH229388   2.353   0.674   1.468  0.5932  0.3873 -0.0589
 2658TIP3    H129389   2.403   0.714   1.539 -1.0690 -1.4278  2.3210
 2658TIP3    H229390   2.403   0.595   1.445  1.4222  1.2649 -1.3766
 2659TIP3   OH229391   0.313   3.837   6.816  0.0789  0.1150  0.0753
 2659TIP3    H129392   0.404   3.813   6.832 -0.4148 -0.9012  1.6365
 2659TIP3    H229393   0.285   3.781   6.744  0.5241 -0.0032 -0.0049
 2660TIP3   OH229394   5.117   5.441  10.721 -0.4470 -0.2813 -0.2572
 2660TIP3    H129395   5.079   5.379  10.658 -0.7354 -0.5648  0.1941
 2660TIP3    H229396   5.050   5.509  10.730  0.4435  0.8903 -1.8502
 2661TIP3   OH229397   2.186   4.678   2.688  0.4456  0.1698 -0.1709
 2661TIP3    H129398   2.211   4.699   2.598  0.0111 -0.5312 -0.4630
 2661TIP3    H229399   2.090   4.675   2.686  0.3596  1.5596  0.6421
 2662TIP3   OH229400   3.647   5.336   0.965  0.4501 -0.2196 -0.0443
 2662TIP3    H129401   3.559   5.305   0.943  0.7788 -1.8295  0.7286
 2662TIP3    H229402   3.662   5.304   1.054  0.8573  2.2598  0.8474
 2663TIP3   OH229403   6.618   1.640   2.635  0.3245 -0.6780  0.1092
 2663TIP3    H129404   6.611   1.589   2.715 -0.1860  0.1991  0.6451
 2663TIP3    H229405   6.541   1.697   2.635 -0.0261 -1.0992 -1.3321
 2664TIP3   OH229406   3.863   5.839   4.146 -0.0464 -0.4304 -0.2428
 2664TIP3    H129407   3.807   5.902   4.101 -0.1530 -1.1043 -1.0843
 2664TIP3    H229408   3.952   5.863   4.120 -0.0981 -0.7243 -0.7013
 2665TIP3   OH229409   6.477   2.788   5.018  0.3877 -0.0453 -0.5952
 2665TIP3    H129410   6.501   2.700   4.988  0.4135 -1.0283  2.0870
 2665TIP3    H229411   6.550   2.814   5.074 -0.7453  0.6489  0.5892
 2666TIP3   OH229412   1.280   1.643   5.953  0.2263 -0.5834  0.4882
 2666TIP3    H129413   1.204   1.693   5.925  0.9237  0.3751  0.2841
 2666TIP3    H229414   1.344   1.708   5.982  1.5861 -1.2531 -0.8334
 2667TIP3   OH229415   5.511   6.665  15.819 -0.5712  0.1532 -0.3615
 2667TIP3    H129416   5.418   6.686  15.826 -0.3337  0.9712  0.4882
 2667TIP3    H229417   5.546   6.678  15.908  0.7337  1.7465 -1.0486
 2668TIP3   OH229418   5.105   0.980   3.735  0.2081  0.1865  0.0271
 2668TIP3    H129419   5.018   0.969   3.695  0.3087  1.5430 -0.6238
 2668TIP3    H229420   5.153   1.035   3.673  1.9526 -1.4929 -0.1862
 2669TIP3   OH229421   1.951   2.073  17.359  0.1480  0.1280  0.5623
 2669TIP3    H129422   2.010   2.049  17.430  0.0882 -0.4529  0.4215
 2669TIP3    H229423   1.962   2.004  17.294 -1.2420 -0.4181  0.8556
 2670TIP3   OH229424   0.285   5.111   6.149  0.2403 -0.0143 -0.1418
 2670TIP3    H129425   0.288   5.151   6.235 -1.2592  2.0830 -0.9821
 2670TIP3    H229426   0.194   5.085   6.137  0.0423  1.2213 -1.6809
 2671TIP3   OH229427   2.237   5.058  14.428  0.2041  0.0201  0.2196
 2671TIP3    H129428   2.232   5.124  14.359 -1.3783 -0.5692 -0.2986
 2671TIP3    H229429   2.286   5.099  14.498  1.1870  0.9246 -0.9511
 2672TIP3   OH229430   3.454   6.417  15.589  1.0212  0.4543 -0.2181
 2672TIP3    H129431   3.412   6.500  15.567  1.1403  1.1488  1.9486
 2672TIP3    H229432   3.383   6.360  15.618  1.0892  0.1641 -0.5992
 2673TIP3   OH229433   6.478   6.311   3.069  0.2659 -0.4351 -0.1826
 2673TIP3    H129434   6.481   6.309   2.974 -2.5867  2.3289 -0.5248
 2673TIP3    H229435   6.425   6.235   3.093 -2.1184  0.7863 -1.2273
 2674TIP3   OH229436   4.035   3.043  16.686  0.1082  0.3198 -0.0970
 2674TIP3    H129437   4.082   3.055  16.768  0.3688 -1.7975  0.1177
 2674TIP3    H229438   4.030   3.131  16.649 -1.0640  1.5485  2.7078
 2675TIP3   OH229439   4.260   0.929  14.662 -0.1560  0.3370 -0.5578
 2675TIP3    H129440   4.246   0.838  14.690  1.6082  0.2182  0.0671
 2675TIP3    H229441   4.266   0.979  14.743  0.2001  0.7898 -0.8537
 2676TIP3   OH229442   2.593   6.520   3.672 -0.0627  0.3467  0.4001
 2676TIP3    H129443   2.663   6.579   3.644  0.9785 -1.4830 -1.0779
 2676TIP3    H229444   2.579   6.543   3.764  1.5289  1.6931  0.3681
 2677TIP3   OH229445   5.238   1.494  14.620 -0.6544 -0.3420 -0.1211
 2677TIP3    H129446   5.227   1.581  14.580 -1.6578 -0.9022 -1.1095
 2677TIP3    H229447   5.161   1.445  14.592  0.5064 -1.9503 -0.5892
 2678TIP3   OH229448   0.440   1.772  13.644 -0.3205 -0.0826  0.0884
 2678TIP3    H129449   0.502   1.845  13.639  1.1252 -1.2585 -0.0437
 2678TIP3    H229450   0.408   1.774  13.734 -0.6249  0.9449 -0.0251
 2679TIP3   OH229451   1.477   2.796  11.696  0.0461 -0.0755  0.2896
 2679TIP3    H129452   1.402   2.751  11.735 -1.1967  0.1391 -1.7284
 2679TIP3    H229453   1.534   2.815  11.770 -0.3870 -3.0015  1.5180
 2680TIP3   OH229454   5.234   0.713  17.225  0.0089  0.0084  0.0494
 2680TIP3    H129455   5.273   0.631  17.196  0.3782  0.1919  0.0129
 2680TIP3    H229456   5.270   0.727  17.313  0.1226  0.2433 -0.0330
 2681TIP3   OH229457   4.027   1.947   5.063 -0.3252  0.0142  0.0759
 2681TIP3    H129458   3.991   1.874   5.113  1.5553 -1.1076 -0.1255
 2681TIP3    H229459   4.042   1.912   4.975 -0.6416  1.0489 -0.4127
 2682TIP3   OH229460   0.379   1.475   3.873  0.1165  0.3697 -0.1929
 2682TIP3    H129461   0.423   1.445   3.953  0.3360 -0.2041 -0.5221
 2682TIP3    H229462   0.355   1.395   3.827  1.2556  0.6757 -1.3796
 2683TIP3   OH229463   6.403   3.795   5.959 -0.4651 -0.0353 -0.0379
 2683TIP3    H129464   6.396   3.726   5.892 -2.8016  0.5955 -0.5462
 2683TIP3    H229465   6.401   3.748   6.042  1.9537 -0.7973 -0.3384
 2684TIP3   OH229466   5.176   5.532   2.696 -0.2511  0.0535  0.4401
 2684TIP3    H129467   5.086   5.562   2.685 -0.6569 -1.3685 -0.4131
 2684TIP3    H229468   5.168   5.450   2.744  0.4117 -0.9924 -1.1470
 2685TIP3   OH229469   2.586   4.181  15.864  0.2921  0.2732 -0.8899
 2685TIP3    H129470   2.544   4.132  15.935  1.4345 -0.1167 -0.4481
 2685TIP3    H229471   2.680   4.170  15.881  0.5721  1.4260 -1.6180
 2686TIP3   OH229472   2.288   3.997   0.640  0.0297  0.3844 -0.3502
 2686TIP3    H129473   2.283   4.070   0.578  1.2690 -0.3109 -1.3363
 2686TIP3    H229474   2.378   3.964   0.630  0.5155  0.6766  2.3408
 2687TIP3   OH229475   3.998   2.043  15.057  0.1029 -0.1223 -0.6146
 2687TIP3    H129476   3.923   2.021  15.002 -0.7698  1.1883 -0.0039
 2687TIP3    H229477   3.961   2.062  15.143  1.4435 -2.0765  0.4759
 2688TIP3   OH229478   6.516   0.144   3.821 -0.5149  0.0161 -0.2705
 2688TIP3    H129479   6.560   0.227   3.801  2.4176 -1.5187 -0.7432
 2688TIP3    H229480   6.476   0.118   3.738  0.7825 -0.2318 -0.8519
 2689TIP3   OH229481   1.996   1.215  11.029  0.6967 -0.2269 -0.4557
 2689TIP3    H129482   2.036   1.165  10.958 -0.0077 -1.3647 -0.0816
 2689TIP3    H229483   1.941   1.280  10.985 -0.6646 -1.6845 -0.9906
 2690TIP3   OH229484   4.367   1.013  11.662  0.0080 -0.5311 -0.3436
 2690TIP3    H129485   4.281   0.974  11.650 -0.9613  1.4638 -0.2064
 2690TIP3    H229486   4.427   0.952  11.620 -1.4780 -1.8801 -0.5926
 2691TIP3   OH229487   5.323   0.119   0.921 -0.1183 -0.1369 -0.1717
 2691TIP3    H129488   5.304   0.120   1.015 -1.6333 -1.2688 -0.4255
 2691TIP3    H229489   5.388   0.050   0.910 -0.4503 -0.4744 -0.0306
 2692TIP3   OH229490   0.522   3.561  15.756 -0.0353  0.0934  0.6599
 2692TIP3    H129491   0.521   3.513  15.674 -0.4765  0.5683  0.3824
 2692TIP3    H229492   0.571   3.505  15.816  1.0911  0.1486 -0.1715
 2693TIP3   OH229493   5.751   5.637   0.809 -0.1820 -0.2898  0.5798
 2693TIP3    H129494   5.803   5.643   0.729  1.7403  0.1209  1.7850
 2693TIP3    H229495   5.729   5.544   0.817 -0.7424 -0.2759 -0.6077
 2694TIP3   OH229496   5.813   0.219  15.052 -0.1837  0.7421 -0.2945
 2694TIP3    H129497   5.811   0.223  15.147 -1.6767  0.0686 -0.2705
 2694TIP3    H229498   5.742   0.159  15.029  0.5941  0.3567 -1.8047
 2695TIP3   OH229499   1.607   4.537   2.729  0.0554  0.1170 -0.0616
 2695TIP3    H129500   1.628   4.538   2.822 -2.0793  1.5089  0.4674
 2695TIP3    H229501   1.521   4.578   2.723 -0.8702 -1.8899 -2.4276
 2696TIP3   OH229502   2.679   4.854  10.962  0.2467  0.1294  0.0517
 2696TIP3    H129503   2.619   4.779  10.956 -1.2416  1.0707  1.8609
 2696TIP3    H229504   2.648   4.914  10.895  0.3919 -0.1814 -0.2988
 2697TIP3   OH229505   4.139   1.719  14.126  0.2041  0.2640 -0.2591
 2697TIP3    H129506   4.081   1.688  14.057 -0.5242 -0.1309  0.5098
 2697TIP3    H229507   4.174   1.639  14.167 -0.0767  0.4718  0.4062
 2698TIP3   OH229508   4.090   6.327  13.043 -0.1918 -0.0634  0.1229
 2698TIP3    H129509   4.099   6.364  13.131  0.2706 -0.5122  0.2693
 2698TIP3    H229510   4.092   6.403  12.985  0.8122  0.1563  0.4170
 2699TIP3   OH229511   5.757   2.330  15.398 -0.7559  0.6545 -0.0308
 2699TIP3    H129512   5.705   2.299  15.471 -0.7100 -1.5907 -0.8690
 2699TIP3    H229513   5.702   2.394  15.353 -1.7314  0.2548  0.5843
 2700TIP3   OH229514   0.183   0.306  14.113 -0.0420  0.6797 -0.6102
 2700TIP3    H129515   0.277   0.324  14.108  0.2758 -0.6654  0.2155
 2700TIP3    H229516   0.155   0.298  14.022  0.9977 -0.6163 -0.8366
 2701TIP3   OH229517   4.903   1.308  17.052  0.1273  0.3664 -0.0564
 2701TIP3    H129518   4.942   1.261  17.125  1.5271  2.2991  0.5366
 2701TIP3    H229519   4.974   1.319  16.989 -0.7279 -0.1521 -1.1460
 2702TIP3   OH229520   1.638   3.268  16.028 -0.4011 -0.1936 -0.3308
 2702TIP3    H129521   1.688   3.350  16.032 -0.1322 -0.3352 -0.7282
 2702TIP3    H229522   1.660   3.223  16.109 -0.7612  0.2452  0.0185
 2703TIP3   OH229523   5.774   5.201   4.067  0.2441 -0.2419 -0.1098
 2703TIP3    H129524   5.821   5.261   4.125  0.3172 -0.6589  0.2707
 2703TIP3    H229525   5.806   5.222   3.979  1.1437 -0.5041  0.1415
 2704TIP3   OH229526   2.886   3.723  13.396 -0.2636  0.1339  0.4122
 2704TIP3    H129527   2.818   3.661  13.369 -1.7208  1.0218  1.9092
 2704TIP3    H229528   2.844   3.808  13.395  1.3820  1.0024 -0.4063
 2705TIP3   OH229529   2.054   5.425   4.397 -0.2671 -0.2651  0.0456
 2705TIP3    H129530   1.994   5.420   4.322 -0.6203 -0.8287  0.3547
 2705TIP3    H229531   2.016   5.365   4.461 -0.1845  0.5188  0.8299
 2706TIP3   OH229532   1.968   3.168   5.202  0.0430  0.0031  0.1698
 2706TIP3    H129533   1.886   3.180   5.153  0.6232  0.8696 -0.6271
 2706TIP3    H229534   2.000   3.083   5.173  1.0866  1.0777 -2.1345
 2707TIP3   OH229535   1.430   6.244   2.325 -0.0405  0.5506  0.5112
 2707TIP3    H129536   1.365   6.186   2.284  0.6235 -0.3279  0.6630
 2707TIP3    H229537   1.379   6.318   2.358 -0.6201  1.2436 -1.7801
 2708TIP3   OH229538   3.545   3.404   5.646  0.0135 -0.4960 -0.0389
 2708TIP3    H129539   3.580   3.337   5.587  0.7019 -1.1703  1.0906
 2708TIP3    H229540   3.455   3.378   5.663  0.2812 -1.1556  0.3982
 2709TIP3   OH229541   3.289   4.339   0.952 -0.0431  0.3467 -0.2153
 2709TIP3    H129542   3.382   4.322   0.966 -0.2752 -0.3637  0.5974
 2709TIP3    H229543   3.246   4.256   0.974 -0.9073  0.8171 -0.0709
 2710TIP3   OH229544   1.065   2.758  15.245  0.1205  0.5729 -0.0121
 2710TIP3    H129545   1.038   2.845  15.214  0.0414 -0.1045 -1.9772
 2710TIP3    H229546   0.994   2.700  15.216  2.1361 -0.7900 -2.6922
 2711TIP3   OH229547   6.661   1.765  14.102  0.1555 -0.2123 -0.4421
 2711TIP3    H129548   6.691   1.852  14.077 -0.2191  0.8595  2.4439
 2711TIP3    H229549   6.733   1.729  14.153 -1.4624  0.5643  2.6849
 2712TIP3   OH229550   4.244   2.350  13.823  0.0879 -0.0576  0.3984
 2712TIP3    H129551   4.321   2.308  13.786  1.7374  2.3425  0.8299
 2712TIP3    H229552   4.244   2.325  13.916 -0.7476 -1.5081  0.0299
 2713TIP3   OH229553   3.633   1.227   5.372 -0.3666  0.4244  0.3262
 2713TIP3    H129554   3.542   1.255   5.359  0.1851  1.4036 -1.7994
 2713TIP3    H229555   3.629   1.132   5.371 -1.4697  0.4306  1.2859
 2714TIP3   OH229556   2.378   3.372   0.625 -0.5381 -0.4206  0.5615
 2714TIP3    H129557   2.417   3.295   0.666 -0.2719 -1.3087 -1.2700
 2714TIP3    H229558   2.285   3.367   0.648 -0.4741 -1.1319  0.6652
 2715TIP3   OH229559   6.644   1.551  11.715  0.0523 -0.0819  0.3016
 2715TIP3    H129560   6.632   1.627  11.658  0.3567 -0.6366 -0.5099
 2715TIP3    H229561   6.560   1.507  11.715  0.0996 -0.1708  0.1586
 2716TIP3   OH229562   5.352   4.109   0.577 -0.0683  0.4633  0.1985
 2716TIP3    H129563   5.415   4.054   0.624  0.4382 -0.3224 -1.3277
 2716TIP3    H229564   5.337   4.063   0.495 -0.6435  1.9613 -0.5731
 2717TIP3   OH229565   2.725   5.443  16.102 -0.3206  0.6412 -0.4745
 2717TIP3    H129566   2.728   5.493  16.021 -0.7065  0.7567 -0.4189
 2717TIP3    H229567   2.709   5.353  16.074  5.0173 -0.4826 -0.9948
 2718TIP3   OH229568   0.014   3.233   3.629  0.3721 -0.1525 -0.6055
 2718TIP3    H129569  -0.030   3.218   3.545 -1.9602  1.1778  0.2943
 2718TIP3    H229570  -0.015   3.160   3.684 -0.7494  0.6877 -0.0341
 2719TIP3   OH229571   1.145   4.851  13.793  0.3464 -0.2630  0.3946
 2719TIP3    H129572   1.127   4.923  13.854 -0.0016 -0.6481  0.7555
 2719TIP3    H229573   1.143   4.773  13.848  1.2103 -0.5034  0.0901
 2720TIP3   OH229574   5.931   2.040  16.293 -0.2303 -0.1492 -0.1039
 2720TIP3    H129575   5.875   2.003  16.360 -0.4990 -1.8879 -1.2240
 2720TIP3    H229576   5.875   2.101  16.245 -0.8960 -1.1040 -0.5680
 2721TIP3   OH229577   0.789   0.194   6.396 -0.5693 -0.2996 -0.3896
 2721TIP3    H129578   0.729   0.209   6.323 -1.1932  2.3206  0.5539
 2721TIP3    H229579   0.743   0.227   6.473  1.3261  0.0639  0.6628
 2722TIP3   OH229580   3.631   0.119   5.741 -0.1333  0.0210  0.3822
 2722TIP3    H129581   3.723   0.145   5.752 -0.1392 -0.1789  0.9066
 2722TIP3    H229582   3.598   0.178   5.673  0.8056 -0.9185 -0.9457
 2723TIP3   OH229583   2.555   5.911  14.425 -0.1985 -0.2929 -0.3654
 2723TIP3    H129584   2.618   5.963  14.475 -2.7262  2.3664  0.3089
 2723TIP3    H229585   2.500   5.870  14.491 -0.6163 -0.6880 -0.9476
 2724TIP3   OH229586   6.749   1.256   4.641 -0.5987 -0.0739  0.4985
 2724TIP3    H129587   6.673   1.198   4.641  0.8101 -2.0674  1.7984
 2724TIP3    H229588   6.817   1.207   4.595 -0.0788  1.7334 -0.7903
 2725TIP3   OH229589   6.588   2.254  14.853  0.2091  0.2175 -0.5796
 2725TIP3    H129590   6.557   2.172  14.890 -0.8161  1.1173  0.6578
 2725TIP3    H229591   6.677   2.265  14.888 -0.0725  0.1738  0.1541
 2726TIP3   OH229592   1.929   6.508   1.730  0.1390  0.2034  0.3008
 2726TIP3    H129593   2.014   6.524   1.688 -0.7017  0.1109 -1.5396
 2726TIP3    H229594   1.935   6.417   1.762  0.8366  0.3118  0.5107
 2727TIP3   OH229595   4.977   0.622  12.675 -0.1564  0.4829  0.6688
 2727TIP3    H129596   5.041   0.602  12.607 -0.0191  0.7019  0.7315
 2727TIP3    H229597   4.963   0.539  12.721 -0.6316  0.2184  0.0557
 2728TIP3   OH229598   1.096   3.885   4.691  0.1607  0.9030 -1.1456
 2728TIP3    H129599   1.147   3.895   4.611 -0.6275  0.3538 -1.7315
 2728TIP3    H229600   1.030   3.955   4.686 -0.3871  0.3799 -1.3746
 2729TIP3   OH229601   4.484   0.882  12.056  0.1994  0.0158 -0.0949
 2729TIP3    H129602   4.466   0.906  12.147 -0.1780  0.1663 -0.2066
 2729TIP3    H229603   4.422   0.934  12.005  0.8510  0.4274 -0.4827
 2730TIP3   OH229604   0.279   6.647   2.877 -0.4167 -0.0410 -0.5043
 2730TIP3    H129605   0.300   6.593   2.953 -0.4673  0.9674  0.2441
 2730TIP3    H229606   0.342   6.620   2.810 -0.3343 -0.8999 -0.0927
 2731TIP3   OH229607   5.865   1.383   0.449 -0.3716  0.5602  0.0899
 2731TIP3    H129608   5.954   1.346   0.453 -1.8157 -3.3516  1.1669
 2731TIP3    H229609   5.845   1.386   0.355  0.1572 -0.6921 -0.0870
 2732TIP3   OH229610   0.654   2.336  11.708 -0.2192 -0.2684  0.5675
 2732TIP3    H129611   0.627   2.388  11.783 -0.1123 -0.9031  1.0602
 2732TIP3    H229612   0.745   2.314  11.725 -0.3076 -0.7455  0.4562
 2733TIP3   OH229613   3.966   3.615  12.856  0.3894  0.1055  0.4590
 2733TIP3    H129614   3.920   3.580  12.932  1.8568  1.7566  2.2323
 2733TIP3    H229615   4.016   3.541  12.822 -0.7478 -0.8041  0.7031
 2734TIP3   OH229616   4.026   5.303   5.740  0.2660  0.1342 -0.0531
 2734TIP3    H129617   4.002   5.361   5.668 -2.2636 -2.4326 -1.4781
 2734TIP3    H229618   4.085   5.239   5.700 -1.5627 -1.6141 -0.0512
 2735TIP3   OH229619   5.768   2.581  13.332 -0.1573  0.6746  1.0359
 2735TIP3    H129620   5.792   2.563  13.423 -0.5966 -0.1149  1.0030
 2735TIP3    H229621   5.678   2.614  13.338  0.1936  1.6798  0.9770
 2736TIP3   OH229622   5.215   5.152   2.452 -0.3427 -0.0911 -0.3362
 2736TIP3    H129623   5.239   5.115   2.537  1.0053  1.7329  0.1262
 2736TIP3    H229624   5.283   5.119   2.393 -1.2925 -1.3778 -0.7662
 2737TIP3   OH229625   0.349   3.179   1.951  0.4978  0.4478 -0.0388
 2737TIP3    H129626   0.375   3.208   2.038  2.2900  1.4979 -0.8731
 2737TIP3    H229627   0.391   3.241   1.891 -1.1414  0.0940 -1.6520
 2738TIP3   OH229628   5.671   5.717   3.416  0.4714  0.5527  0.1738
 2738TIP3    H129629   5.702   5.627   3.404  1.6575  0.7784  1.3483
 2738TIP3    H229630   5.724   5.770   3.358  1.2846  0.7462  1.0675
 2739TIP3   OH229631   0.328   2.235   0.803 -0.7631 -0.5221  0.3083
 2739TIP3    H129632   0.235   2.220   0.819 -0.9732 -0.7777 -0.9867
 2739TIP3    H229633   0.343   2.198   0.716  0.1535  1.0781 -0.2514
 2740TIP3   OH229634   5.091   0.954  14.788 -0.3043  0.0867  0.2336
 2740TIP3    H129635   5.130   1.019  14.729  1.0971 -1.6688 -0.8740
 2740TIP3    H229636   5.131   0.972  14.873  0.3562  0.4451 -0.1461
 2741TIP3   OH229637   1.021   4.120   6.078 -0.1187  0.1489 -0.5076
 2741TIP3    H129638   0.972   4.039   6.068  0.2386 -0.0957 -0.3131
 2741TIP3    H229639   1.018   4.138   6.172  4.2229 -2.5074  0.4389
 2742TIP3   OH229640   4.226   0.481  11.744  0.0339  0.4115  0.2121
 2742TIP3    H129641   4.317   0.492  11.717  0.8834 -1.0642  2.2642
 2742TIP3    H229642   4.214   0.544  11.815 -0.4076  0.3034  0.2385
 2743TIP3   OH229643   5.216   0.455  12.271 -0.0621  0.5671  0.5485
 2743TIP3    H129644   5.209   0.466  12.176 -0.2111  0.6767  0.5718
 2743TIP3    H229645   5.130   0.424  12.299  0.9951 -3.1935  0.1626
 2744TIP3   OH229646   4.352   2.935   3.102 -0.1883  0.4630 -0.6245
 2744TIP3    H129647   4.428   2.986   3.132  0.1377  0.0543 -0.7393
 2744TIP3    H229648   4.313   2.901   3.182  0.0426  0.2698 -0.5904
 2745TIP3   OH229649   3.604   3.571   4.720  0.1161  0.5042  0.0789
 2745TIP3    H129650   3.692   3.535   4.707 -0.2858 -0.5218  0.1178
 2745TIP3    H229651   3.545   3.499   4.695 -0.7058  0.2867  2.4209
 2746TIP3   OH229652   3.926   0.483  11.845  0.6029 -0.2968 -0.1720
 2746TIP3    H129653   3.948   0.394  11.872 -1.8941 -1.0694 -0.4713
 2746TIP3    H229654   3.898   0.474  11.754 -1.1958  0.4853  0.2608
 2747TIP3   OH229655   3.507   2.362   2.371 -0.0400 -0.2713  0.0448
 2747TIP3    H129656   3.533   2.427   2.306 -1.4768  1.4368  1.0506
 2747TIP3    H229657   3.579   2.360   2.434  0.4778 -0.4265 -0.5568
 2748TIP3   OH229658   2.473   0.206   2.196  0.4012  0.0122 -0.3794
 2748TIP3    H129659   2.541   0.161   2.145  1.6999  1.7924 -0.3085
 2748TIP3    H229660   2.392   0.183   2.152  1.1286 -1.3208 -1.1160
 2749TIP3   OH229661   4.950   6.266   6.641 -0.5132  0.3653  0.5152
 2749TIP3    H129662   4.965   6.190   6.585  1.6767  1.0933  0.0150
 2749TIP3    H229663   4.867   6.303   6.609 -0.8905 -0.9893 -0.1589
 2750TIP3   OH229664   5.841   5.036   3.230 -0.0069  0.0363  0.0084
 2750TIP3    H129665   5.833   4.956   3.178  1.7624  0.5631 -1.1508
 2750TIP3    H229666   5.921   5.024   3.281  0.3134  1.0843 -0.2316
 2751TIP3   OH229667   0.285   0.730   5.530 -0.0094  0.1576  0.4644
 2751TIP3    H129668   0.205   0.761   5.574  0.4199  0.4799  1.0282
 2751TIP3    H229669   0.254   0.697   5.445 -0.6750  0.7675  0.4558
 2752TIP3   OH229670   0.347   5.848   0.758 -0.0432 -0.4707  0.4517
 2752TIP3    H129671   0.276   5.789   0.731  0.5199 -0.8297 -0.2707
 2752TIP3    H229672   0.310   5.896   0.832 -0.3423 -2.1002  1.4311
 2753TIP3   OH229673   3.380   3.603   5.105 -0.5625  0.0009 -0.4780
 2753TIP3    H129674   3.375   3.672   5.039 -1.9897  1.1652  0.7550
 2753TIP3    H229675   3.465   3.561   5.091 -0.9693 -0.0464 -3.2404
 2754TIP3   OH229676   0.147   0.244  13.289 -0.7812 -0.4077  0.1839
 2754TIP3    H129677   0.059   0.210  13.276 -0.3355 -2.1607  1.3724
 2754TIP3    H229678   0.145   0.283  13.377  0.2554 -2.9616  1.4629
 2755TIP3   OH229679   0.888   5.541  10.889  0.5170  0.1259 -0.7553
 2755TIP3    H129680   0.927   5.513  10.806  0.0862  1.4101 -1.4227
 2755TIP3    H229681   0.816   5.599  10.864  0.5983  0.8294  0.5100
 2756TIP3   OH229682   6.179   2.469   4.521 -0.0419  0.0570  0.2304
 2756TIP3    H129683   6.181   2.479   4.426 -2.2298 -1.1711  0.0151
 2756TIP3    H229684   6.258   2.418   4.541 -0.3987 -1.0792 -1.1291
 2757TIP3   OH229685   1.290   4.369   4.805 -0.4274 -0.0956  0.7309
 2757TIP3    H129686   1.250   4.316   4.736  0.2433 -0.1607  0.3763
 2757TIP3    H229687   1.256   4.333   4.887  0.8148 -1.7861  0.5624
 2758TIP3   OH229688   4.505   3.770  17.244  0.0978  0.4581  0.4444
 2758TIP3    H129689   4.530   3.684  17.211  1.2311  1.5957 -1.9228
 2758TIP3    H229690   4.413   3.760  17.270 -0.2735 -1.1009 -1.2491
 2759TIP3   OH229691   1.922   1.379  13.550  0.7942  0.5530 -0.5091
 2759TIP3    H129692   1.933   1.472  13.533  0.7900  0.8431  0.9399
 2759TIP3    H229693   1.991   1.358  13.614 -0.5036  0.0615  0.7926
 2760TIP3   OH229694   2.634   2.197  13.166 -0.1882  0.4582 -0.5759
 2760TIP3    H129695   2.652   2.269  13.105  0.5753  1.1949  0.4715
 2760TIP3    H229696   2.708   2.137  13.156 -0.5200  0.1200 -1.0170
 2761TIP3   OH229697   2.926   5.668  12.097 -0.3106  0.6712  0.3587
 2761TIP3    H129698   3.020   5.682  12.096 -0.2677  0.3705  0.1485
 2761TIP3    H229699   2.904   5.657  12.190 -0.1960  1.0855  0.4401
 2762TIP3   OH229700   4.177   0.084  17.255  0.6395  0.3986  0.4468
 2762TIP3    H129701   4.217   0.021  17.195 -0.0276  0.8050 -0.4470
 2762TIP3    H229702   4.153   0.033  17.332  0.2710 -0.3959 -0.1926
 2763TIP3   OH229703   1.422   2.560   6.017  0.5053  0.1568  0.4440
 2763TIP3    H129704   1.495   2.506   5.987 -0.4018 -1.7328  1.4705
 2763TIP3    H229705   1.406   2.531   6.107  1.2705  3.5960  1.8599
 2764TIP3   OH229706   2.903   2.193  16.841 -0.8441  0.0662  0.0883
 2764TIP3    H129707   2.825   2.166  16.889  0.9276 -3.1443  1.5085
 2764TIP3    H229708   2.902   2.140  16.761 -0.1538  0.0151  0.1032
 2765TIP3   OH229709   5.782   1.797   3.153 -0.8562  0.1588 -0.2584
 2765TIP3    H129710   5.824   1.778   3.237  0.1371 -0.4859 -0.8760
 2765TIP3    H229711   5.691   1.814   3.175 -0.8999 -1.2671  0.8449
 2766TIP3   OH229712   2.709   5.913  11.590 -0.5924 -0.2908  0.2182
 2766TIP3    H129713   2.682   5.835  11.542 -3.5701  0.2189  0.8768
 2766TIP3    H229714   2.719   5.980  11.522  2.6523 -1.2753 -0.4352
 2767TIP3   OH229715   2.326   2.720  15.750 -0.0628 -0.7965 -0.8497
 2767TIP3    H129716   2.350   2.710  15.658 -2.1151 -1.8191 -1.3171
 2767TIP3    H229717   2.239   2.760  15.748 -0.4262 -1.4616  0.6131
 2768TIP3   OH229718   2.636   2.354  15.466  0.1733  0.2868 -0.8007
 2768TIP3    H129719   2.591   2.356  15.382  0.6160 -0.8226 -1.0814
 2768TIP3    H229720   2.726   2.380  15.447  0.4636 -0.6820 -0.8144
 2769TIP3   OH229721   4.524   0.818   6.459 -0.0651  0.2233  0.2800
 2769TIP3    H129722   4.482   0.735   6.436  0.0385  0.4310 -0.7381
 2769TIP3    H229723   4.605   0.793   6.502 -0.4804 -0.1943  0.8344
 2770TIP3   OH229724   5.067   2.972  14.809  0.1057 -0.4997 -0.0740
 2770TIP3    H129725   5.000   2.941  14.748  1.5241 -0.0478 -1.9197
 2770TIP3    H229726   5.111   3.043  14.764  1.3348 -0.2510  1.4172
 2771TIP3   OH229727   4.624   3.916   4.875 -0.2738  0.0100  0.8457
 2771TIP3    H129728   4.569   3.903   4.797  1.0210  1.1409 -0.2866
 2771TIP3    H229729   4.578   3.982   4.926 -1.6277 -1.4193  1.5846
 2772TIP3   OH229730   1.157   5.021   6.542 -0.3638 -0.2280  0.0795
 2772TIP3    H129731   1.238   5.048   6.500  0.7004 -2.6143  0.3993
 2772TIP3    H229732   1.185   4.972   6.620 -2.1792  0.7380  1.4304
 2773TIP3   OH229733   0.841   6.489  15.870 -0.1268 -0.6129 -0.5482
 2773TIP3    H129734   0.785   6.489  15.792 -0.1726  1.2161 -0.5412
 2773TIP3    H229735   0.833   6.577  15.906  3.0512 -0.1193 -0.7815
 2774TIP3   OH229736   5.974   1.913  12.158 -0.2914  0.0583 -1.0888
 2774TIP3    H129737   5.888   1.875  12.141 -0.2955 -0.2667 -0.4098
 2774TIP3    H229738   5.960   2.007  12.154 -1.0963  0.0719  0.7743
 2775TIP3   OH229739   2.214   0.017   5.101  0.0690  0.4166  0.1610
 2775TIP3    H129740   2.287   0.053   5.152  1.1105 -0.8930 -0.3671
 2775TIP3    H229741   2.186  -0.060   5.149  0.1743 -0.0666 -0.5431
 2776TIP3   OH229742   2.888   2.503  10.191  0.3016  0.1193  0.4752
 2776TIP3    H129743   2.792   2.497  10.189  0.0926  2.6838 -0.4754
 2776TIP3    H229744   2.911   2.482  10.281 -1.4048  1.7670  1.3756
 2777TIP3   OH229745   6.008   5.341  15.954  0.9951  0.1588  0.3963
 2777TIP3    H129746   5.966   5.256  15.949  0.2512  0.4840  0.8888
 2777TIP3    H229747   6.100   5.324  15.938  0.8336 -0.7204  0.3849
 2778TIP3   OH229748   0.323   2.712   3.480  0.0444 -0.9606 -0.8596
 2778TIP3    H129749   0.384   2.734   3.409 -1.7087  1.2292 -1.8303
 2778TIP3    H229750   0.377   2.708   3.558  1.4068  1.6183 -1.5503
 2779TIP3   OH229751   6.003   6.477  15.987 -0.3978  0.1450 -0.3249
 2779TIP3    H129752   6.058   6.402  15.963 -2.4135 -1.2578 -0.8342
 2779TIP3    H229753   5.989   6.524  15.905  1.3974  1.5527  0.0990
 2780TIP3   OH229754   4.135   4.990  15.356 -1.0396 -0.2512  0.1715
 2780TIP3    H129755   4.138   5.048  15.432  3.8148 -1.6048  1.3511
 2780TIP3    H229756   4.086   4.913  15.387 -1.5888  0.3788  0.9101
 2781TIP3   OH229757   6.085   6.304  11.520 -0.4355  0.0519  0.1988
 2781TIP3    H129758   6.013   6.364  11.500  0.4155  1.1649  0.4058
 2781TIP3    H229759   6.162   6.360  11.528  0.4290 -1.0946  0.1920
 2782TIP3   OH229760   3.873   2.765  17.150  0.6133  0.2270  0.7668
 2782TIP3    H129761   3.913   2.767  17.237 -0.0148 -0.2155  1.0780
 2782TIP3    H229762   3.821   2.845  17.145 -0.5316 -0.4517  1.3918
 2783TIP3   OH229763   5.399   3.564   4.893  0.1483  0.3571  0.2067
 2783TIP3    H129764   5.356   3.649   4.888  0.2792  0.4991  1.3062
 2783TIP3    H229765   5.365   3.524   4.973  0.0797 -0.6352 -0.3003
 2784TIP3   OH229766   6.304   2.089  17.010 -0.7595 -0.2941 -0.5697
 2784TIP3    H129767   6.364   2.042  16.952 -1.4835 -0.7390 -0.9645
 2784TIP3    H229768   6.233   2.119  16.953 -0.5699  0.8410 -0.2276
 2785TIP3   OH229769   6.235   5.369   2.918 -0.1859  0.0088  0.0641
 2785TIP3    H129770   6.313   5.409   2.881 -0.8135  1.1761 -0.0529
 2785TIP3    H229771   6.223   5.414   3.002 -2.2937  1.9642 -1.1503
 2786TIP3   OH229772   0.552   4.972   3.224  0.1988  0.0459  0.5431
 2786TIP3    H129773   0.633   4.932   3.193  1.1258  0.1873  2.6141
 2786TIP3    H229774   0.483   4.925   3.177  1.4562  0.1360 -1.5061
 2787TIP3   OH229775   0.487   1.720  16.844 -0.2810 -0.0123  0.0482
 2787TIP3    H129776   0.580   1.735  16.859 -0.0770  1.7942 -2.4181
 2787TIP3    H229777   0.454   1.804  16.815 -2.1185 -1.2618 -1.6863
 2788TIP3   OH229778   4.418   0.370   0.070  0.2176 -0.1234  0.3630
 2788TIP3    H129779   4.379   0.453   0.098  0.6576  0.0624  0.4309
 2788TIP3    H229780   4.369   0.346  -0.009 -2.0043 -1.3585  2.0129
 2789TIP3   OH229781   4.594   1.875  14.070 -0.8478  0.3353 -0.0222
 2789TIP3    H129782   4.577   1.958  14.114 -2.0878  0.2376 -0.2672
 2789TIP3    H229783   4.577   1.809  14.137 -1.3254  0.2366 -0.2372
 2790TIP3   OH229784   3.650   4.813   3.928 -0.4215  0.3819 -0.4024
 2790TIP3    H129785   3.612   4.839   4.013 -0.1576 -0.3937 -0.0362
 2790TIP3    H229786   3.675   4.896   3.887 -2.4421  0.9459 -0.6379
 2791TIP3   OH229787   0.203   4.635   3.755 -0.1269  0.0410 -0.6810
 2791TIP3    H129788   0.296   4.649   3.770 -0.1354  0.1819 -0.7558
 2791TIP3    H229789   0.194   4.540   3.742  0.0768  0.0830 -1.1656
 2792TIP3   OH229790   3.291   4.370  15.850 -0.4571  0.5958 -0.2624
 2792TIP3    H129791   3.285   4.375  15.946 -0.5987 -1.2318 -0.1435
 2792TIP3    H229792   3.229   4.301  15.826 -1.1218  1.6916 -1.7776
 2793TIP3   OH229793   1.109   0.540  16.699 -0.0287  0.1044 -0.4075
 2793TIP3    H129794   1.108   0.452  16.662  0.5900 -0.3735  0.6560
 2793TIP3    H229795   1.017   0.563  16.711 -0.1848 -0.5852 -0.2599
 2794TIP3   OH229796   1.651   5.763   2.912 -0.0365  0.7670  0.3908
 2794TIP3    H129797   1.634   5.856   2.898  0.8971  0.9158  0.1424
 2794TIP3    H229798   1.746   5.757   2.920 -0.0270 -0.2619 -0.2923
 2795TIP3   OH229799   0.563   4.217   4.898 -0.1647  0.1068  0.1815
 2795TIP3    H129800   0.619   4.273   4.844 -0.9109 -0.2597 -1.0168
 2795TIP3    H229801   0.493   4.189   4.839 -1.3013  0.0915  1.4902
 2796TIP3   OH229802   1.381   2.026   1.180  0.2803  0.0563 -0.0518
 2796TIP3    H129803   1.364   2.032   1.086 -0.9060 -1.3923  0.0355
 2796TIP3    H229804   1.445   1.956   1.189  1.7317  1.3586  0.1159
 2797TIP3   OH229805   4.670   5.804  12.533  0.2636  0.7655 -0.7752
 2797TIP3    H129806   4.752   5.847  12.559 -0.8189  1.2369  2.2404
 2797TIP3    H229807   4.696   5.741  12.466  3.1725  0.6267  0.3534
 2798TIP3   OH229808   2.491   0.700   5.637  0.0187 -0.2896  0.0817
 2798TIP3    H129809   2.551   0.626   5.633 -0.0417 -0.2725 -1.8139
 2798TIP3    H229810   2.538   0.773   5.597  0.3711  0.9740  2.6088
 2799TIP3   OH229811   1.847   1.182   0.356 -0.4242  0.2249 -0.2731
 2799TIP3    H129812   1.872   1.180   0.263 -1.4355 -0.5005 -0.5459
 2799TIP3    H229813   1.873   1.096   0.389 -2.2870 -0.4747 -0.5175
 2800TIP3   OH229814   2.731   2.263  11.816  0.2591 -0.0713 -0.9775
 2800TIP3    H129815   2.697   2.190  11.765  1.9934 -0.8315 -1.1124
 2800TIP3    H229816   2.757   2.328  11.751 -2.0217  1.0676 -0.8335
 2801TIP3   OH229817   4.153   4.045  15.655  0.2586  0.1220 -0.2758
 2801TIP3    H129818   4.112   4.098  15.587 -0.5581  1.5760  1.2871
 2801TIP3    H229819   4.199   4.107  15.711 -0.1314 -0.8708  1.2171
 2802TIP3   OH229820   1.753   3.394   3.448 -0.1607 -0.0734 -0.1974
 2802TIP3    H129821   1.732   3.486   3.467 -0.4227 -0.2514  0.4267
 2802TIP3    H229822   1.677   3.361   3.400 -0.6792 -0.3162  0.7587
 2803TIP3   OH229823   2.642   3.775  13.024 -0.6297 -0.0843 -0.1045
 2803TIP3    H129824   2.593   3.856  13.006 -1.9884 -0.7108  0.6287
 2803TIP3    H229825   2.710   3.773  12.956  1.0515  2.9017  1.2958
 2804TIP3   OH229826   4.901   5.078   4.790 -0.1341  0.4749  0.0916
 2804TIP3    H129827   4.829   5.027   4.755  0.7268 -0.6283 -0.1108
 2804TIP3    H229828   4.944   5.116   4.714  0.5629 -0.3349  0.0662
 2805TIP3   OH229829   2.569   2.894  11.151  0.7132 -0.2236  0.0245
 2805TIP3    H129830   2.590   2.949  11.227 -1.1128 -0.6076  0.8652
 2805TIP3    H229831   2.476   2.908  11.136  0.7541 -1.1970 -1.3194
 2806TIP3   OH229832   6.302   5.429  16.617 -0.1392 -0.3321 -0.2441
 2806TIP3    H129833   6.298   5.451  16.710 -1.1307 -1.7222  0.0650
 2806TIP3    H229834   6.210   5.419  16.591  0.0880  0.6710 -1.5443
 2807TIP3   OH229835   0.134   3.193  12.064  0.1060  0.1296  0.0914
 2807TIP3    H129836   0.055   3.143  12.044  0.7605 -0.9681  0.1892
 2807TIP3    H229837   0.178   3.202  11.979  0.3723 -0.1405  0.2000
 2808TIP3   OH229838   2.656   0.571   0.674  0.1246  0.1348  0.2308
 2808TIP3    H129839   2.664   0.477   0.691 -0.5706 -0.3171 -1.7197
 2808TIP3    H229840   2.696   0.612   0.751  1.6098 -1.7550  0.5497
 2809TIP3   OH229841   1.479   6.062  13.447 -0.3925  0.1966 -0.2049
 2809TIP3    H129842   1.425   6.100  13.378  1.1420  1.2589 -0.8830
 2809TIP3    H229843   1.498   6.136  13.505 -1.1033 -0.5435  0.9988
 2810TIP3   OH229844   0.805   2.724  11.896  0.2360  0.5940  0.2581
 2810TIP3    H129845   0.761   2.657  11.948 -0.7251  2.4074  1.8921
 2810TIP3    H229846   0.898   2.708  11.909  0.0459 -0.9974 -0.1885
 2811TIP3   OH229847   3.461   6.505  12.726 -0.3367 -0.4843 -0.2844
 2811TIP3    H129848   3.458   6.488  12.632 -1.5040  1.5325 -0.6847
 2811TIP3    H229849   3.497   6.425  12.764  0.8737 -1.0692 -2.4952
 2812TIP3   OH229850   2.503   5.028   2.460  0.0265  0.1406 -0.6415
 2812TIP3    H129851   2.432   5.089   2.480 -0.4270 -0.3138 -0.8355
 2812TIP3    H229852   2.517   4.979   2.541  0.1997  0.3049 -0.5701
 2813TIP3   OH229853   2.111   4.919  12.823  0.0666  0.1311 -0.8129
 2813TIP3    H129854   2.057   4.902  12.746 -0.6396  1.1638 -0.5671
 2813TIP3    H229855   2.079   4.857  12.888 -2.2701  1.9935 -0.0247
 2814TIP3   OH229856   5.325   3.984  12.599  0.7970 -0.3434 -0.2293
 2814TIP3    H129857   5.267   4.052  12.633  1.0489 -0.1566 -0.1672
 2814TIP3    H229858   5.359   4.020  12.518  2.1016  0.2468  0.5475
 2815TIP3   OH229859   5.239   6.271   5.634  0.1117 -0.3397  0.1219
 2815TIP3    H129860   5.255   6.285   5.540 -0.6999 -0.4895 -0.0484
 2815TIP3    H229861   5.147   6.294   5.646  0.4719  0.6658  1.0892
 2816TIP3   OH229862   0.962   5.122   5.591  0.1545  1.1775  0.3424
 2816TIP3    H129863   0.916   5.104   5.673  0.4263 -1.4965  0.0245
 2816TIP3    H229864   0.933   5.209   5.565 -2.5719  0.7479  1.5678
 2817TIP3   OH229865   0.567   6.043   2.243  0.0917 -0.2064 -0.2565
 2817TIP3    H129866   0.580   6.001   2.328  2.8751  0.2154 -0.3559
 2817TIP3    H229867   0.562   5.970   2.180  0.7252 -0.4852  0.0070
 2818TIP3   OH229868   1.159   4.584  14.022 -0.2679 -0.5381 -0.4052
 2818TIP3    H129869   1.213   4.524  13.969  0.7555  0.0050  0.0043
 2818TIP3    H229870   1.070   4.570  13.989 -0.0777 -2.3633 -0.2502
 2819TIP3   OH229871   1.643   0.690  11.241 -0.5722  0.6390 -0.6550
 2819TIP3    H129872   1.633   0.640  11.160  0.2241  2.1199 -1.7151
 2819TIP3    H229873   1.721   0.655  11.283 -2.1700 -1.6003  0.6292
 2820TIP3   OH229874   6.287   2.482  12.013  0.2497  0.4081  0.3119
 2820TIP3    H129875   6.272   2.567  11.971 -0.4093  0.7107  1.1373
 2820TIP3    H229876   6.248   2.491  12.100  0.7214 -0.5394  0.6340
 2821TIP3   OH229877   4.889   4.889   3.622  0.4336 -0.2226  0.1564
 2821TIP3    H129878   4.846   4.853   3.545  0.0277  1.7172 -0.5981
 2821TIP3    H229879   4.820   4.895   3.688  0.8851 -2.3294  0.9078
 2822TIP3   OH229880   4.487   2.814   5.077  0.3073  0.3577  0.5108
 2822TIP3    H129881   4.414   2.872   5.058 -1.0912 -1.1402  1.0779
 2822TIP3    H229882   4.545   2.822   5.001 -1.1741  0.4552 -0.6446
 2823TIP3   OH229883   4.690   0.164  15.736  0.0541  0.4690  0.1091
 2823TIP3    H129884   4.758   0.172  15.803  1.2876 -0.0359 -1.0220
 2823TIP3    H229885   4.738   0.174  15.653 -1.4472  1.3046 -0.7029
 2824TIP3   OH229886   1.470   3.842  11.851 -0.3826  0.4126  0.3778
 2824TIP3    H129887   1.519   3.767  11.887 -0.4117  0.6215  0.8664
 2824TIP3    H229888   1.435   3.886  11.929  2.0249  2.6174  0.3340
 2825TIP3   OH229889   2.101   2.019  11.036 -0.1223  0.3946  0.3606
 2825TIP3    H129890   2.085   1.931  11.072  0.5751  0.3189  0.4862
 2825TIP3    H229891   2.037   2.075  11.081 -0.2336  0.0394  0.6455
 2826TIP3   OH229892   2.293   5.917  13.190  0.2195  0.9578 -0.1972
 2826TIP3    H129893   2.281   5.822  13.195  2.0899  0.5822 -1.5728
 2826TIP3    H229894   2.372   5.934  13.240 -0.6544  1.9639  0.8791
 2827TIP3   OH229895   3.448   3.710   1.809 -0.0493  0.8898 -0.1704
 2827TIP3    H129896   3.414   3.735   1.895 -1.9777 -0.1526 -0.5771
 2827TIP3    H229897   3.374   3.721   1.749  0.2918 -1.3782 -1.1416
 2828TIP3   OH229898   3.927   1.807  17.312 -0.1560 -0.3278 -0.3268
 2828TIP3    H129899   3.862   1.877  17.302  0.0973  0.0498  0.5366
 2828TIP3    H229900   4.010   1.849  17.293  0.2054  0.1103  1.8710
 2829TIP3   OH229901   0.692   6.060  17.073  0.4217  0.0789  0.5240
 2829TIP3    H129902   0.641   5.980  17.065  0.2692  0.1775  0.5035
 2829TIP3    H229903   0.651   6.108  17.145  0.2914  0.3005  0.3051
 2830TIP3   OH229904   5.818   6.174   1.282  0.3251 -0.1485 -0.0783
 2830TIP3    H129905   5.837   6.158   1.374 -0.2653 -0.4930 -0.0082
 2830TIP3    H229906   5.849   6.262   1.266  2.1236 -0.7460 -0.0320
 2831TIP3   OH229907   4.425   4.317   0.092 -0.3228  0.0678 -0.0819
 2831TIP3    H129908   4.421   4.352   0.181 -0.9999 -0.5640  0.1391
 2831TIP3    H229909   4.499   4.364   0.052 -1.0493  1.5836  0.2766
 2832TIP3   OH229910   5.537   5.943  12.935  0.6220 -0.1081 -0.5287
 2832TIP3    H129911   5.497   5.856  12.931  1.7287 -0.6191 -0.9581
 2832TIP3    H229912   5.577   5.947  13.022 -0.5535  0.5117  0.0114
 2833TIP3   OH229913   0.478   2.402  17.100  0.3170 -0.5564  0.3646
 2833TIP3    H129914   0.496   2.319  17.144  1.3566 -0.5511 -0.0344
 2833TIP3    H229915   0.549   2.460  17.128  1.9223 -0.9809 -2.4227
 2834TIP3   OH229916   3.351   4.488   4.564  0.2607 -0.4844  0.3292
 2834TIP3    H129917   3.288   4.427   4.603  0.0745  0.3989  1.4735
 2834TIP3    H229918   3.377   4.446   4.482 -0.8879 -1.4460  0.4220
 2835TIP3   OH229919   3.229   6.329   5.662 -0.1579  0.2520 -0.0082
 2835TIP3    H129920   3.188   6.318   5.748  1.6750  1.8072  1.1471
 2835TIP3    H229921   3.234   6.240   5.626 -0.1242 -0.5674  1.9017
 2836TIP3   OH229922   5.729   4.276  14.578 -0.4003  0.0718  0.0795
 2836TIP3    H129923   5.679   4.304  14.655 -1.1809 -1.0314 -0.0040
 2836TIP3    H229924   5.665   4.233  14.522  0.6810 -1.7114  0.1266
 2837TIP3   OH229925   1.098   5.423  15.794 -0.6524 -0.2835 -0.1007
 2837TIP3    H129926   1.011   5.456  15.771 -1.2454  0.1857  2.5537
 2837TIP3    H229927   1.084   5.329  15.809 -0.8212 -0.1239  0.7799
 2838TIP3   OH229928   2.890   0.138   2.140  0.1044 -0.7317  0.3119
 2838TIP3    H129929   2.860   0.092   2.061  1.9484 -0.2973 -0.6854
 2838TIP3    H229930   2.942   0.073   2.188  0.2306 -0.5561  0.4145
 2839TIP3   OH229931   3.754   4.643   1.552  0.1404 -0.1905 -0.0959
 2839TIP3    H129932   3.803   4.631   1.470 -0.6130 -0.9597 -0.4449
 2839TIP3    H229933   3.701   4.721   1.537 -0.1216 -0.4253 -0.4118
 2840TIP3   OH229934   1.791   4.511  17.379 -0.4694 -0.6098 -0.3056
 2840TIP3    H129935   1.719   4.467  17.424 -0.3798 -1.1458 -0.6787
 2840TIP3    H229936   1.869   4.466  17.409 -0.1567  0.7621  1.0507
 2841TIP3   OH229937   5.779   6.562   2.033  0.6079  0.0204 -0.0532
 2841TIP3    H129938   5.866   6.600   2.015  0.4350  0.0887 -0.7831
 2841TIP3    H229939   5.788   6.470   2.010  0.8345 -0.2450  1.0712
 2842TIP3   OH229940   3.608   0.768  14.564 -0.0922  0.5933 -0.1716
 2842TIP3    H129941   3.559   0.686  14.569  1.2395 -0.2879 -0.8704
 2842TIP3    H229942   3.594   0.809  14.649 -0.0725 -0.7897  0.5342
 2843TIP3   OH229943   4.351   0.208  10.974 -0.0852  0.3854  0.3880
 2843TIP3    H129944   4.358   0.301  10.951 -0.1670 -0.0439 -1.6244
 2843TIP3    H229945   4.438   0.184  11.005  0.4438  0.7577 -0.7616
 2844TIP3   OH229946   4.606   5.887   6.204 -0.2042  0.0206  0.1954
 2844TIP3    H129947   4.563   5.801   6.200  1.4665 -0.8933  0.8917
 2844TIP3    H229948   4.682   5.873   6.261  0.3902  1.8513 -0.0900
 2845TIP3   OH229949   4.930   5.512   1.960  0.4208 -0.3484 -0.4776
 2845TIP3    H129950   5.017   5.529   1.925  0.1694 -1.9237 -1.9794
 2845TIP3    H229951   4.929   5.418   1.977 -0.3027 -0.0204  1.5726
 2846TIP3   OH229952   1.406   0.099   5.067  0.0709  0.2980  0.3662
 2846TIP3    H129953   1.453   0.088   5.150  2.0284 -0.5418 -0.7971
 2846TIP3    H229954   1.412   0.192   5.048  2.5267  0.0578 -0.3964
 2847TIP3   OH229955   2.523   4.490   0.814  0.4449  0.1097  0.3232
 2847TIP3    H129956   2.595   4.542   0.849 -0.6504  1.6998  0.3052
 2847TIP3    H229957   2.483   4.450   0.891 -0.2199  1.3200  0.6313
 2848TIP3   OH229958   2.418   4.334  10.908 -0.1084  0.1563 -0.2706
 2848TIP3    H129959   2.446   4.302  10.822 -0.8357 -2.4975  0.3892
 2848TIP3    H229960   2.345   4.393  10.889 -0.9214 -1.1691 -1.4635
 2849TIP3   OH229961   3.739   3.291  16.379  0.7124 -0.6301 -0.4240
 2849TIP3    H129962   3.717   3.376  16.340  1.2761 -0.2279  0.1111
 2849TIP3    H229963   3.700   3.227  16.320 -1.2420  0.0087  0.0852
 2850TIP3   OH229964   1.711   3.169  16.255 -0.2747  0.5606  0.4084
 2850TIP3    H129965   1.787   3.110  16.247 -1.2158 -0.4879 -1.6928
 2850TIP3    H229966   1.652   3.124  16.315 -0.2706  0.1481  0.1111
 2851TIP3   OH229967   0.633   6.432   0.879  0.6367 -0.4375 -0.4544
 2851TIP3    H129968   0.546   6.405   0.909  2.1353 -2.0627  2.9829
 2851TIP3    H229969   0.640   6.524   0.906  0.0481 -0.3480 -0.5953
 2852TIP3   OH229970   3.844   3.404   4.683 -0.0293 -0.3719  0.5211
 2852TIP3    H129971   3.938   3.408   4.669 -0.0350  1.3705  0.7253
 2852TIP3    H229972   3.827   3.314   4.709  1.5116 -0.8249  0.0546
 2853TIP3   OH229973   2.443   3.399  15.658  0.0562  0.4502 -0.0874
 2853TIP3    H129974   2.383   3.397  15.583 -1.1462 -0.5530  0.8696
 2853TIP3    H229975   2.399   3.456  15.722 -0.3455 -1.0055  0.9716
 2854TIP3   OH229976   1.162   0.795   2.300  0.4284  0.0253 -0.5218
 2854TIP3    H129977   1.189   0.716   2.346  1.5737  1.0503  0.6590
 2854TIP3    H229978   1.095   0.834   2.357  0.4142  0.2952 -0.7221
 2855TIP3   OH229979   2.213   1.569  11.209 -0.3648 -0.2239  0.2009
 2855TIP3    H129980   2.130   1.604  11.175 -0.5250  1.2250  1.9308
 2855TIP3    H229981   2.251   1.522  11.135 -2.0849  0.2243 -1.0439
 2856TIP3   OH229982   6.066   3.377  16.614 -0.1253  0.0734 -0.3881
 2856TIP3    H129983   6.055   3.472  16.616 -0.2004  0.0556  0.5304
 2856TIP3    H229984   6.159   3.363  16.630 -0.5287 -0.0589  2.2737
 2857TIP3   OH229985   5.435   0.925  12.890 -0.4788 -0.4333  0.2804
 2857TIP3    H129986   5.350   0.914  12.847 -0.3182  0.1868 -0.2115
 2857TIP3    H229987   5.414   0.929  12.984 -0.9979 -0.2183  0.1597
 2858TIP3   OH229988   1.132   5.564  15.544 -0.0425 -0.6106  0.5204
 2858TIP3    H129989   1.110   5.494  15.483  1.9324 -0.9822  0.1938
 2858TIP3    H229990   1.104   5.531  15.629 -1.5156 -0.6672  0.0583
 2859TIP3   OH229991   3.848   2.883   5.729 -0.2444 -0.4194 -0.3725
 2859TIP3    H129992   3.866   2.948   5.662 -1.7850  0.1752 -0.2571
 2859TIP3    H229993   3.906   2.810   5.708  0.1020  0.1961 -1.6676
 2860TIP3   OH229994   5.697   0.975   1.353 -0.3954 -0.4351  0.1275
 2860TIP3    H129995   5.723   1.063   1.379 -1.4887  0.0302 -0.3081
 2860TIP3    H229996   5.770   0.920   1.380  0.5272  0.6661 -0.0455
 2861TIP3   OH229997   1.886   3.361   5.545  0.5995  0.5302 -0.6994
 2861TIP3    H129998   1.801   3.373   5.503  0.9263 -0.3266 -1.6489
 2861TIP3    H229999   1.894   3.435   5.605 -1.7149 -0.4435  0.9552
 2862TIP3   OH230000   4.968   5.351  14.724 -0.2578  0.0802 -0.0497
 2862TIP3    H130001   4.924   5.270  14.750  2.6615 -1.7349 -0.3553
 2862TIP3    H230002   5.014   5.379  14.803 -3.9138  3.6068  1.1857
 2863TIP3   OH230003   6.063   4.676   4.621  0.2741 -0.0195  0.3276
 2863TIP3    H130004   6.018   4.760   4.632  0.2825 -0.2272  2.2797
 2863TIP3    H230005   5.996   4.618   4.584  0.1215  0.6879 -0.5432
 2864TIP3   OH230006   5.465   0.509   4.073 -0.1634  0.5466 -0.1981
 2864TIP3    H130007   5.536   0.467   4.121 -0.7943  1.9076  2.0807
 2864TIP3    H230008   5.494   0.599   4.058 -0.9746  0.8278 -0.1615
 2865TIP3   OH230009   0.955   2.708   1.079 -0.1910 -0.3001 -0.5109
 2865TIP3    H130010   0.936   2.721   1.172  1.1425 -0.4674 -0.1874
 2865TIP3    H230011   0.985   2.617   1.074  0.7754  0.0303 -0.9091
 2866TIP3   OH230012   4.662   2.413  13.625  0.4453 -0.1742 -0.0209
 2866TIP3    H130013   4.728   2.393  13.559  2.6477  2.0936  1.3173
 2866TIP3    H230014   4.627   2.498  13.598 -1.0014 -0.7304  0.0278
 2867TIP3   OH230015   4.077   3.832  11.450  0.1063  0.1521  0.3683
 2867TIP3    H130016   4.120   3.747  11.438 -2.0919 -1.4493  2.6067
 2867TIP3    H230017   4.023   3.842  11.372  1.6297  0.3591 -0.6972
 2868TIP3   OH230018   1.660   2.009  14.683  0.0745 -0.2300 -0.5935
 2868TIP3    H130019   1.701   2.093  14.706  1.4714 -0.9851 -0.2199
 2868TIP3    H230020   1.576   2.010  14.729  0.6476  0.4175  0.4773
 2869TIP3   OH230021   2.159   2.156  13.893  0.3954 -0.4057  0.0473
 2869TIP3    H130022   2.188   2.232  13.943  1.0262 -0.5338 -0.1128
 2869TIP3    H230023   2.179   2.177  13.802  0.7592 -0.8365  0.0200
 2870TIP3   OH230024   0.633   1.431  16.856 -0.0699 -0.1811 -0.4333
 2870TIP3    H130025   0.559   1.434  16.795 -1.0442  1.0344  0.7303
 2870TIP3    H230026   0.606   1.488  16.929  1.5874 -0.5435  0.5180
 2871TIP3   OH230027   2.006   4.561  11.552  0.0592 -0.3365 -0.1213
 2871TIP3    H130028   2.031   4.482  11.504  3.1250  0.5371 -0.1769
 2871TIP3    H230029   1.971   4.619  11.484 -1.6273 -1.3527 -0.1779
 2872TIP3   OH230030   6.733   3.376   1.242  0.6635 -0.0609  0.3245
 2872TIP3    H130031   6.794   3.447   1.258  2.1150 -1.4934  1.4998
 2872TIP3    H230032   6.788   3.303   1.212 -0.5578 -1.1617  0.6450
 2873TIP3   OH230033   4.426   5.182   5.723 -1.2413  0.0931 -0.0441
 2873TIP3    H130034   4.476   5.120   5.668  1.4612  2.5533 -0.6051
 2873TIP3    H230035   4.338   5.181   5.685 -0.1833 -0.3021 -2.7947
 2874TIP3   OH230036   0.056   2.956  12.274 -0.4718  0.0824  0.2456
 2874TIP3    H130037   0.021   3.000  12.196 -0.1441 -1.0407 -0.5575
 2874TIP3    H230038   0.100   2.878  12.240 -0.0646 -0.2739  1.5362
 2875TIP3   OH230039   1.501   0.330  15.849 -0.2133 -0.1944 -0.4241
 2875TIP3    H130040   1.586   0.293  15.871  0.4150  0.8606 -1.0086
 2875TIP3    H230041   1.495   0.409  15.903  0.0062  0.7430 -1.7234
 2876TIP3   OH230042   1.732   5.848   1.720  0.4457  0.3455 -0.0033
 2876TIP3    H130043   1.765   5.760   1.702  2.1400  0.6327  1.4227
 2876TIP3    H230044   1.647   5.834   1.763 -0.0480 -0.5056 -1.2061
 2877TIP3   OH230045   5.630   3.190   6.638  0.0761  0.1646 -0.0130
 2877TIP3    H130046   5.656   3.259   6.577 -1.0085  0.7363  0.1488
 2877TIP3    H230047   5.598   3.237   6.715 -0.3146 -0.5255  0.2559
 2878TIP3   OH230048   1.198   2.669   0.090 -0.0344 -0.2048  0.2175
 2878TIP3    H130049   1.232   2.604   0.028  1.9916  1.7696 -0.8924
 2878TIP3    H230050   1.178   2.745   0.036 -2.1198  0.2361  1.5157
 2879TIP3   OH230051   5.012   3.215   0.808 -0.5368  0.4654  0.0616
 2879TIP3    H130052   4.986   3.252   0.724  0.2931  0.8079 -0.0511
 2879TIP3    H230053   5.086   3.158   0.788 -0.8776 -0.1160  0.4414
 2880TIP3   OH230054   6.647   5.543   1.249 -0.3476 -0.2409 -0.0507
 2880TIP3    H130055   6.716   5.589   1.297  0.2418 -0.2062 -0.9095
 2880TIP3    H230056   6.571   5.548   1.307  0.8412 -1.9702  1.8205
 2881TIP3   OH230057   0.238   2.026   4.924 -0.5059  0.0898  0.4050
 2881TIP3    H130058   0.298   2.098   4.908 -0.7604  0.5248  1.3399
 2881TIP3    H230059   0.153   2.067   4.939 -0.5998 -0.3627  1.2365
 2882TIP3   OH230060   3.476   2.178   4.954 -0.1782 -0.1532 -0.0490
 2882TIP3    H130061   3.545   2.245   4.956 -1.0280  0.7923 -1.0642
 2882TIP3    H230062   3.521   2.096   4.974  1.0210  0.6078  0.4977
 2883TIP3   OH230063   1.641   6.045  15.372  0.2578 -0.3459 -0.0828
 2883TIP3    H130064   1.568   5.982  15.376  0.9987 -1.5191 -2.6055
 2883TIP3    H230065   1.607   6.119  15.322  0.2181 -0.0085  0.4418
 2884TIP3   OH230066   4.020   5.725  12.456 -0.1139  0.2117 -0.2384
 2884TIP3    H130067   3.963   5.735  12.532 -0.5486 -2.9318 -0.0125
 2884TIP3    H230068   3.962   5.729  12.380 -0.1653  0.1709 -0.2012
 2885TIP3   OH230069   2.100   3.270   5.418 -0.0802 -0.0456  0.1752
 2885TIP3    H130070   2.069   3.199   5.362  0.1470  0.1904 -0.2606
 2885TIP3    H230071   2.026   3.290   5.475  0.2001 -1.3293  1.0211
 2886TIP3   OH230072   1.910   6.103   2.588  0.4001 -0.0981 -0.2256
 2886TIP3    H130073   1.881   6.189   2.558 -0.2485 -0.2902 -0.1560
 2886TIP3    H230074   2.001   6.117   2.617  0.8194  0.2377 -1.6186
 2887TIP3   OH230075   5.136   2.221   5.802  0.3608  0.0983  0.0276
 2887TIP3    H130076   5.154   2.128   5.812  1.0822  0.1862 -0.4001
 2887TIP3    H230077   5.220   2.260   5.777  0.0664  0.8619  0.1897
 2888TIP3   OH230078   6.457   6.377   5.756  0.0907 -0.1336  0.3336
 2888TIP3    H130079   6.380   6.377   5.699 -0.8574  0.8326  1.5529
 2888TIP3    H230080   6.421   6.367   5.844  0.8941  4.4753  1.4464
 2889TIP3   OH230081   4.640   2.751  12.826 -0.1785 -0.1471  0.0275
 2889TIP3    H130082   4.730   2.768  12.854  0.1465 -1.2872 -0.2903
 2889TIP3    H230083   4.646   2.673  12.770 -1.4298 -0.5559  0.4304
 2890TIP3   OH230084   0.631   4.755   0.295 -0.0727  0.4113 -0.3365
 2890TIP3    H130085   0.644   4.665   0.325 -0.8603  0.5873  0.5963
 2890TIP3    H230086   0.571   4.794   0.360  0.5916  1.7325 -0.4718
 2891TIP3   OH230087   6.073   1.694  17.037  0.3712  0.4478  0.1043
 2891TIP3    H130088   6.148   1.638  17.018  1.0752  0.6899  1.9987
 2891TIP3    H230089   6.075   1.761  16.968 -0.5995 -1.8228 -2.3174
 2892TIP3   OH230090   0.606   2.113  13.203  0.0688  0.2305  0.1428
 2892TIP3    H130091   0.689   2.067  13.221 -0.2738 -0.3947  0.1438
 2892TIP3    H230092   0.627   2.171  13.131 -0.0389 -1.5526 -1.4053
 2893TIP3   OH230093   0.548   1.021   2.712  0.3688 -0.2175 -0.1863
 2893TIP3    H130094   0.516   0.979   2.792  1.1523 -0.9563 -0.2479
 2893TIP3    H230095   0.639   0.992   2.705  0.2441 -0.3346 -1.4535
 2894TIP3   OH230096   3.591   5.175  16.738  0.6614  0.2713 -0.3210
 2894TIP3    H130097   3.608   5.210  16.825 -0.2471 -0.0304 -0.0094
 2894TIP3    H230098   3.571   5.252  16.684 -2.8429  0.2618  0.7055
 2895TIP3   OH230099   1.636   3.245  15.479  0.3739  0.5715 -0.3976
 2895TIP3    H130100   1.665   3.164  15.436  0.0276  0.4246 -0.3574
 2895TIP3    H230101   1.677   3.241  15.565 -0.5351 -0.1219  0.0260
 2896TIP3   OH230102   4.659   4.390   3.401  0.2717  0.0294  0.6623
 2896TIP3    H130103   4.564   4.402   3.394  0.5455  1.6331 -0.8500
 2896TIP3    H230104   4.688   4.461   3.457  0.8999  1.4383 -1.3575
 2897TIP3   OH230105   4.278   4.180   5.735  0.5352  0.1159  0.3393
 2897TIP3    H130106   4.235   4.119   5.795 -0.8407  0.0638 -0.6374
 2897TIP3    H230107   4.208   4.240   5.708  2.1205  3.0828  2.3425
 2898TIP3   OH230108   0.014   5.172   2.321  0.5882 -0.2537  0.2902
 2898TIP3    H130109   0.093   5.128   2.290  1.5120  1.8591 -0.5204
 2898TIP3    H230110  -0.006   5.129   2.405  2.2843 -1.1705  0.2705
 2899TIP3   OH230111   5.039   2.443  11.234 -0.2019 -0.4122 -0.1250
 2899TIP3    H130112   4.956   2.395  11.247  0.1354 -1.3424 -1.2384
 2899TIP3    H230113   5.013   2.524  11.191 -0.8413  0.7321  2.2353
 2900TIP3   OH230114   3.972   6.406   1.461  0.1078 -0.2192 -0.3417
 2900TIP3    H130115   3.896   6.348   1.466  0.3075 -0.3561  1.7171
 2900TIP3    H230116   3.935   6.494   1.461 -0.0662 -0.2931 -0.0611
 2901TIP3   OH230117   0.503   0.793   0.063  0.1007 -0.4148  0.8961
 2901TIP3    H130118   0.525   0.831  -0.022  1.7594 -0.2390  1.3682
 2901TIP3    H230119   0.438   0.726   0.043 -0.5606  0.5514 -0.3278
 2902TIP3   OH230120   2.490   4.992   2.731  0.6945  0.4058 -0.1142
 2902TIP3    H130121   2.502   4.898   2.740  0.1240  0.2434 -0.9483
 2902TIP3    H230122   2.396   5.006   2.740  0.5582  0.6764 -1.7191
 2903TIP3   OH230123   2.306   1.553  14.771 -0.0037  0.6280 -0.4208
 2903TIP3    H130124   2.326   1.636  14.727  0.3434  0.3731 -0.7515
 2903TIP3    H230125   2.211   1.543  14.761 -0.0473  0.9868 -0.3746
 2904TIP3   OH230126   0.310   3.770   2.006 -0.5832 -0.5023 -0.1243
 2904TIP3    H130127   0.338   3.729   2.087 -0.3937 -0.4702 -0.1728
 2904TIP3    H230128   0.250   3.839   2.034  0.2318  0.1525  0.0646
 2905TIP3   OH230129   3.336   5.030  16.821 -0.2979  0.5464  0.2195
 2905TIP3    H130130   3.387   5.110  16.814  1.5107 -0.6060 -0.3899
 2905TIP3    H230131   3.369   4.987  16.899 -0.5488 -0.0690 -0.0058
 2906TIP3   OH230132   1.913   4.996   2.227 -0.6467 -0.2072  0.1128
 2906TIP3    H130133   1.939   5.056   2.297  2.3361 -0.9282 -0.2253
 2906TIP3    H230134   1.864   5.050   2.165  0.5121  1.5139  0.6161
 2907TIP3   OH230135   6.171   3.214   4.122  0.0663  0.0693  0.1891
 2907TIP3    H130136   6.220   3.266   4.059  1.8588 -0.9263  0.7149
 2907TIP3    H230137   6.203   3.125   4.110 -0.4601 -0.3415  1.6513
 2908TIP3   OH230138   5.454   4.048   3.147  0.2627  0.7051  0.5019
 2908TIP3    H130139   5.428   4.064   3.237 -0.6748  1.5460  0.1001
 2908TIP3    H230140   5.453   4.134   3.106  0.5343  0.3159 -0.3469
 2909TIP3   OH230141   3.951   0.024   1.160 -0.2687 -0.0620  0.5417
 2909TIP3    H130142   4.003  -0.022   1.094  0.0857  0.1978  0.6353
 2909TIP3    H230143   3.896   0.083   1.110 -0.1603 -0.0271  0.4619
 2910TIP3   OH230144   2.251   6.390   0.857 -0.1222 -0.3513 -0.3868
 2910TIP3    H130145   2.200   6.310   0.850  0.8798 -0.9536 -1.0612
 2910TIP3    H230146   2.192   6.453   0.900 -1.6398 -0.8099 -1.7087
 2911TIP3   OH230147   2.735   4.739  11.720  0.1687 -0.2074  0.2239
 2911TIP3    H130148   2.773   4.776  11.800 -0.0088 -0.5309  0.4635
 2911TIP3    H230149   2.680   4.666  11.751  0.4101 -0.5887 -0.2248
 2912TIP3   OH230150   0.558   6.582   5.099 -0.9985  0.3450  0.0867
 2912TIP3    H130151   0.542   6.498   5.056 -0.4407  0.9029 -1.2346
 2912TIP3    H230152   0.648   6.576   5.131 -0.7159  0.6844 -0.6211
 2913TIP3   OH230153   6.114   3.790  17.170  0.2709 -0.4137 -0.3422
 2913TIP3    H130154   6.071   3.797  17.084 -0.5692 -0.3483  0.0705
 2913TIP3    H230155   6.054   3.736  17.222  1.2195 -1.2271 -0.0624
 2914TIP3   OH230156   1.417   6.119   3.081  0.0206 -0.0711 -0.3031
 2914TIP3    H130157   1.480   6.167   3.134  0.5442 -1.3967  0.3239
 2914TIP3    H230158   1.456   6.117   2.993 -0.4711  1.4416 -0.5795
 2915TIP3   OH230159   3.338   2.876   0.381 -0.0468  0.1325 -0.5405
 2915TIP3    H130160   3.339   2.926   0.463  1.7403 -0.5870 -0.0662
 2915TIP3    H230161   3.409   2.912   0.329 -0.2949 -0.3196 -1.2140
 2916TIP3   OH230162   0.752   0.021  13.299  0.1295 -0.2064  0.4511
 2916TIP3    H130163   0.672   0.039  13.250 -0.1211 -1.7021  0.2649
 2916TIP3    H230164   0.821   0.018  13.232  0.1249 -0.2309  0.4472
 2917TIP3   OH230165   0.195   3.198  14.075  0.0984  0.8223  0.3160
 2917TIP3    H130166   0.236   3.272  14.031  1.2688  1.1753  1.9158
 2917TIP3    H230167   0.106   3.229  14.095  0.6396  1.8815  1.1452
 2918TIP3   OH230168   4.497   4.871   2.317  0.2534  0.0492 -0.3188
 2918TIP3    H130169   4.589   4.845   2.314  0.7850  1.8760 -1.5125
 2918TIP3    H230170   4.470   4.875   2.225 -0.4101  1.4087 -0.0974
 2919TIP3   OH230171   1.733   1.441   2.460  0.0093 -0.5128 -0.0622
 2919TIP3    H130172   1.720   1.508   2.394  2.0251 -0.5303 -0.5370
 2919TIP3    H230173   1.645   1.404   2.474 -1.0016  1.5845 -0.4080
 2920TIP3   OH230174   3.721   3.211  15.333 -0.8548 -0.6300  0.3166
 2920TIP3    H130175   3.777   3.277  15.373 -1.2822  0.1299 -0.3269
 2920TIP3    H230176   3.781   3.157  15.281 -0.6726  0.0273 -0.1710
 2921TIP3   OH230177   0.542   1.190  15.584 -0.2546 -0.0184 -0.1350
 2921TIP3    H130178   0.494   1.128  15.640 -2.2813  1.1869 -0.4371
 2921TIP3    H230179   0.628   1.198  15.626 -0.9540 -0.8143  1.5649
 2922TIP3   OH230180   6.477   4.097   1.876 -0.1316 -0.4039 -0.1892
 2922TIP3    H130181   6.534   4.153   1.823 -0.0921  0.0023  0.2708
 2922TIP3    H230182   6.415   4.060   1.814 -0.0317  0.0032 -0.5352
 2923TIP3   OH230183   0.583   6.450  15.633  0.3059 -0.3446  0.2507
 2923TIP3    H130184   0.541   6.391  15.696 -0.1205  1.7521  2.0532
 2923TIP3    H230185   0.546   6.425  15.548 -2.0928 -0.7474  1.3429
 2924TIP3   OH230186   4.331   3.524  11.812  0.2261 -0.2684 -0.1288
 2924TIP3    H130187   4.301   3.609  11.780 -1.8507 -0.8901  0.0250
 2924TIP3    H230188   4.327   3.531  11.907  1.6433 -0.0238 -0.0721
 2925TIP3   OH230189   2.980   0.157   1.672  0.5882 -0.1752  0.1936
 2925TIP3    H130190   3.027   0.089   1.721  0.7478 -0.4211 -0.2987
 2925TIP3    H230191   2.902   0.113   1.638  0.9142 -0.2270 -0.4920
 2926TIP3   OH230192   4.347   4.011   0.980  0.0393  0.1208  0.4310
 2926TIP3    H130193   4.254   4.000   1.002  0.3215 -1.4298  0.9702
 2926TIP3    H230194   4.361   4.106   0.983 -0.9792  0.2656  2.6684
 2927TIP3   OH230195   6.273   4.086  16.860 -0.1621  0.0997 -0.3977
 2927TIP3    H130196   6.239   4.013  16.911 -0.7684 -0.5670 -1.7151
 2927TIP3    H230197   6.336   4.045  16.801 -0.3539  0.6775 -1.0006
 2928TIP3   OH230198   4.801   3.695  11.817  0.1521  0.5899  0.8017
 2928TIP3    H130199   4.753   3.675  11.898 -1.5329 -1.2257 -0.5581
 2928TIP3    H230200   4.747   3.760  11.772  1.2156  1.7927  1.1856
 2929TIP3   OH230201   3.131   5.364   3.909  1.0296 -0.1438 -0.7774
 2929TIP3    H130202   3.184   5.413   3.972 -0.3608 -0.4233  0.6670
 2929TIP3    H230203   3.175   5.377   3.825  1.6681  2.1202 -0.1460
 2930TIP3   OH230204   4.551   4.357   2.513 -0.3023 -0.2090  0.8673
 2930TIP3    H130205   4.474   4.414   2.504 -1.2452 -1.3485  1.3105
 2930TIP3    H230206   4.619   4.400   2.463 -1.0005  1.2590  1.1309
 2931TIP3   OH230207   0.833   2.459  13.129 -0.2000  0.0755 -0.0117
 2931TIP3    H130208   0.813   2.453  13.222  2.3073 -0.5092  0.5737
 2931TIP3    H230209   0.859   2.550  13.116 -2.3206  0.6454 -0.6049
 2932TIP3   OH230210   4.829   5.844  16.045  0.7102  0.1947  0.1759
 2932TIP3    H130211   4.793   5.852  15.957 -1.3383 -0.1106  0.9285
 2932TIP3    H230212   4.904   5.785  16.035 -1.8704 -3.2594 -0.8372
 2933TIP3   OH230213   0.182   1.770   4.581  0.5351  0.6739 -0.0440
 2933TIP3    H130214   0.176   1.717   4.660  0.0378  1.5260  0.5066
 2933TIP3    H230215   0.263   1.821   4.592 -0.1250  1.6433  0.4764
 2934TIP3   OH230216   0.888   3.528  15.781 -0.1598  0.4084 -0.3692
 2934TIP3    H130217   0.952   3.500  15.846 -1.8333  1.5882  1.9254
 2934TIP3    H230218   0.851   3.446  15.747 -0.8817 -0.2849  1.9206
 2935TIP3   OH230219   5.440   4.473   0.513 -0.3798  0.0041 -0.0057
 2935TIP3    H130220   5.477   4.384   0.511 -0.1493  0.1117 -0.6252
 2935TIP3    H230221   5.440   4.501   0.421  0.7626  1.1500  0.3155
 2936TIP3   OH230222   1.680   4.124  12.581 -0.4735  0.2137  0.8245
 2936TIP3    H130223   1.666   4.044  12.530 -1.2024  0.6061  0.4019
 2936TIP3    H230224   1.686   4.193  12.515  3.9077  0.1201  0.8158
 2937TIP3   OH230225   5.863   2.208   3.119  0.7260 -0.5102  0.3178
 2937TIP3    H130226   5.789   2.167   3.075  0.7214 -0.7609  0.5582
 2937TIP3    H230227   5.900   2.267   3.053  1.3997 -1.7133 -0.4069
 2938TIP3   OH230228   0.378   6.342   0.602  0.1514 -0.1675 -0.4551
 2938TIP3    H130229   0.326   6.283   0.548 -0.0307 -1.0307  0.6262
 2938TIP3    H230230   0.447   6.373   0.544 -1.2066  0.5479 -1.7481
 2939TIP3   OH230231   2.968   1.371  16.734  1.0856 -0.3633  0.2050
 2939TIP3    H130232   2.879   1.335  16.737 -0.4662  3.1051  1.4354
 2939TIP3    H230233   3.015   1.313  16.674 -2.1265 -2.0603 -0.9389
 2940TIP3   OH230234   3.379   4.710  14.975  0.0691  0.0533  0.4274
 2940TIP3    H130235   3.349   4.621  14.959 -2.8383  0.7727  1.3174
 2940TIP3    H230236   3.364   4.725  15.068  1.7195  1.1038  0.5715
 2941TIP3   OH230237   4.155   4.711   4.278 -0.0200 -0.0030  0.0086
 2941TIP3    H130238   4.129   4.732   4.188 -1.2620  0.2081  0.3914
 2941TIP3    H230239   4.079   4.665   4.314  1.3985 -2.3084  0.2010
 2942TIP3   OH230240   6.342   2.549  16.589 -0.4589  0.1919 -0.3572
 2942TIP3    H130241   6.301   2.550  16.502 -0.7811 -0.1797 -0.2144
 2942TIP3    H230242   6.294   2.481  16.637  0.8061 -0.7823 -0.4144
 2943TIP3   OH230243   6.320   5.085  17.090 -0.4676 -0.4674 -0.4483
 2943TIP3    H130244   6.292   5.071  16.999 -0.1719 -1.8953 -0.3312
 2943TIP3    H230245   6.401   5.036  17.098 -0.7323 -0.7325  0.7179
 2944TIP3   OH230246   4.853   2.959   5.380 -0.2541 -0.4548  0.2989
 2944TIP3    H130247   4.922   2.915   5.330  1.1181  0.4817  1.2926
 2944TIP3    H230248   4.858   2.920   5.467 -0.0529  0.5624  0.7513
 2945TIP3   OH230249   3.476   5.203  15.861  0.2244  0.3543  0.3522
 2945TIP3    H130250   3.570   5.196  15.842 -0.2986 -1.3256 -2.1322
 2945TIP3    H230251   3.448   5.283  15.816  0.6427  1.6443  2.2720
 2946TIP3   OH230252   3.284   6.463  14.312 -0.5899 -0.4290 -0.1933
 2946TIP3    H130253   3.306   6.396  14.247 -1.1586  0.5715 -1.4529
 2946TIP3    H230254   3.310   6.546  14.272  0.2875  0.1255  1.4216
 2947TIP3   OH230255   1.393   6.427  11.414  0.1410 -0.3677 -0.1040
 2947TIP3    H130256   1.333   6.476  11.360 -0.0730 -0.8240 -0.2843
 2947TIP3    H230257   1.372   6.335  11.397 -0.1546 -0.5182  0.9968
 2948TIP3   OH230258   6.051   2.164  16.809  0.1798  0.1388  0.4906
 2948TIP3    H130259   6.004   2.087  16.842  0.7996 -0.3541  0.2439
 2948TIP3    H230260   5.997   2.196  16.737 -0.0714 -0.0902  0.5753
 2949TIP3   OH230261   6.221   4.670  12.983 -0.2248  0.2670 -0.3479
 2949TIP3    H130262   6.279   4.619  12.927 -0.0628  1.7028 -1.5402
 2949TIP3    H230263   6.136   4.625  12.977 -0.3972  0.7654 -2.3380
 2950TIP3   OH230264   6.732   5.414  15.945  0.6911 -0.2310 -0.2181
 2950TIP3    H130265   6.645   5.373  15.944  1.1740 -1.2995  0.2038
 2950TIP3    H230266   6.714   5.505  15.966 -0.2793 -0.5814  0.5838
 2951TIP3   OH230267   5.873   6.201  15.420  0.3512  0.2343  0.0222
 2951TIP3    H130268   5.791   6.193  15.372  0.8862 -0.1588 -0.8487
 2951TIP3    H230269   5.875   6.292  15.450 -1.4930 -0.3373  2.1002
 2952TIP3   OH230270   3.353   5.473  15.797 -0.0853 -0.2528 -0.0640
 2952TIP3    H130271   3.358   5.487  15.702 -0.1906  2.6900  0.2659
 2952TIP3    H230272   3.264   5.441  15.811 -1.0552  1.8833 -0.8033
 2953TIP3   OH230273   6.235   1.015  11.871 -0.2508 -0.2225 -0.3526
 2953TIP3    H130274   6.211   1.103  11.842  1.6288 -0.3470 -2.5064
 2953TIP3    H230275   6.234   0.961  11.792 -0.3277 -1.9321  0.7473
 2954TIP3   OH230276   2.865   5.477  13.207 -0.2712 -0.0986 -0.3518
 2954TIP3    H130277   2.888   5.408  13.269  0.5574 -0.4250 -1.0009
 2954TIP3    H230278   2.887   5.559  13.252 -2.5642 -0.1478  0.9721
 2955TIP3   OH230279   5.815   0.456  17.338  0.3778  0.0018 -0.1181
 2955TIP3    H130280   5.737   0.429  17.385 -1.0924  0.9298 -1.9016
 2955TIP3    H230281   5.792   0.541  17.300  2.1019  0.0995 -1.0343
 2956TIP3   OH230282   3.668   2.699  15.294 -0.8607  0.0344 -0.2719
 2956TIP3    H130283   3.695   2.611  15.322 -1.5985  0.0188  0.4117
 2956TIP3    H230284   3.616   2.685  15.215 -0.6630 -0.1108 -0.3770
 2957TIP3   OH230285   5.971   2.405   0.758  0.4669  0.1769  0.5484
 2957TIP3    H130286   6.045   2.409   0.697 -0.5527  0.4790 -0.7133
 2957TIP3    H230287   6.003   2.352   0.831  1.5413 -0.7030 -0.5116
 2958TIP3   OH230288   4.938   4.978   3.303  0.0691  0.1611 -0.1298
 2958TIP3    H130289   5.020   4.952   3.344 -0.9896  0.3868  2.2841
 2958TIP3    H230290   4.903   4.897   3.265 -0.3163 -0.7641  2.0632
 2959TIP3   OH230291   4.562   1.887  10.733  0.3365  0.0419 -0.0935
 2959TIP3    H130292   4.600   1.885  10.821 -3.2401  1.9410  1.6917
 2959TIP3    H230293   4.583   1.974  10.700  1.3408 -0.5343 -1.0417
 2960TIP3   OH230294   4.530   6.396   3.292 -0.4579 -0.1857  0.1100
 2960TIP3    H130295   4.602   6.343   3.326  0.7442  1.3722  0.0926
 2960TIP3    H230296   4.552   6.410   3.200 -0.8754  0.1666  0.0622
 2961TIP3   OH230297   1.176   1.528   4.751 -0.2957 -0.0281 -0.6377
 2961TIP3    H130298   1.117   1.473   4.700 -1.6150  2.3713 -1.8650
 2961TIP3    H230299   1.255   1.535   4.696 -0.3213 -0.2458 -0.7059
 2962TIP3   OH230300   2.033   1.496  14.800  0.5459  0.2089 -0.2948
 2962TIP3    H130301   1.981   1.566  14.839 -0.7544  0.5618 -2.4875
 2962TIP3    H230302   1.998   1.415  14.839  1.3415  0.6396  1.4402
 2963TIP3   OH230303   3.457   1.416  16.133  0.0854  0.3603 -0.2985
 2963TIP3    H130304   3.427   1.498  16.093 -0.5408  0.3746  0.1775
 2963TIP3    H230305   3.442   1.349  16.066  3.7057  1.0348 -2.0215
 2964TIP3   OH230306   5.629   1.945   1.581 -0.4302 -0.1158  0.0187
 2964TIP3    H130307   5.689   1.871   1.586  0.3193  0.5201  0.6744
 2964TIP3    H230308   5.573   1.925   1.505 -0.6469 -1.6341  0.5382
 2965TIP3   OH230309   5.240   5.901   0.413  0.1844  0.3889  0.1686
 2965TIP3    H130310   5.222   5.808   0.402  1.6234 -0.4978  3.7661
 2965TIP3    H230311   5.303   5.922   0.344 -0.3558 -1.2325 -0.8606
 2966TIP3   OH230312   6.675   3.125   4.071  0.0504 -0.0927 -0.0677
 2966TIP3    H130313   6.710   3.115   4.160 -0.2707  0.3263  0.1118
 2966TIP3    H230314   6.677   3.219   4.056 -2.1156  0.0878  0.4279
 2967TIP3   OH230315   1.917   4.487   3.024 -0.4321 -0.2764 -0.1352
 2967TIP3    H130316   1.969   4.416   2.987  0.8567  1.0292 -0.9625
 2967TIP3    H230317   1.968   4.518   3.098 -0.0688  0.9094 -0.8522
 2968TIP3   OH230318   4.084   1.590   6.650 -0.0537 -0.2846  0.2283
 2968TIP3    H130319   4.019   1.563   6.716 -0.7177  0.5735 -0.0524
 2968TIP3    H230320   4.042   1.663   6.604  1.1597  0.3703  0.1153
 2969TIP3   OH230321   0.833   0.024   3.280  0.3526 -0.3499  0.3906
 2969TIP3    H130322   0.799   0.040   3.192  0.7610 -0.0278  0.2848
 2969TIP3    H230323   0.827   0.110   3.323  2.7010  0.1814 -0.2172
 2970TIP3   OH230324   5.284   6.027   2.421 -0.4497  0.2960 -0.3933
 2970TIP3    H130325   5.305   5.934   2.412 -0.1549  0.3252 -0.0415
 2970TIP3    H230326   5.256   6.036   2.513  0.4789  0.7335 -0.1389
 2971TIP3   OH230327   2.002   1.457  16.059  0.3374  0.7928 -0.1330
 2971TIP3    H130328   2.039   1.444  15.971  0.1778  0.2870 -0.1282
 2971TIP3    H230329   2.067   1.418  16.118  0.4032  1.0540 -0.0345
 2972TIP3   OH230330   4.644   6.644  17.237 -0.5441 -0.6691  0.2495
 2972TIP3    H130331   4.613   6.731  17.263  2.2361  0.7247 -0.6884
 2972TIP3    H230332   4.715   6.624  17.298  0.7421 -0.9365 -1.2529
 2973TIP3   OH230333   2.737   4.029  12.434 -0.3562 -0.2140 -0.0572
 2973TIP3    H130334   2.784   4.110  12.412 -0.4815 -0.5820 -1.7865
 2973TIP3    H230335   2.671   4.057  12.498 -0.1149  0.9601 -0.2921
 2974TIP3   OH230336   5.277   2.916  15.109  0.1355  0.2260  0.7757
 2974TIP3    H130337   5.362   2.952  15.136  0.5796 -0.8061  0.7758
 2974TIP3    H230338   5.214   2.981  15.141  0.8423  0.4492  1.7949
 2975TIP3   OH230339   1.284   3.740   4.805 -0.0970 -0.2079 -0.5442
 2975TIP3    H130340   1.251   3.650   4.803 -1.5561  0.3173 -1.5061
 2975TIP3    H230341   1.209   3.794   4.781  1.1535  1.1533 -1.5490
 2976TIP3   OH230342   2.201   5.671   3.084 -0.0711  0.1054  0.4677
 2976TIP3    H130343   2.292   5.692   3.106 -0.1889 -0.3375  1.4313
 2976TIP3    H230344   2.175   5.605   3.149 -1.0091  0.0649  0.0701
 2977TIP3   OH230345   0.841   5.380  14.622 -0.0974 -0.0474 -0.2897
 2977TIP3    H130346   0.846   5.462  14.573  1.5514 -0.2985 -0.5978
 2977TIP3    H230347   0.818   5.407  14.711 -1.5802  0.5421 -0.8116
 2978TIP3   OH230348   3.971   6.542  12.927 -0.0955  0.1871  0.1249
 2978TIP3    H130349   3.891   6.587  12.955 -0.4409 -2.0557  3.2759
 2978TIP3    H230350   3.940   6.470  12.873 -0.1722 -0.1274  0.5763
 2979TIP3   OH230351   1.973   6.615   3.557 -0.1963 -0.3491 -0.2234
 2979TIP3    H130352   1.918   6.681   3.514  0.2912 -0.9389 -1.8285
 2979TIP3    H230353   2.061   6.652   3.555 -0.4392  0.6125  2.3836
 2980TIP3   OH230354   2.444   4.174  14.414  0.2129 -0.3420 -0.2601
 2980TIP3    H130355   2.349   4.166  14.418  0.0255  0.7396 -1.8948
 2980TIP3    H230356   2.465   4.246  14.474 -0.0294 -0.2801 -0.2512
 2981TIP3   OH230357   2.528   0.845  10.427 -0.0583 -0.1796  0.0496
 2981TIP3    H130358   2.539   0.824  10.520 -0.2317  1.4898  0.4769
 2981TIP3    H230359   2.616   0.863  10.396 -0.0768 -0.0412  0.0757
 2982TIP3   OH230360   1.941   6.099  12.372  0.4888  0.7819 -0.6538
 2982TIP3    H130361   1.846   6.090  12.360  0.5452 -0.4885 -0.2817
 2982TIP3    H230362   1.951   6.182  12.419 -0.4963  0.6144 -0.1132
 2983TIP3   OH230363   4.512   3.865   4.620 -0.9501 -0.0149  0.0260
 2983TIP3    H130364   4.437   3.845   4.564 -0.1788  1.4465 -1.6473
 2983TIP3    H230365   4.571   3.915   4.564  1.0502 -0.6413  1.4498
 2984TIP3   OH230366   3.244   6.564   4.304 -0.6690  0.2978  0.2481
 2984TIP3    H130367   3.178   6.604   4.247 -1.3392 -2.4363 -1.0457
 2984TIP3    H230368   3.195   6.535   4.381 -0.7331 -0.4549 -0.0672
 2985TIP3   OH230369   5.993   4.020   3.206 -0.5509 -0.2013 -0.1471
 2985TIP3    H130370   5.946   3.942   3.234  0.0915 -0.6663 -0.3330
 2985TIP3    H230371   5.953   4.043   3.122 -0.4445 -0.6011 -0.3111
 2986TIP3   OH230372   5.307   0.700   4.399  0.1951 -0.4061  0.5316
 2986TIP3    H130373   5.262   0.730   4.478 -0.7284  0.4186 -0.2799
 2986TIP3    H230374   5.307   0.605   4.406 -0.7692 -0.3776  1.0636
 2987TIP3   OH230375   4.514   6.314  12.268 -0.6152  0.7644 -0.0071
 2987TIP3    H130376   4.509   6.394  12.319 -0.8168  1.3277 -0.8853
 2987TIP3    H230377   4.424   6.281  12.266 -0.5952  0.7053  0.0572
 2988TIP3   OH230378   0.964   3.558   5.081  0.4527 -0.0732 -0.1663
 2988TIP3    H130379   0.991   3.495   5.148 -0.2002 -1.4143 -1.1377
 2988TIP3    H230380   0.869   3.564   5.089  0.2708 -0.8296 -1.4390
 2989TIP3   OH230381   6.226   6.689   4.979  0.4556  0.0146 -0.6899
 2989TIP3    H130382   6.210   6.724   4.891  0.1038  0.6272 -0.3838
 2989TIP3    H230383   6.298   6.742   5.013 -0.5329  0.9228  0.0379
 2990TIP3   OH230384   4.544   1.642   1.615 -0.7747  0.2621 -0.1126
 2990TIP3    H130385   4.526   1.564   1.667 -1.4587  0.4190 -0.1071
 2990TIP3    H230386   4.462   1.660   1.570 -0.4185  0.5872 -0.6388
 2991TIP3   OH230387   5.384   4.841  14.278  0.1218 -0.1762  0.6955
 2991TIP3    H130388   5.312   4.849  14.216  0.7007 -0.2154  0.0188
 2991TIP3    H230389   5.357   4.896  14.352 -1.5533 -1.7609  1.3705
 2992TIP3   OH230390   5.793   2.427  11.691 -0.3174  0.3498 -0.1769
 2992TIP3    H130391   5.888   2.422  11.693 -0.3366 -0.1999 -0.3146
 2992TIP3    H230392   5.765   2.366  11.760 -0.5778 -0.0228 -0.6077
 2993TIP3   OH230393   4.021   1.292   2.112 -0.2953  0.2287  0.5611
 2993TIP3    H130394   3.991   1.315   2.200 -0.7673  1.2982  0.1427
 2993TIP3    H230395   3.989   1.363   2.056  0.1978 -0.3071 -0.4423
 2994TIP3   OH230396   5.867   4.380  16.047 -0.2189  0.0653  0.2434
 2994TIP3    H130397   5.811   4.443  16.001  2.2480  0.8243 -1.9234
 2994TIP3    H230398   5.933   4.433  16.091  0.4354 -0.9186  0.4814
 2995TIP3   OH230399   4.437   1.617  11.431 -0.7846  0.2506 -0.2315
 2995TIP3    H130400   4.426   1.547  11.495 -0.0045  0.2645 -0.0734
 2995TIP3    H230401   4.491   1.578  11.362 -2.1934  0.0113 -1.2493
 2996TIP3   OH230402   4.284   1.344   2.622 -0.8894 -0.0727  0.0096
 2996TIP3    H130403   4.267   1.368   2.713 -0.4887 -0.6661  0.2437
 2996TIP3    H230404   4.307   1.252   2.625 -0.6032 -0.0286 -0.6650
 2997TIP3   OH230405   1.927   3.387  14.798 -0.4436  0.1729  0.1244
 2997TIP3    H130406   1.994   3.359  14.861  1.0682 -1.0966 -1.9260
 2997TIP3    H230407   1.844   3.361  14.839  0.5082 -0.9047  1.4663
 2998TIP3   OH230408   1.435   0.814   5.752  0.4612  0.9459  0.2774
 2998TIP3    H130409   1.486   0.733   5.746  0.7902  1.0044  1.8580
 2998TIP3    H230410   1.397   0.825   5.665 -0.3641 -1.4093  0.2674
 2999TIP3   OH230411   0.598   6.420   3.234  0.0602  0.6174 -0.2466
 2999TIP3    H130412   0.647   6.367   3.171 -0.0951  0.5388 -0.3018
 2999TIP3    H230413   0.616   6.380   3.319 -1.4447 -0.6118 -0.4623
 3000TIP3   OH230414   2.753   4.620   4.353 -0.3242  0.4013 -0.2688
 3000TIP3    H130415   2.762   4.682   4.280  0.5660 -0.3921 -0.8528
 3000TIP3    H230416   2.821   4.646   4.415  0.1217 -0.0281 -0.5629
 3001TIP3   OH230417   5.006   2.849  16.837  0.9352 -0.0733 -0.0316
 3001TIP3    H130418   4.961   2.896  16.767  0.5477  0.4985  0.5933
 3001TIP3    H230419   5.078   2.803  16.793 -0.4654 -1.3069 -1.0971
 3002TIP3   OH230420   1.098   6.220  14.571 -0.6315 -0.2044 -0.9914
 3002TIP3    H130421   1.170   6.254  14.519  0.8403 -0.4938  0.7566
 3002TIP3    H230422   1.070   6.141  14.524 -0.5776  0.5007 -2.2606
 3003TIP3   OH230423   3.815   1.725  12.252 -0.1371  0.0511  0.4680
 3003TIP3    H130424   3.773   1.727  12.166 -0.5493  1.9654  0.6726
 3003TIP3    H230425   3.909   1.724  12.233 -0.2140  1.0315 -0.0243
 3004TIP3   OH230426   1.916   1.611   6.575 -0.4069  0.4050  0.8202
 3004TIP3    H130427   1.994   1.659   6.548  1.0311 -2.8100 -1.3613
 3004TIP3    H230428   1.948   1.542   6.633 -1.6171 -0.7672  0.1676
 3005TIP3   OH230429   3.705   3.711   1.704  0.4099  0.6525 -0.1998
 3005TIP3    H130430   3.729   3.651   1.633  0.0321 -1.0047  1.0146
 3005TIP3    H230431   3.625   3.673   1.740  0.8295  1.2215  1.3768
 3006TIP3   OH230432   0.673   4.749  17.382 -0.4875 -0.3580 -0.7548
 3006TIP3    H130433   0.596   4.806  17.388  1.5600  2.5534  1.1370
 3006TIP3    H230434   0.691   4.725  17.473  0.8964 -0.8350 -1.1302
 3007TIP3   OH230435   3.076   1.515  13.348 -0.2895  0.4379 -0.0551
 3007TIP3    H130436   3.042   1.580  13.287 -0.4790  0.1483 -0.2622
 3007TIP3    H230437   3.160   1.489  13.311 -0.8796 -0.5226 -0.7860
 3008TIP3   OH230438   2.468   2.978   4.741 -0.1854 -0.3064  0.3042
 3008TIP3    H130439   2.426   2.946   4.661 -0.8596  0.0037  0.5276
 3008TIP3    H230440   2.560   2.956   4.730 -0.4997 -1.5913  0.0925
 3009TIP3   OH230441   5.089   6.418  12.336  0.1629 -0.1825 -0.5645
 3009TIP3    H130442   5.145   6.492  12.362 -0.4904 -0.4824  2.0464
 3009TIP3    H230443   5.019   6.457  12.285 -0.2720  1.1057  0.9241
 3010TIP3   OH230444   5.435   0.304  11.389  0.1725 -0.0354  0.0511
 3010TIP3    H130445   5.358   0.267  11.346 -1.2125  0.8338  1.6572
 3010TIP3    H230446   5.418   0.399  11.389  1.5145  0.2172 -0.0521
 3011TIP3   OH230447   3.491   2.916  16.432  0.5114  0.1619 -0.3051
 3011TIP3    H130448   3.566   2.910  16.491 -0.5621  0.0625  1.1094
 3011TIP3    H230449   3.452   3.001  16.450 -1.9843 -1.3231  1.9302
 3012TIP3   OH230450   4.424   5.563  11.395 -0.8732 -0.0287  0.2824
 3012TIP3    H130451   4.332   5.579  11.416 -2.0763 -4.4448 -0.5412
 3012TIP3    H230452   4.429   5.572  11.299 -0.2912  0.5641  0.3536
 3013TIP3   OH230453   5.385   4.715   5.760  0.4012 -0.3507 -0.3080
 3013TIP3    H130454   5.442   4.751   5.691 -0.7150 -0.2466 -1.2215
 3013TIP3    H230455   5.338   4.792   5.793  0.0544 -0.5697 -0.2893
 3014TIP3   OH230456   5.123   4.905  14.217  0.4546 -0.3747  0.5074
 3014TIP3    H130457   5.105   4.838  14.283  1.0160 -0.4306  0.6036
 3014TIP3    H230458   5.058   4.889  14.148  1.3010 -1.7283  0.0011
 3015TIP3   OH230459   6.445   2.063  16.187 -0.3025  0.0567 -0.6667
 3015TIP3    H130460   6.442   1.999  16.115  0.4168  1.7623 -2.2917
 3015TIP3    H230461   6.380   2.031  16.250  1.6990 -3.6019 -0.1794
 3016TIP3   OH230462   2.302   3.900  13.210 -0.0619 -0.4279 -0.4948
 3016TIP3    H130463   2.247   3.851  13.271  0.8105 -1.4062 -0.4763
 3016TIP3    H230464   2.314   3.985  13.253 -1.4881 -0.2085 -0.4767
 3017TIP3   OH230465   5.384   1.439   5.334  0.7256  0.5554 -0.1451
 3017TIP3    H130466   5.388   1.520   5.283  0.2258 -0.2692 -1.5387
 3017TIP3    H230467   5.341   1.376   5.277 -3.1561  0.4534  2.5069
 3018TIP3   OH230468   6.096   0.141   3.644 -0.5181 -0.3287  0.3864
 3018TIP3    H130469   6.143   0.154   3.561 -0.2622  1.5568  0.7762
 3018TIP3    H230470   6.114   0.050   3.668  0.4013 -0.5482 -1.0170
 3019TIP3   OH230471   3.612   0.880   4.906 -0.2460 -0.2046  0.1529
 3019TIP3    H130472   3.632   0.878   4.812 -0.1576 -0.4301  0.1742
 3019TIP3    H230473   3.529   0.834   4.914 -1.1891  1.3864 -0.0230
 3020TIP3   OH230474   3.643   1.013   1.688 -0.4033  1.0587 -0.3057
 3020TIP3    H130475   3.608   0.925   1.675 -0.4095  1.0590 -0.2908
 3020TIP3    H230476   3.607   1.041   1.772 -0.6638  1.2047 -0.4657
 3021TIP3   OH230477   0.586   2.189   3.725 -0.4022  0.3533  0.1459
 3021TIP3    H130478   0.603   2.229   3.640 -2.0254  0.3264 -0.2182
 3021TIP3    H230479   0.534   2.111   3.705 -1.7163  0.9142  1.2011
 3022TIP3   OH230480   6.314   4.538  12.539  0.6479 -0.2717 -0.1485
 3022TIP3    H130481   6.321   4.627  12.572 -2.0531 -0.5185  1.4009
 3022TIP3    H230482   6.382   4.531  12.472  1.5684  2.6003  0.3701
 3023TIP3   OH230483   5.815   4.816  15.456  0.0834  0.2926 -0.7462
 3023TIP3    H130484   5.766   4.874  15.514  2.1371  0.8213  0.6008
 3023TIP3    H230485   5.907   4.842  15.469  0.8561 -1.5621 -2.0472
 3024TIP3   OH230486   4.444   5.626  12.391  0.6488 -0.5342 -0.2439
 3024TIP3    H130487   4.471   5.535  12.389  1.3594 -0.3842  1.1568
 3024TIP3    H230488   4.461   5.659  12.303  2.2529 -1.2446 -0.2276
 3025TIP3   OH230489   5.478   0.306   2.228 -0.1619 -0.1279 -0.0542
 3025TIP3    H130490   5.508   0.378   2.284 -0.4531  0.0222 -0.0871
 3025TIP3    H230491   5.403   0.342   2.182 -0.8254 -0.7093  0.5470
 3026TIP3   OH230492   0.221   5.815  16.113  0.5382  0.8127  0.9927
 3026TIP3    H130493   0.262   5.891  16.071  1.2957 -0.7682 -1.2855
 3026TIP3    H230494   0.234   5.830  16.207  1.5618  2.9836  0.5660
 3027TIP3   OH230495   4.492   0.424   2.482 -0.4584  0.1393 -0.0058
 3027TIP3    H130496   4.584   0.431   2.457 -0.3599 -2.5184 -0.6463
 3027TIP3    H230497   4.487   0.465   2.568  1.4734 -0.2907  0.3557
 3028TIP3   OH230498   5.912   5.738  11.761  0.0774  0.1224  0.3617
 3028TIP3    H130499   5.970   5.684  11.707  1.4363 -0.9033  2.6942
 3028TIP3    H230500   5.923   5.827  11.727  1.1616 -0.4209 -0.7813
 3029TIP3   OH230501   2.281   0.736   2.515  0.0739  0.0017 -0.0337
 3029TIP3    H130502   2.263   0.649   2.481  0.7761 -1.1629  2.3900
 3029TIP3    H230503   2.369   0.731   2.551 -0.5967  1.1136  1.9113
 3030TIP3   OH230504   4.239   3.941  16.762  0.1261 -0.6787  0.0615
 3030TIP3    H130505   4.293   3.994  16.821  1.2454  0.3251 -1.7982
 3030TIP3    H230506   4.151   3.978  16.771  0.7004  0.9287 -0.4776
 3031TIP3   OH230507   1.827   3.959  15.258 -0.0247  0.3796  0.4887
 3031TIP3    H130508   1.833   3.954  15.162  0.3215 -1.0864  0.5630
 3031TIP3    H230509   1.734   3.946  15.277  0.2002 -1.7458  0.4197
 3032TIP3   OH230510   3.689   1.937  10.394 -0.5446  0.4328 -0.3291
 3032TIP3    H130511   3.690   2.027  10.426  0.9803  0.4935 -0.4658
 3032TIP3    H230512   3.628   1.891  10.452  0.5421  1.0068  1.3539
 3033TIP3   OH230513   4.748   3.017   3.385  0.4238  0.3247  0.1028
 3033TIP3    H130514   4.830   3.034   3.339 -0.3786  1.1305 -1.1112
 3033TIP3    H230515   4.731   3.098   3.434  0.8495 -0.2220  1.1846
 3034TIP3   OH230516   3.252   1.072  16.136 -0.1497  0.6604 -0.2192
 3034TIP3    H130517   3.244   1.039  16.225  1.1467 -0.6826 -0.5664
 3034TIP3    H230518   3.197   1.013  16.084  1.4383 -0.4774 -0.7016
 3035TIP3   OH230519   6.585   6.691  12.725  0.2489  0.0626 -0.0914
 3035TIP3    H130520   6.543   6.643  12.797 -1.3175 -1.5427 -1.9572
 3035TIP3    H230521   6.676   6.701  12.753 -0.4477  0.1125  2.3846
 3036TIP3   OH230522   5.712   6.517   2.333 -0.4880 -0.2479  0.0638
 3036TIP3    H130523   5.760   6.550   2.257  0.1699 -1.5396 -0.1210
 3036TIP3    H230524   5.650   6.453   2.296 -1.3686  0.3588  0.4531
 3037TIP3   OH230525   5.804   1.371   3.167 -0.3965 -0.3388 -0.6665
 3037TIP3    H130526   5.857   1.301   3.128  5.1451  2.4017  0.9372
 3037TIP3    H230527   5.776   1.335   3.251  2.7423 -0.7216  0.3550
 3038TIP3   OH230528   6.051   6.131  13.376 -0.1571  0.4267 -0.1872
 3038TIP3    H130529   6.132   6.142  13.426 -0.1589  1.1055 -0.3191
 3038TIP3    H230530   5.993   6.083  13.435  0.6809 -0.9798 -0.4811
 3039TIP3   OH230531   1.016   0.708   3.138  0.5827  0.4718 -0.8983
 3039TIP3    H130532   0.969   0.770   3.194 -1.0160  0.7231 -2.4009
 3039TIP3    H230533   1.044   0.760   3.063 -0.7910 -0.5369 -2.1937
 3040TIP3   OH230534   0.348   1.393   6.130  0.0720  0.0135  0.8201
 3040TIP3    H130535   0.342   1.474   6.181 -1.8249 -0.9200  2.1883
 3040TIP3    H230536   0.316   1.325   6.189 -0.3510 -1.4236 -0.9761
 3041TIP3   OH230537   3.086   1.724  11.572  0.5933 -0.4817 -0.0156
 3041TIP3    H130538   2.996   1.757  11.573  0.5715 -0.5001 -0.8411
 3041TIP3    H230539   3.091   1.668  11.649  0.0237 -0.1548  0.2700
 3042TIP3   OH230540   3.202   1.053   1.561 -0.1555  0.2297  0.1554
 3042TIP3    H130541   3.274   1.113   1.546  0.2738 -0.4986 -0.7630
 3042TIP3    H230542   3.191   1.052   1.656 -0.3105  1.8971  0.1892
 3043TIP3   OH230543   4.200   4.442   5.989 -0.3237 -0.0440  0.3171
 3043TIP3    H130544   4.160   4.474   5.908  0.3621  0.2342  0.0761
 3043TIP3    H230545   4.128   4.406   6.039 -1.2089  2.2199  0.7790
 3044TIP3   OH230546   3.705   6.092  16.317  0.5120 -0.1626  0.0201
 3044TIP3    H130547   3.667   6.178  16.299  0.9497  0.1044  0.3537
 3044TIP3    H230548   3.657   6.061  16.394  0.0219 -0.4328 -0.3875
 3045TIP3   OH230549   4.062   1.018   6.015 -0.3528 -0.0508 -0.2348
 3045TIP3    H130550   4.130   1.081   6.042 -2.9711  2.4025  1.1302
 3045TIP3    H230551   4.063   1.022   5.919 -1.3770  3.3836 -0.2524
 3046TIP3   OH230552   4.521   3.268   4.638 -0.0406 -0.0884 -0.0522
 3046TIP3    H130553   4.505   3.295   4.728 -0.1595 -3.1171  0.9497
 3046TIP3    H230554   4.434   3.244   4.605  0.1214  0.1677 -0.6661
 3047TIP3   OH230555   4.873   6.023  11.972  0.7665 -0.4650  0.6777
 3047TIP3    H130556   4.919   5.967  11.909  3.9450 -1.1989  3.4169
 3047TIP3    H230557   4.788   5.980  11.983  0.5771 -1.0108 -2.0667
 3048TIP3   OH230558   2.584   4.138   1.620 -0.0478 -0.6989 -0.2108
 3048TIP3    H130559   2.520   4.069   1.640 -2.1212  1.4724  1.2437
 3048TIP3    H230560   2.533   4.205   1.574  1.4497  0.6515  0.0214
 3049TIP3   OH230561   5.358   3.801  13.228  0.6289  0.0134 -0.2808
 3049TIP3    H130562   5.346   3.893  13.206 -1.7444 -0.2460 -0.3282
 3049TIP3    H230563   5.270   3.769  13.248  1.5146 -2.0167  0.6963
 3050TIP3   OH230564   6.177   2.557   5.021  0.5814  0.1294  0.1917
 3050TIP3    H130565   6.243   2.517   5.078 -1.4523 -2.6032  0.8460
 3050TIP3    H230566   6.151   2.637   5.067  2.0135  0.2093  0.9016
 3051TIP3   OH230567   0.992   6.073  12.087  0.6810  0.2569 -0.4254
 3051TIP3    H130568   1.069   6.091  12.034  0.5814  0.3141 -0.5504
 3051TIP3    H230569   0.919   6.071  12.025  0.4421  1.1621 -0.1832
 3052TIP3   OH230570   5.074   4.098  13.333  0.1127 -0.4132  0.2204
 3052TIP3    H130571   4.995   4.077  13.383  0.0518  0.4505  0.5059
 3052TIP3    H230572   5.134   4.136  13.397  1.2071 -2.0531  0.2333
 3053TIP3   OH230573   6.349   4.959   1.959 -0.3594 -0.1815 -0.4382
 3053TIP3    H130574   6.325   4.897   1.890  0.3792  0.6721 -1.4858
 3053TIP3    H230575   6.439   4.936   1.981 -0.4265 -0.1253 -0.0848
 3054TIP3   OH230576   6.001   1.278  15.405  0.3681 -0.4026 -0.1346
 3054TIP3    H130577   5.970   1.237  15.324 -0.0562 -2.5554  1.0330
 3054TIP3    H230578   6.083   1.233  15.424  2.7298  2.9402 -1.4394
 3055TIP3   OH230579   4.264   1.075   6.540 -0.2831  0.0039 -0.2288
 3055TIP3    H130580   4.173   1.096   6.561 -0.2551 -0.8111  0.8057
 3055TIP3    H230581   4.288   1.006   6.603  1.2037  0.5621 -0.1427
 3056TIP3   OH230582   6.634   5.401   0.545 -0.7686  0.7664 -0.5265
 3056TIP3    H130583   6.701   5.371   0.483 -1.6446  1.4940 -1.8575
 3056TIP3    H230584   6.662   5.364   0.629  1.2092  0.8908 -1.0629
 3057TIP3   OH230585   2.053   0.749   3.016 -0.0532  0.0036  0.2079
 3057TIP3    H130586   2.122   0.727   2.953 -0.9990 -0.1443 -0.8103
 3057TIP3    H230587   1.975   0.705   2.982 -0.8465  0.8772  0.8593
 3058TIP3   OH230588   2.035   6.687  11.438 -0.2437 -0.1218 -0.5460
 3058TIP3    H130589   2.050   6.609  11.491 -1.9380 -0.5950 -0.7028
 3058TIP3    H230590   2.016   6.653  11.350  0.1584  0.5363 -0.9013
 3059TIP3   OH230591   3.314   5.493   4.095  0.2581  0.0051 -0.4860
 3059TIP3    H130592   3.358   5.425   4.146 -1.5338 -0.8739 -0.0248
 3059TIP3    H230593   3.290   5.559   4.160  0.1299  0.0533 -0.5830
 3060TIP3   OH230594   1.888   5.760   2.735  0.1730 -0.0431  0.0167
 3060TIP3    H130595   1.913   5.852   2.720  1.4399 -0.5421 -1.2250
 3060TIP3    H230596   1.848   5.733   2.652 -1.9575 -0.1277  0.9965
 3061TIP3   OH230597   0.661   4.111  12.801  0.4136  0.2681  0.6824
 3061TIP3    H130598   0.611   4.076  12.875 -0.9591  0.6391 -0.0294
 3061TIP3    H230599   0.702   4.190  12.836  0.6456 -0.1216  1.3240
 3062TIP3   OH230600   1.441   0.631  15.773 -0.1147  0.5849 -0.2534
 3062TIP3    H130601   1.488   0.577  15.710 -1.8052 -1.1269 -0.1341
 3062TIP3    H230602   1.349   0.623  15.749 -0.7085  0.8527  1.6951
 3063TIP3   OH230603   0.466   1.228  14.458  0.0848 -0.0541  0.6409
 3063TIP3    H130604   0.423   1.169  14.396  1.3816  2.0031 -2.4939
 3063TIP3    H230605   0.547   1.183  14.481  0.6651  0.0546 -1.0419
 3064TIP3   OH230606   1.695   3.523  15.042 -0.7817 -0.2241  0.0524
 3064TIP3    H130607   1.659   3.517  14.953 -1.5671 -1.4128  0.4116
 3064TIP3    H230608   1.636   3.468  15.094  0.4912 -0.7012  1.0387
 3065TIP3   OH230609   6.310   0.820   5.276 -0.5561  0.3417  0.1552
 3065TIP3    H130610   6.298   0.896   5.219 -0.4940 -0.7636 -1.3860
 3065TIP3    H230611   6.356   0.757   5.222 -2.2695 -1.5225  0.7540
 3066TIP3   OH230612   5.811   3.676  11.756 -0.3178  0.2280  0.7410
 3066TIP3    H130613   5.821   3.584  11.780 -0.7653 -0.3065 -0.9399
 3066TIP3    H230614   5.716   3.690  11.755 -0.2286  1.1176  2.3149
 3067TIP3   OH230615   3.572   2.288  16.785 -0.1060  0.3440  0.2816
 3067TIP3    H130616   3.634   2.357  16.760 -0.7421  0.9942  0.4745
 3067TIP3    H230617   3.613   2.245  16.859  0.7108 -0.0758 -0.3933
 3068TIP3   OH230618   3.974   1.196   2.617 -0.3567  0.0659  0.2664
 3068TIP3    H130619   4.011   1.186   2.705 -1.0263  1.3998  0.7197
 3068TIP3    H230620   4.037   1.153   2.560 -1.5349 -4.0010  1.6540
 3069TIP3   OH230621   1.311   2.795  14.010 -0.2461 -0.1796 -0.2641
 3069TIP3    H130622   1.365   2.790  14.089  0.9726 -0.2269 -1.0767
 3069TIP3    H230623   1.222   2.783  14.042  0.0938  0.9978  1.2655
 3070TIP3   OH230624   1.576   5.080   4.889  0.1837 -0.1674 -0.0763
 3070TIP3    H130625   1.651   5.023   4.874  0.5738  0.4235 -0.4130
 3070TIP3    H230626   1.550   5.063   4.980  2.4183  1.5748  0.9764
 3071TIP3   OH230627   5.435   4.166  12.870  0.0237 -0.1442  0.3764
 3071TIP3    H130628   5.483   4.243  12.840 -1.5884  0.3519 -1.0746
 3071TIP3    H230629   5.501   4.096  12.869  1.0237  0.7627 -0.2722
 3072TIP3   OH230630   3.920   2.787   4.561 -0.1660  0.2994  0.0988
 3072TIP3    H130631   4.012   2.798   4.586 -0.0512 -0.1377 -0.1285
 3072TIP3    H230632   3.885   2.725   4.625 -0.1779  0.0919 -0.1096
 3073TIP3   OH230633   6.680   2.146  13.290  0.0281 -0.1617 -0.2115
 3073TIP3    H130634   6.663   2.142  13.384  1.0289  0.5414  0.0174
 3073TIP3    H230635   6.767   2.107  13.280 -0.3748 -0.9030 -0.9521
 3074TIP3   OH230636   2.298   6.351  15.245 -0.7142  0.1492 -0.6181
 3074TIP3    H130637   2.373   6.410  15.251 -0.7262  0.1581 -0.5488
 3074TIP3    H230638   2.325   6.283  15.183 -0.6460  0.1482 -0.5870
 3075TIP3   OH230639   4.977   4.264   0.681  0.0039 -0.0902 -0.1698
 3075TIP3    H130640   4.972   4.171   0.703 -1.1685 -0.4893 -1.9262
 3075TIP3    H230641   5.058   4.294   0.722  1.1327 -2.2224 -0.6958
 3076TIP3   OH230642   5.168   5.774   2.126 -0.3882  0.0407 -0.1509
 3076TIP3    H130643   5.206   5.739   2.206 -0.9007 -1.0496 -0.3730
 3076TIP3    H230644   5.243   5.799   2.072 -0.0329 -0.1813  0.2372
 3077TIP3   OH230645   2.681   5.835  14.052 -0.3044 -0.1908 -0.3009
 3077TIP3    H130646   2.691   5.797  14.139 -0.9505  0.4926  0.0906
 3077TIP3    H230647   2.612   5.900  14.063 -0.4015 -0.1078 -1.3338
 3078TIP3   OH230648   0.734   4.609   1.690 -0.3529 -0.0223 -0.2121
 3078TIP3    H130649   0.766   4.591   1.602  1.3397  1.4268  0.0693
 3078TIP3    H230650   0.760   4.532   1.741 -0.3811 -0.3874 -0.7452
 3079TIP3   OH230651   4.874   3.277   1.226 -0.2719  0.0441 -0.2046
 3079TIP3    H130652   4.917   3.202   1.185  1.1831  1.5685 -1.5869
 3079TIP3    H230653   4.798   3.295   1.171 -0.1558  0.0842 -0.3527
 3080TIP3   OH230654   0.808   6.037   0.472 -0.7941 -0.1274  0.2530
 3080TIP3    H130655   0.822   6.008   0.562  0.0309  1.0899  0.5422
 3080TIP3    H230656   0.896   6.052   0.438 -1.0352 -1.5266 -1.1198
 3081TIP3   OH230657   1.516   2.910  13.344  0.0491  0.7339 -0.1885
 3081TIP3    H130658   1.464   2.963  13.404  0.5208 -0.5864  1.4396
 3081TIP3    H230659   1.604   2.946  13.350  0.1627  0.4008  0.1632
 3082TIP3   OH230660   4.443   1.249   6.447 -0.1955  0.6131 -0.2103
 3082TIP3    H130661   4.388   1.321   6.478  0.5463  0.5873  1.2996
 3082TIP3    H230662   4.393   1.170   6.465  0.4984  0.5459  1.7418
 3083TIP3   OH230663   2.100   5.298  15.611 -0.6886  0.6492 -0.6075
 3083TIP3    H130664   2.126   5.389  15.628 -1.6537  0.6567  1.1117
 3083TIP3    H230665   2.180   5.248  15.625 -0.4539  1.1284 -0.1763
 3084TIP3   OH230666   3.076   2.733   5.252  0.2169  0.2665 -0.0621
 3084TIP3    H130667   3.067   2.654   5.199 -0.8309  0.3754 -0.0735
 3084TIP3    H230668   3.095   2.702   5.340  2.9963  0.1046 -0.6460
 3085TIP3   OH230669   0.776   2.012  17.003 -0.2751  0.0414 -0.0394
 3085TIP3    H130670   0.799   1.926  16.968  1.7866  1.0065 -1.2562
 3085TIP3    H230671   0.813   2.013  17.091  0.0490 -0.1789 -0.1722
 3086TIP3   OH230672   2.371   2.649  14.233 -0.3129  0.2322  0.4071
 3086TIP3    H130673   2.440   2.703  14.271  0.5153 -0.3046 -0.2816
 3086TIP3    H230674   2.355   2.581  14.298 -0.2068  0.3676  0.5752
 3087TIP3   OH230675   5.396   1.409   4.504  0.2178  0.2442 -0.1032
 3087TIP3    H130676   5.349   1.419   4.587 -0.6504 -1.6165 -0.3317
 3087TIP3    H230677   5.485   1.386   4.529 -0.3927 -1.7697  0.3491
 3088TIP3   OH230678   2.331   6.064   0.202  0.1149 -0.2926 -0.6478
 3088TIP3    H130679   2.309   6.029   0.115  0.9351 -1.6466 -0.3424
 3088TIP3    H230680   2.425   6.083   0.197  0.3878 -1.3506  0.2469
 3089TIP3   OH230681   4.042   6.620  15.992  0.3577  0.1984 -1.0349
 3089TIP3    H130682   3.976   6.672  16.037  0.3547 -1.0422  0.5096
 3089TIP3    H230683   4.109   6.683  15.966  0.2929  1.0190  0.6428
 3090TIP3   OH230684   5.697   1.511   2.624 -0.9333  0.3960  0.0208
 3090TIP3    H130685   5.734   1.486   2.709  1.1313 -0.8854 -1.1950
 3090TIP3    H230686   5.640   1.585   2.645  0.0782  0.6049  2.4233
 3091TIP3   OH230687   0.716   1.079   3.424  0.3367 -0.0493  0.2608
 3091TIP3    H130688   0.690   1.168   3.450 -1.6455 -0.2876 -0.7093
 3091TIP3    H230689   0.711   1.028   3.504  0.8827  0.5563  0.7008
 3092TIP3   OH230690   5.805   5.558   6.141  0.3659  0.2441 -0.1634
 3092TIP3    H130691   5.885   5.543   6.090  1.7305  1.2798  1.5565
 3092TIP3    H230692   5.744   5.491   6.110  1.5780 -0.0102 -2.1598
 3093TIP3   OH230693   5.183   4.981  12.252  0.2629  0.1147  0.1026
 3093TIP3    H130694   5.226   5.030  12.181  1.3425 -1.9123 -0.7075
 3093TIP3    H230695   5.181   5.043  12.325  1.9542  1.2544 -0.7421
 3094TIP3   OH230696   4.403   2.490   6.036 -0.0968 -0.5964  0.0064
 3094TIP3    H130697   4.334   2.522   5.979  0.6853 -0.1124 -0.6911
 3094TIP3    H230698   4.472   2.461   5.977  0.0350 -1.7007  0.6788
 3095TIP3   OH230699   5.960   2.133  15.626 -0.0623 -0.3368  0.4865
 3095TIP3    H130700   5.920   2.048  15.647  2.5470 -1.4422  1.3077
 3095TIP3    H230701   5.887   2.185  15.592 -1.7984 -2.8196  0.1266
 3096TIP3   OH230702   5.608   1.345   2.088  0.2183 -0.0379  0.1682
 3096TIP3    H130703   5.546   1.352   2.161 -0.1253 -0.4727 -0.0807
 3096TIP3    H230704   5.637   1.254   2.090  1.4325  0.3308  0.7445
 3097TIP3   OH230705   1.008   5.773   3.177  0.3350  0.8690  0.1728
 3097TIP3    H130706   1.039   5.744   3.263 -0.8159 -0.3381  0.2209
 3097TIP3    H230707   0.924   5.729   3.167  1.9454 -1.9558 -3.0482
 3098TIP3   OH230708   5.075   5.640   1.534 -0.6257  0.3902  0.3736
 3098TIP3    H130709   5.039   5.715   1.581 -2.2376 -0.9017  1.3128
 3098TIP3    H230710   5.155   5.618   1.582 -0.2896  1.3248  0.2571
 3099TIP3   OH230711   6.511   3.849  12.887 -0.0283  0.3129 -0.0074
 3099TIP3    H130712   6.431   3.881  12.846 -0.9641 -1.1936  0.5672
 3099TIP3    H230713   6.513   3.890  12.974 -0.8110 -0.5220  0.4233
 3100TIP3   OH230714   2.335   4.288   3.265  0.3605 -0.4523 -0.7815
 3100TIP3    H130715   2.249   4.266   3.228 -0.4786 -0.6988  1.1549
 3100TIP3    H230716   2.317   4.362   3.323  1.6249  0.0155 -0.9640
 3101TIP3   OH230717   6.131   5.595  12.261 -0.5468 -0.1004 -0.0282
 3101TIP3    H130718   6.219   5.632  12.265 -0.7999  0.4072  2.5694
 3101TIP3    H230719   6.086   5.649  12.196  0.5614  0.8174 -0.0702
 3102TIP3   OH230720   6.344   5.320   3.796  0.4236 -0.2982  0.1036
 3102TIP3    H130721   6.328   5.226   3.788 -0.1866 -0.2167  0.3633
 3102TIP3    H230722   6.386   5.344   3.713  2.1403 -1.1034  0.6779
 3103TIP3   OH230723   2.182   4.232   5.786  0.2787 -0.2356  0.5739
 3103TIP3    H130724   2.256   4.172   5.780  1.3807  0.5334  4.2567
 3103TIP3    H230725   2.211   4.311   5.741 -0.0893 -1.3456 -1.7831
 3104TIP3   OH230726   4.884   1.405  14.520 -0.1712 -0.7049  0.2326
 3104TIP3    H130727   4.939   1.459  14.463  2.6059 -0.3188  2.9988
 3104TIP3    H230728   4.841   1.344  14.460  1.2762  0.6590 -2.4015
 3105TIP3   OH230729   6.012   4.885   4.059 -0.2135 -0.1105 -0.2861
 3105TIP3    H130730   6.074   4.864   4.129 -0.3583 -0.3633 -0.2325
 3105TIP3    H230731   5.926   4.871   4.098 -0.3550  1.7339  0.1156
 3106TIP3   OH230732   4.382   6.385  15.794  0.3973  0.0613 -0.1806
 3106TIP3    H130733   4.303   6.380  15.848 -0.7236  0.3742 -1.7310
 3106TIP3    H230734   4.452   6.405  15.856 -0.9751  1.2577  1.0592
 3107TIP3   OH230735   4.145   1.493   3.345  0.0482 -0.1398  0.3030
 3107TIP3    H130736   4.172   1.438   3.418 -2.9593 -2.3832 -0.0812
 3107TIP3    H230737   4.143   1.582   3.381 -0.9448 -1.1202  2.8828
 3108TIP3   OH230738   6.267   4.015   4.385  0.2864  0.1853 -0.0241
 3108TIP3    H130739   6.223   3.972   4.458  1.2789 -1.9026 -0.5704
 3108TIP3    H230740   6.259   3.953   4.312  1.4185  1.1352 -1.0084
 3109TIP3   OH230741   3.729   2.131  13.742 -0.3847  0.0551  0.3542
 3109TIP3    H130742   3.698   2.078  13.816  0.9697 -1.8430 -0.3574
 3109TIP3    H230743   3.824   2.135  13.753 -0.0813 -0.8006 -1.5736
 3110TIP3   OH230744   2.945   5.740   5.621  0.0825 -0.8326 -0.2181
 3110TIP3    H130745   2.871   5.740   5.560  0.7827 -1.0110 -1.0843
 3110TIP3    H230746   2.957   5.833   5.644 -0.0017 -0.7311 -0.5774
 3111TIP3   OH230747   3.844   3.470  13.067 -0.3214 -0.4792  0.0678
 3111TIP3    H130748   3.759   3.433  13.093 -0.6895  0.2349 -0.1022
 3111TIP3    H230749   3.907   3.401  13.089 -1.1956 -2.2546 -2.4207
 3112TIP3   OH230750   5.913   2.786   3.450 -0.0849  0.3256  0.2152
 3112TIP3    H130751   5.828   2.829   3.454 -0.3256 -0.1195 -0.0608
 3112TIP3    H230752   5.940   2.794   3.358 -1.4302 -2.5397 -0.5574
 3113TIP3   OH230753   6.720   6.329  11.319  0.6147 -0.0196  0.5048
 3113TIP3    H130754   6.630   6.296  11.308  0.5745 -0.1509  1.2210
 3113TIP3    H230755   6.711   6.403  11.380  0.6094  1.7647 -1.5273
 3114TIP3   OH230756   0.791   5.083   2.631 -0.6565  0.2432 -0.2180
 3114TIP3    H130757   0.699   5.059   2.617 -0.6864  0.6630 -0.8039
 3114TIP3    H230758   0.839   5.035   2.564 -0.6059  1.0328 -0.7591
 3115TIP3   OH230759   0.349   1.723  10.657  0.1710  0.1989 -0.4992
 3115TIP3    H130760   0.351   1.811  10.622  0.0904 -0.1896 -1.4967
 3115TIP3    H230761   0.256   1.700  10.660 -0.0332  0.9911  1.9909
 3116TIP3   OH230762   0.999   4.050   1.922 -0.1793  0.7136 -0.4343
 3116TIP3    H130763   1.018   3.983   1.856 -0.2270  0.2585  0.0074
 3116TIP3    H230764   0.975   4.127   1.871  0.5847  0.6154 -0.9625
 3117TIP3   OH230765   0.266   3.084   4.008 -0.4441  0.3043 -0.3613
 3117TIP3    H130766   0.346   3.061   4.054 -1.0013  2.0543  1.6274
 3117TIP3    H230767   0.212   3.005   4.013  0.2355 -0.1255  0.3558
 3118TIP3   OH230768   2.674   4.737   2.199 -0.2466  0.2333  0.3954
 3118TIP3    H130769   2.582   4.735   2.226 -0.7622 -0.0338 -1.2241
 3118TIP3    H230770   2.697   4.644   2.186  0.3130  0.2878  0.9387
 3119TIP3   OH230771   1.237   6.015  11.935  0.1341  0.0679  0.0185
 3119TIP3    H130772   1.317   5.977  11.970  0.7573  0.9274 -0.4448
 3119TIP3    H230773   1.265   6.064  11.857 -0.7977  0.5929 -0.0080
 3120TIP3   OH230774   2.411   2.745  11.486  0.1582 -0.0631  0.2729
 3120TIP3    H130775   2.373   2.833  11.482 -0.1449 -0.1990  0.1419
 3120TIP3    H230776   2.419   2.718  11.395  1.7347  0.4543  0.2238
 3121TIP3   OH230777   1.005   2.982   3.397  0.1324  0.1527  0.2370
 3121TIP3    H130778   1.081   2.946   3.352  0.0538 -0.6696  0.7538
 3121TIP3    H230779   1.016   2.955   3.488 -1.7550 -1.7050 -0.0094
 3122TIP3   OH230780   2.827   0.331  15.444  0.2700  0.0531  0.2389
 3122TIP3    H130781   2.883   0.254  15.450 -1.1545 -1.1901 -1.3064
 3122TIP3    H230782   2.745   0.304  15.486 -0.4353  0.5031 -0.8031
 3123TIP3   OH230783   5.762   1.477  16.026  0.4070  0.1692 -0.0875
 3123TIP3    H130784   5.676   1.435  16.020  0.8810 -1.0602  1.0437
 3123TIP3    H230785   5.754   1.557  15.975 -1.6473  0.4677  0.6196
 3124TIP3   OH230786   1.872   0.896  15.805  0.2111 -0.2763  0.4510
 3124TIP3    H130787   1.788   0.894  15.850  0.5478 -0.7583  1.0623
 3124TIP3    H230788   1.911   0.980  15.829 -0.6287  0.5371 -0.8520
 3125TIP3   OH230789   0.787   0.171  11.624 -0.0192 -0.6164  0.5698
 3125TIP3    H130790   0.809   0.080  11.603 -0.1957 -1.0611  2.2058
 3125TIP3    H230791   0.834   0.190  11.705 -0.8220  0.3991  0.8218
 3126TIP3   OH230792   2.056   3.413  11.574 -0.4530  0.4562  0.6221
 3126TIP3    H130793   2.004   3.481  11.618 -0.4451 -0.0250  1.3979
 3126TIP3    H230794   2.140   3.413  11.621  1.2874  2.9310 -2.1458
 3127TIP3   OH230795   3.271   3.934   6.235 -0.0824  0.0643 -0.7145
 3127TIP3    H130796   3.312   3.998   6.293  2.2787 -0.3475 -1.7738
 3127TIP3    H230797   3.266   3.854   6.287 -0.3609  0.3527 -0.2898
 3128TIP3   OH230798   0.288   0.240  11.357  0.3676 -0.4535  0.7124
 3128TIP3    H130799   0.339   0.306  11.404 -0.1326  2.8197 -2.8154
 3128TIP3    H230800   0.352   0.185  11.314  0.8348 -0.4435  1.3832
 3129TIP3   OH230801   6.445   2.581   0.347 -0.4519  0.0294 -0.6094
 3129TIP3    H130802   6.359   2.589   0.387 -1.0534 -0.4368 -1.7573
 3129TIP3    H230803   6.488   2.511   0.396 -1.3814 -0.9100 -1.0978
 3130TIP3   OH230804   0.248   2.605  13.569  0.0782 -0.1102  0.1267
 3130TIP3    H130805   0.306   2.560  13.509 -0.4695  0.9825 -1.2873
 3130TIP3    H230806   0.305   2.668  13.615  0.1368  0.5747 -0.8544
 3131TIP3   OH230807   0.537   4.029   0.494  0.1732  0.0358 -0.8568
 3131TIP3    H130808   0.553   4.035   0.400  0.1138 -1.0766 -0.9556
 3131TIP3    H230809   0.494   4.111   0.517  2.9464  1.7298 -1.2030
 3132TIP3   OH230810   1.308   6.631  11.613 -0.4527  0.0993  0.3690
 3132TIP3    H130811   1.347   6.574  11.546  1.4452 -1.0003  2.2769
 3132TIP3    H230812   1.366   6.707  11.617 -0.6025  0.1982  0.7066
 3133TIP3   OH230813   6.025   6.042   0.929 -0.0616 -0.5477  0.8748
 3133TIP3    H130814   6.062   5.955   0.915  1.5671 -0.0742  2.0449
 3133TIP3    H230815   5.942   6.025   0.974  0.0139 -1.5008  0.6917
 3134TIP3   OH230816   3.392   6.515  16.775  0.0352 -0.1471 -0.5117
 3134TIP3    H130817   3.398   6.422  16.754 -2.4487 -0.2599 -1.0682
 3134TIP3    H230818   3.356   6.517  16.864 -2.4027  0.1686 -1.4131
 3135TIP3   OH230819   2.081   5.228   0.504 -0.0073  0.4649 -0.0194
 3135TIP3    H130820   2.004   5.197   0.455  0.2568  1.8952 -1.4147
 3135TIP3    H230821   2.084   5.171   0.581 -0.8514 -1.4227 -1.3016
 3136TIP3   OH230822   5.254   2.904  16.400 -0.4626  0.1095  0.4813
 3136TIP3    H130823   5.217   2.818  16.378 -0.8730  0.1316  1.0428
 3136TIP3    H230824   5.340   2.885  16.436  0.6513  0.1405 -1.9994
 3137TIP3   OH230825   1.478   5.544   1.431 -0.1135 -0.0030  0.1753
 3137TIP3    H130826   1.504   5.487   1.359 -1.5181 -0.3981 -0.0436
 3137TIP3    H230827   1.404   5.499   1.472 -0.5642  1.1420  0.6623
 3138TIP3   OH230828   1.972   0.126   4.623 -0.0916  0.5050  0.0837
 3138TIP3    H130829   1.992   0.073   4.700 -1.7694  0.4627  0.5299
 3138TIP3    H230830   1.996   0.216   4.648  1.6087  0.1876 -0.2447
 3139TIP3   OH230831   4.625   3.441   5.529 -0.6768 -0.2979  0.2307
 3139TIP3    H130832   4.537   3.428   5.565 -0.5065  1.2358  1.3024
 3139TIP3    H230833   4.683   3.436   5.605 -0.0981  1.0742 -0.0973
 3140TIP3   OH230834   2.425   1.697   4.617 -0.0446 -0.0467 -0.1118
 3140TIP3    H130835   2.458   1.728   4.533 -2.7519  2.0836 -0.5141
 3140TIP3    H230836   2.503   1.666   4.663  1.8872  1.0989 -2.3869
 3141TIP3   OH230837   0.521   0.907  10.760  0.1228  0.1050 -0.1383
 3141TIP3    H130838   0.606   0.944  10.738  0.4395  0.4637  1.6057
 3141TIP3    H230839   0.534   0.861  10.842 -0.5628 -2.9030 -1.5793
 3142TIP3   OH230840   5.128   1.036  13.180  0.7467 -0.1152 -0.1616
 3142TIP3    H130841   5.064   1.106  13.185  0.3109 -0.5635  0.6153
 3142TIP3    H230842   5.099   0.983  13.106  0.4256 -0.1218 -0.0310
 3143TIP3   OH230843   2.722   3.285   6.097  0.1372  0.0428 -0.0152
 3143TIP3    H130844   2.652   3.271   6.161  0.7667 -0.6346  0.5351
 3143TIP3    H230845   2.692   3.360   6.046  0.5129  1.8870  2.3236
 3144TIP3   OH230846   5.221   3.114  17.383  0.3768 -0.3805  0.0842
 3144TIP3    H130847   5.289   3.168  17.342  0.1782 -0.7428 -0.7318
 3144TIP3    H230848   5.169   3.081  17.310 -0.8258  0.0708  0.7105
 3145TIP3   OH230849   0.033   4.502  11.157 -0.1757 -0.7274  0.4794
 3145TIP3    H130850  -0.029   4.525  11.226 -0.2347 -0.1686  0.2454
 3145TIP3    H230851   0.056   4.586  11.116 -0.5928 -1.1104 -0.5636
 3146TIP3   OH230852   1.922   6.052  11.426  0.6177  0.4261 -0.6808
 3146TIP3    H130853   1.860   6.052  11.354  2.0741 -0.0581 -1.9866
 3146TIP3    H230854   1.893   5.982  11.484 -0.0750  0.2548 -1.2307
 3147TIP3   OH230855   6.588   0.908  16.370 -0.4658 -0.2326 -0.9551
 3147TIP3    H130856   6.653   0.917  16.300 -0.3576 -3.3725 -1.4083
 3147TIP3    H230857   6.520   0.973  16.349  1.3652  1.5306 -1.7459
 3148TIP3   OH230858   2.536   6.357   2.911 -0.0003  0.2666  0.2539
 3148TIP3    H130859   2.535   6.328   2.820 -2.2906 -0.6381  0.5022
 3148TIP3    H230860   2.580   6.286   2.958  0.1408  0.2005  0.0262
 3149TIP3   OH230861   6.683   1.112   0.850 -0.0345 -0.5151 -0.4076
 3149TIP3    H130862   6.667   1.019   0.863 -0.4011 -0.2993  0.8409
 3149TIP3    H230863   6.622   1.156   0.909  0.8955  0.4823 -0.1332
 3150TIP3   OH230864   0.727   3.312   1.840  0.1012 -0.2585 -0.2381
 3150TIP3    H130865   0.685   3.245   1.893  1.3212 -0.7381  0.1683
 3150TIP3    H230866   0.685   3.394   1.866 -0.1907 -0.6527  0.5482
 3151TIP3   OH230867   2.966   3.792  17.264 -0.0862 -0.3260  0.2297
 3151TIP3    H130868   2.985   3.882  17.290  1.2194 -0.5116 -0.0146
 3151TIP3    H230869   2.889   3.767  17.316  0.2797  0.5144  1.2006
 3152TIP3   OH230870   4.302   1.853   1.978 -0.3694  0.2977 -0.3258
 3152TIP3    H130871   4.357   1.907   2.035 -2.6000  0.7635  1.5081
 3152TIP3    H230872   4.306   1.897   1.893  1.9568  0.3409 -0.2811
 3153TIP3   OH230873   2.615   4.321  13.861 -0.3229 -0.3992 -0.4269
 3153TIP3    H130874   2.673   4.397  13.870 -0.4391  0.1127 -2.9942
 3153TIP3    H230875   2.527   4.357  13.860 -0.4078 -0.6058 -1.1528
 3154TIP3   OH230876   3.804   1.232  17.354  0.2101 -0.3136 -0.0560
 3154TIP3    H130877   3.830   1.290  17.426  0.2546  0.5215 -0.7338
 3154TIP3    H230878   3.883   1.222  17.301  0.3735 -1.5005  0.3735
 3155TIP3   OH230879   0.300   3.067  15.594  0.6290  0.0877  0.0931
 3155TIP3    H130880   0.263   2.999  15.651  1.0593  1.0285  1.5567
 3155TIP3    H230881   0.311   3.143  15.652 -0.8923  1.7996 -1.7175
 3156TIP3   OH230882   1.632   3.611   4.477  0.1517 -0.4742  0.2677
 3156TIP3    H130883   1.684   3.532   4.495  1.7436  0.2443 -0.9316
 3156TIP3    H230884   1.695   3.673   4.441 -1.3320  0.8944 -0.0597
 3157TIP3   OH230885   4.845   0.959  14.979  0.3166 -0.3701  0.4139
 3157TIP3    H130886   4.844   1.034  15.037  0.5432  0.1213 -0.2054
 3157TIP3    H230887   4.934   0.958  14.942 -0.4923  0.7934 -1.7654
 3158TIP3   OH230888   4.619   6.700   2.899  0.2708 -0.1404 -0.2052
 3158TIP3    H130889   4.562   6.713   2.822  1.1126 -1.0687 -1.0184
 3158TIP3    H230890   4.699   6.748   2.878 -0.5805  2.1888  1.4590
 3159TIP3   OH230891   0.327   4.492   4.241  0.2277 -0.7923  0.4206
 3159TIP3    H130892   0.293   4.448   4.318  2.4412 -0.7054  1.5180
 3159TIP3    H230893   0.371   4.423   4.192 -0.5881 -0.7128 -0.4658
 3160TIP3   OH230894   6.702   5.253   0.764 -0.3163  0.0194 -0.0628
 3160TIP3    H130895   6.665   5.168   0.790 -0.0504 -0.1811 -0.3336
 3160TIP3    H230896   6.796   5.237   0.757 -0.1412  0.5772  0.8366
 3161TIP3   OH230897   1.882   3.280  11.066  0.2439 -0.1593 -0.0822
 3161TIP3    H130898   1.884   3.338  10.990 -2.2098 -1.8109 -1.5532
 3161TIP3    H230899   1.816   3.215  11.045  0.5254 -1.5900  2.8878
 3162TIP3   OH230900   3.765   5.956  13.231  0.1560  0.2558  0.1577
 3162TIP3    H130901   3.779   6.037  13.279 -2.2516  0.2515  1.0012
 3162TIP3    H230902   3.759   5.889  13.298  1.4621 -0.5653 -0.4958
 3163TIP3   OH230903   0.237   0.020   4.489 -0.9617 -0.6559  0.7347
 3163TIP3    H130904   0.296  -0.020   4.554  0.0838 -0.5277 -0.0946
 3163TIP3    H230905   0.205   0.099   4.531  1.0638  0.3590  0.5308
 3164TIP3   OH230906   0.658   5.181   2.940  0.2365 -0.0991  0.1686
 3164TIP3    H130907   0.717   5.121   2.986 -0.5690  0.5529  2.1385
 3164TIP3    H230908   0.660   5.151   2.849  2.4945 -0.9676  0.4336
 3165TIP3   OH230909   5.984   2.472  12.739  0.1334  0.0017 -0.0286
 3165TIP3    H130910   5.912   2.517  12.784 -0.6027  0.3889 -1.5443
 3165TIP3    H230911   5.973   2.380  12.762  1.6695  0.4388  3.1402
 3166TIP3   OH230912   5.000   5.133  13.332  0.4309  0.3880  0.4651
 3166TIP3    H130913   4.994   5.091  13.246 -0.5202  1.4416  0.0022
 3166TIP3    H230914   5.016   5.060  13.392  0.2970 -0.4636 -0.4939
 3167TIP3   OH230915   6.727   0.917  13.751  0.0134 -0.1891  0.0424
 3167TIP3    H130916   6.802   0.976  13.762  0.9004 -1.3477  0.3315
 3167TIP3    H230917   6.751   0.838  13.799 -1.2923 -0.6846 -0.0794
 3168TIP3   OH230918   0.218   1.479   4.168  0.5607  0.5850 -0.3638
 3168TIP3    H130919   0.233   1.566   4.206  1.2255  0.0377  0.6791
 3168TIP3    H230920   0.305   1.449   4.143  0.1309  0.9536 -2.4637
 3169TIP3   OH230921   4.136   1.528   3.837 -0.2068  0.2450  0.4289
 3169TIP3    H130922   4.103   1.488   3.756 -1.6527 -0.0683  1.1314
 3169TIP3    H230923   4.122   1.622   3.825 -0.1931  0.2186  0.2074
 3170TIP3   OH230924   2.168   1.633  13.436 -0.5055  0.0713 -0.0722
 3170TIP3    H130925   2.111   1.684  13.494 -1.1119  0.2340 -0.8040
 3170TIP3    H230926   2.223   1.582  13.496 -2.1448 -0.9238  0.6510
 3171TIP3   OH230927   3.303   1.728  16.702 -0.2022  0.2211  0.0746
 3171TIP3    H130928   3.224   1.693  16.741  0.2935 -1.5242 -0.4034
 3171TIP3    H230929   3.374   1.686  16.750  0.4201 -1.3735 -2.1073
 3172TIP3   OH230930   2.677   4.085   6.071  0.4579  0.1325  0.4825
 3172TIP3    H130931   2.681   3.996   6.038  0.8299 -0.3753  1.8311
 3172TIP3    H230932   2.591   4.091   6.112  0.1574  0.6263 -0.2046
 3173TIP3   OH230933   0.112   0.230  14.739 -0.3107 -0.4552  0.3496
 3173TIP3    H130934   0.077   0.294  14.801 -2.2176 -0.0170 -1.0652
 3173TIP3    H230935   0.206   0.228  14.756 -0.2771  2.1973  0.9441
 3174TIP3   OH230936   2.680   4.046  12.912  0.0827  0.5899 -0.3246
 3174TIP3    H130937   2.587   4.046  12.935  0.1841  1.6357  0.1671
 3174TIP3    H230938   2.709   4.135  12.933  0.5506  1.2048 -3.1945
 3175TIP3   OH230939   6.421   4.399   0.184  1.1245 -0.1347 -0.5712
 3175TIP3    H130940   6.326   4.406   0.195  1.2842  0.8104  0.4036
 3175TIP3    H230941   6.436   4.414   0.091  0.2757 -0.9986 -0.8723
 3176TIP3   OH230942   2.230   3.870  12.794 -0.0984  0.7161 -0.1261
 3176TIP3    H130943   2.136   3.885  12.800 -0.0276  0.7988  0.8341
 3176TIP3    H230944   2.257   3.915  12.714 -0.9740  0.1639 -0.7475
 3177TIP3   OH230945   2.754   1.298   2.188  0.8271 -0.1874  0.1764
 3177TIP3    H130946   2.800   1.254   2.259 -0.2680 -2.3681 -0.3997
 3177TIP3    H230947   2.716   1.376   2.229  1.6242 -0.5044  1.5720
 3178TIP3   OH230948   3.924   5.173   1.949  0.3344 -0.6932  0.1080
 3178TIP3    H130949   3.849   5.115   1.965  0.5996 -0.9578  0.4108
 3178TIP3    H230950   3.905   5.214   1.865  0.2187 -1.3351 -0.1855
 3179TIP3   OH230951   4.624   2.392   1.450  0.0241  0.6583 -0.8767
 3179TIP3    H130952   4.585   2.306   1.463 -0.4426  1.0619  0.6014
 3179TIP3    H230953   4.681   2.382   1.374 -1.1113 -0.5710 -1.5925
 3180TIP3   OH230954   4.146   2.637   2.737  0.0813 -0.7554 -0.4760
 3180TIP3    H130955   4.134   2.729   2.712  0.2850 -0.7694 -0.6299
 3180TIP3    H230956   4.209   2.640   2.810  0.0559 -0.7698 -0.4535
 3181TIP3   OH230957   4.955   5.782   0.376 -0.1261  0.0863 -0.1032
 3181TIP3    H130958   4.979   5.822   0.460 -1.6872 -0.7076  0.7679
 3181TIP3    H230959   5.016   5.710   0.365  2.1852  2.0544 -1.2902
 3182TIP3   OH230960   2.061   3.305   3.053 -0.6035  0.2481 -0.0179
 3182TIP3    H130961   2.000   3.287   3.125 -1.1887  2.6599  0.1769
 3182TIP3    H230962   2.145   3.272   3.083 -1.4191 -1.5001  0.4707
 3183TIP3   OH230963   0.117   4.969  15.771 -0.2431 -0.0067  0.5971
 3183TIP3    H130964   0.184   4.946  15.708  0.7645 -2.2689  2.3494
 3183TIP3    H230965   0.163   5.017  15.840 -0.7958  0.0779  0.9179
 3184TIP3   OH230966   0.592   1.146   5.774 -0.3684 -0.7349  0.2881
 3184TIP3    H130967   0.660   1.197   5.731 -0.2792  0.6187  1.9110
 3184TIP3    H230968   0.613   1.055   5.755  2.0694 -0.3616  0.9390
 3185TIP3   OH230969   5.658   4.105  15.787 -0.0880  0.4737  0.5354
 3185TIP3    H130970   5.722   4.045  15.748  0.6926  0.9554  1.0540
 3185TIP3    H230971   5.676   4.189  15.744 -1.3190  0.3014 -0.3472
 3186TIP3   OH230972   5.876   4.245   2.028  0.0294  0.1196 -0.0324
 3186TIP3    H130973   5.794   4.289   2.002 -1.2614 -1.4677  1.1312
 3186TIP3    H230974   5.897   4.188   1.954 -0.4343 -0.1158  0.0081
 3187TIP3   OH230975   1.550   0.313   0.934  0.0534  0.1796  0.0791
 3187TIP3    H130976   1.458   0.312   0.910 -0.2447  0.5306  1.1335
 3187TIP3    H230977   1.588   0.385   0.884  0.6126 -2.1916 -3.1850
 3188TIP3   OH230978   4.161   3.589  13.087 -0.2070 -0.1430  0.8579
 3188TIP3    H130979   4.206   3.505  13.079  0.5770  0.0341  2.7536
 3188TIP3    H230980   4.127   3.607  13.000  0.6023 -1.8674  0.1411
 3189TIP3   OH230981   3.427   6.244  16.882  0.0042  0.0142 -0.4548
 3189TIP3    H130982   3.438   6.207  16.969 -0.7681  0.5742 -0.1071
 3189TIP3    H230983   3.495   6.202  16.829  3.1282  2.4832  1.2445
 3190TIP3   OH230984   6.252   3.858   0.420  0.5254  0.1804 -0.0855
 3190TIP3    H130985   6.169   3.821   0.391 -0.4788  0.8907  1.6620
 3190TIP3    H230986   6.246   3.951   0.397  0.2301  0.5008  1.1806
 3191TIP3   OH230987   6.378   1.929   2.960  0.1497 -0.2393 -0.3553
 3191TIP3    H130988   6.314   1.946   3.029  0.0952 -0.0397 -0.4543
 3191TIP3    H230989   6.385   1.834   2.956  1.0744 -0.2480  0.7806
 3192TIP3   OH230990   0.048   4.225  11.147 -0.2631  0.0117 -0.5576
 3192TIP3    H130991  -0.008   4.199  11.073  1.5494 -1.7857 -1.4033
 3192TIP3    H230992   0.046   4.320  11.146 -0.6740  0.0321 -2.6398
 3193TIP3   OH230993   5.044   3.418  16.183  0.1310 -0.1512 -0.2533
 3193TIP3    H130994   4.978   3.455  16.125  0.4900 -0.3488 -0.7900
 3193TIP3    H230995   5.127   3.431  16.138  0.4492 -0.0373  0.3503
 3194TIP3   OH230996   4.376   4.903   5.023  0.8248 -0.5646 -0.5281
 3194TIP3    H130997   4.437   4.876   5.092 -0.4670 -1.9787  0.1067
 3194TIP3    H230998   4.320   4.827   5.009  0.2777  0.1103 -2.3077
 3195TIP3   OH230999   3.568   4.904  14.272 -0.2452 -0.3246  0.7992
 3195TIP3    H131000   3.659   4.886  14.294 -0.1122 -1.1522 -0.3773
 3195TIP3    H231001   3.571   4.989  14.229 -0.3469  0.7050  2.6984
 3196TIP3   OH231002   0.043   1.127   6.419  0.3092  0.2037  0.0509
 3196TIP3    H131003   0.102   1.162   6.353 -0.8847 -1.8370 -2.2453
 3196TIP3    H231004   0.086   1.047   6.450  0.1598  0.3415  0.6235
 3197TIP3   OH231005   1.948   0.074   5.040 -0.4131  0.9446  0.3851
 3197TIP3    H131006   2.043   0.079   5.036 -0.4268  2.1315  1.1606
 3197TIP3    H231007   1.924   0.016   4.968  0.8846  0.7085  0.1254
 3198TIP3   OH231008   1.710   0.265   4.556  0.6062 -0.8157  0.7808
 3198TIP3    H131009   1.688   0.342   4.608 -0.5001 -0.5347 -0.0566
 3198TIP3    H231010   1.805   0.255   4.566  0.7546  0.6039  0.9803
 3199TIP3   OH231011   5.296   4.674  13.385  0.5187 -0.4354 -0.1572
 3199TIP3    H131012   5.345   4.669  13.467 -0.3166  1.3611  0.5027
 3199TIP3    H231013   5.352   4.726  13.327  1.5060 -2.4246 -1.0947
 3200TIP3   OH231014   1.999   3.850   3.880 -0.0284  0.0974  0.0974
 3200TIP3    H131015   1.922   3.905   3.888 -0.1463 -0.1302  0.5282
 3200TIP3    H231016   2.069   3.900   3.922  0.2912  0.7421 -1.1547
 3201TIP3   OH231017   1.240   6.242   1.927  0.1048  0.2944  0.2353
 3201TIP3    H131018   1.333   6.221   1.926  0.6461  2.2809 -1.6429
 3201TIP3    H231019   1.236   6.331   1.892 -2.5148  0.2519  0.2316
 3202TIP3   OH231020   1.980   0.559  17.137 -0.5693  0.2017 -0.0070
 3202TIP3    H131021   1.891   0.579  17.168 -0.5634  0.6962 -0.3049
 3202TIP3    H231022   2.013   0.495  17.200 -0.7564  0.7965  0.7094
 3203TIP3   OH231023   6.122   4.125  12.952  0.7718 -0.0211 -0.5076
 3203TIP3    H131024   6.118   4.187  13.025 -2.4914 -1.1049  0.4168
 3203TIP3    H231025   6.206   4.081  12.963  1.2016  1.1517  1.4747
 3204TIP3   OH231026   5.692   6.679  15.257 -0.1418 -0.0378  0.5612
 3204TIP3    H131027   5.618   6.620  15.245  0.7383 -1.4608  1.7375
 3204TIP3    H231028   5.687   6.705  15.349  0.7901 -0.1501  0.6566
 3205TIP3   OH231029   5.559   0.976   1.685  0.1156  0.5794  0.5802
 3205TIP3    H131030   5.560   0.888   1.647 -1.8747  1.2457 -1.2004
 3205TIP3    H231031   5.652   0.999   1.695  0.6720 -1.4047  0.4060
 3206TIP3   OH231032   5.945   3.716   4.588  0.2364 -0.4860 -0.6709
 3206TIP3    H131033   5.904   3.629   4.595 -0.9796  0.2097  3.8451
 3206TIP3    H231034   6.039   3.698   4.581 -0.0430 -2.1541 -0.4813
 3207TIP3   OH231035   4.473   6.567  11.150  0.1283  0.0255 -0.5420
 3207TIP3    H131036   4.385   6.550  11.185  1.1892 -1.0201  1.8055
 3207TIP3    H231037   4.526   6.495  11.182  2.3576  1.8403  0.1283
 3208TIP3   OH231038   1.824   4.929  13.019  0.2398  0.6068 -0.2487
 3208TIP3    H131039   1.845   4.915  12.926 -0.0904  0.0003 -0.2374
 3208TIP3    H231040   1.742   4.979  13.017  0.7829  1.5033 -0.2859
 3209TIP3   OH231041   1.144   5.052  15.721 -0.5057  0.0531 -0.1418
 3209TIP3    H131042   1.180   5.012  15.801  2.7220  0.9642 -0.9842
 3209TIP3    H231043   1.160   4.987  15.653 -0.8476  0.3300 -0.4907
 3210TIP3   OH231044   5.464   2.163  11.747 -0.0822 -1.1921  0.2929
 3210TIP3    H131045   5.513   2.157  11.829  1.7631 -0.4871 -0.7016
 3210TIP3    H231046   5.375   2.186  11.774  0.7861  0.3863  2.0524
 3211TIP3   OH231047   4.531   5.077   5.493 -0.6343  0.2792 -0.3548
 3211TIP3    H131048   4.499   4.995   5.455 -0.5612 -0.0656  0.3047
 3211TIP3    H231049   4.479   5.145   5.451 -0.2175 -0.0390 -1.4256
 3212TIP3   OH231050   5.277   3.167   4.406  0.2681  0.1300 -0.2919
 3212TIP3    H131051   5.185   3.141   4.393 -0.5354  2.3874  0.3908
 3212TIP3    H231052   5.303   3.123   4.487 -1.1903  1.6786  1.0941
 3213TIP3   OH231053   5.347   2.660   1.563  0.4165 -0.1529 -0.0358
 3213TIP3    H131054   5.327   2.724   1.495  0.6892 -1.1436 -1.0720
 3213TIP3    H231055   5.261   2.627   1.591  0.2424  0.9719  0.8438
 3214TIP3   OH231056   4.995   5.980   2.815  0.5679  0.3495  0.1510
 3214TIP3    H131057   4.960   6.040   2.881 -0.6873  0.4747 -0.5882
 3214TIP3    H231058   4.960   5.894   2.839  0.9676  0.2127  0.2455
 3215TIP3   OH231059   1.626   0.566  14.510 -0.3325 -0.0555 -0.2262
 3215TIP3    H131060   1.683   0.634  14.546 -3.2376  3.0981 -1.0589
 3215TIP3    H231061   1.638   0.492  14.569  1.9592  1.6419  1.6529
 3216TIP3   OH231062   1.450   3.788  15.521  0.1570  0.0351 -0.1583
 3216TIP3    H131063   1.455   3.768  15.615 -0.2119 -0.8510 -0.3178
 3216TIP3    H231064   1.363   3.826  15.509 -0.5049 -1.4865 -0.4170
 3217TIP3   OH231065   0.830   1.115  16.512  0.1618  0.0333  0.0512
 3217TIP3    H131066   0.758   1.077  16.563  0.3239 -1.2885 -0.6786
 3217TIP3    H231067   0.909   1.077  16.551  0.3806  0.2855 -0.1472
 3218TIP3   OH231068   5.544   3.051  14.655  0.3643 -0.1813  0.3098
 3218TIP3    H131069   5.569   3.086  14.570  2.0788  1.1236  1.2970
 3218TIP3    H231070   5.471   3.107  14.683  0.6489  0.2233  0.2506
 3219TIP3   OH231071   4.525   0.104  13.597 -0.0544  0.6660 -0.5935
 3219TIP3    H131072   4.505   0.026  13.545  0.0663  0.5147 -0.4116
 3219TIP3    H231073   4.448   0.161  13.584 -1.5035 -0.6547  1.5354
 3220TIP3   OH231074   2.679   6.030   3.696 -0.2951  0.5954 -0.6078
 3220TIP3    H131075   2.677   5.974   3.618  0.4304  0.5718 -0.6225
 3220TIP3    H231076   2.680   5.969   3.770  0.8224  0.5620 -0.6310
 3221TIP3   OH231077   2.253   4.240  14.688 -0.4023 -1.1055  0.4095
 3221TIP3    H131078   2.175   4.294  14.700  1.2049  1.6254 -0.4736
 3221TIP3    H231079   2.245   4.205  14.600  0.0248  0.4392 -0.2762
 3222TIP3   OH231080   6.289   6.069   3.621 -0.9408  0.1448 -0.2747
 3222TIP3    H131081   6.224   6.131   3.655  0.0373  0.3665  1.3274
 3222TIP3    H231082   6.364   6.079   3.680  0.5562 -0.1138 -2.0581
 3223TIP3   OH231083   0.912   0.960   2.984  0.0255 -0.6634 -0.1880
 3223TIP3    H131084   0.970   1.036   2.987  1.4232 -1.7083  0.0833
 3223TIP3    H231085   0.827   0.994   3.011  0.9235  0.5276  1.3078
 3224TIP3   OH231086   0.133   1.137   5.517  0.3306 -0.6733  0.4580
 3224TIP3    H131087   0.106   1.225   5.542  1.8501 -0.0799  0.1068
 3224TIP3    H231088   0.083   1.079   5.575  0.5179  0.4801  1.8216
 3225TIP3   OH231089   3.668   2.289  13.088  0.0304  0.2648  0.1103
 3225TIP3    H131090   3.575   2.310  13.087 -0.1254 -0.3332  0.9508
 3225TIP3    H231091   3.677   2.217  13.025 -0.2507 -0.3301  0.7384
 3226TIP3   OH231092   5.676   0.365   1.318 -0.4271 -0.2457 -0.1792
 3226TIP3    H131093   5.605   0.419   1.354 -0.7126 -0.2623 -0.7089
 3226TIP3    H231094   5.711   0.417   1.246 -0.0472 -0.3388 -0.0642
 3227TIP3   OH231095   1.372   5.171  16.621 -0.5504  0.0343 -0.4329
 3227TIP3    H131096   1.345   5.180  16.713 -1.0879  0.3014 -0.6071
 3227TIP3    H231097   1.382   5.077  16.608  1.7330  0.0745  0.4940
 3228TIP3   OH231098   2.814   4.853  15.284 -0.9259 -0.3889 -0.3555
 3228TIP3    H131099   2.772   4.892  15.361  1.6791  1.5432  0.2218
 3228TIP3    H231100   2.810   4.920  15.217  3.2548  1.0648  0.5215
 3229TIP3   OH231101   0.086   3.019  13.555 -0.0756 -0.0896  0.3660
 3229TIP3    H131102   0.126   3.036  13.470  0.6755 -0.4777  0.6309
 3229TIP3    H231103   0.057   2.927  13.550  1.8549 -0.7977  1.2329
 3230TIP3   OH231104   5.870   3.690  17.301  0.3646 -0.4753  0.3281
 3230TIP3    H131105   5.805   3.728  17.241  1.4929 -0.5451 -0.9681
 3230TIP3    H231106   5.875   3.754  17.372  0.0661  0.3471 -0.3666
 3231TIP3   OH231107   4.324   6.075  12.785  0.1716 -0.0173 -0.3133
 3231TIP3    H131108   4.247   6.043  12.833 -0.1762 -1.1077 -1.5442
 3231TIP3    H231109   4.393   6.012  12.806 -0.0044 -0.5511 -1.2545
 3232TIP3   OH231110   3.717   3.965   3.573  0.0287  0.4082 -0.3026
 3232TIP3    H131111   3.628   3.946   3.542  0.2790  1.4156 -1.7383
 3232TIP3    H231112   3.710   4.049   3.617  0.1131  0.0311  0.4576
 3233TIP3   OH231113   1.319   3.378  17.250 -0.1098  0.3310 -0.0049
 3233TIP3    H131114   1.242   3.361  17.196 -0.6991  1.2293  0.5329
 3233TIP3    H231115   1.318   3.473  17.264  0.8734  0.3033  0.3372
 3234TIP3   OH231116   6.512   0.687  14.116  0.4847 -0.2983  0.0291
 3234TIP3    H131117   6.519   0.776  14.082 -1.2302  0.0588  0.5399
 3234TIP3    H231118   6.464   0.639  14.049 -0.5611 -0.2619  0.7348
 3235TIP3   OH231119   1.255   0.869  16.888 -0.4034  0.2897 -0.6363
 3235TIP3    H131120   1.340   0.865  16.931 -0.9114  3.2053  0.8635
 3235TIP3    H231121   1.273   0.913  16.805 -0.4163  0.8846 -0.3294
 3236TIP3   OH231122   3.847   5.823   0.146 -0.7044 -0.6811 -0.4017
 3236TIP3    H131123   3.842   5.735   0.183  0.4334 -0.6057 -0.0222
 3236TIP3    H231124   3.912   5.816   0.077 -0.2609 -0.0455 -0.0618
 3237TIP3   OH231125   3.956   4.650   5.405  0.0104 -0.4525  0.2025
 3237TIP3    H131126   3.885   4.605   5.451 -0.1612 -1.0524 -0.6324
 3237TIP3    H231127   4.030   4.590   5.410  0.4037  0.0745  0.8726
 3238TIP3   OH231128   6.382   0.020  14.315 -0.1731  0.3338 -0.1639
 3238TIP3    H131129   6.319  -0.017  14.253 -0.2498 -2.1763  1.2578
 3238TIP3    H231130   6.468  -0.007  14.282 -0.2049 -0.8485  0.6260
 3239TIP3   OH231131   5.866   2.528   5.163  0.2437 -0.2557  0.4354
 3239TIP3    H131132   5.876   2.489   5.077 -1.2056  1.5988 -0.6663
 3239TIP3    H231133   5.776   2.560   5.165  0.6622  0.9992  2.0815
 3240TIP3   OH231134   3.899   5.482  13.661  0.2031 -0.3195 -0.0380
 3240TIP3    H131135   3.893   5.447  13.750 -1.7051 -1.4556 -0.5561
 3240TIP3    H231136   3.834   5.552  13.659  0.1224 -0.4073 -0.5733
 3241TIP3   OH231137   0.635   0.342   6.204 -0.2420 -0.1644  0.1381
 3241TIP3    H131138   0.562   0.334   6.144 -1.6218  1.4379  1.4994
 3241TIP3    H231139   0.595   0.360   6.289  1.7001 -0.2462  1.1420
 3242TIP3   OH231140   4.130   3.524   2.844  0.0081 -0.0271 -0.3176
 3242TIP3    H131141   4.052   3.469   2.854  0.4213 -1.1493 -2.5140
 3242TIP3    H231142   4.203   3.465   2.865  0.4001  0.0006 -1.5336
 3243TIP3   OH231143   4.877   6.189   2.483 -0.4511 -0.0218  1.1624
 3243TIP3    H131144   4.932   6.113   2.468  2.1054  1.9276 -0.1710
 3243TIP3    H231145   4.791   6.163   2.449  0.4006 -2.1974  0.4884
 3244TIP3   OH231146   6.094   2.820  15.180  0.1654 -0.5005  0.1192
 3244TIP3    H131147   6.100   2.728  15.204 -0.8627  0.1290  3.1916
 3244TIP3    H231148   6.030   2.823  15.109 -1.0850 -1.9985  1.1283
 3245TIP3   OH231149   0.252   1.839  12.191  0.4304  0.2158 -0.4173
 3245TIP3    H131150   0.201   1.893  12.251  1.7339  0.5269  0.4344
 3245TIP3    H231151   0.188   1.777  12.155 -0.3494 -0.1083  1.4365
 3246TIP3   OH231152   2.822   0.793   2.967 -0.2494  0.0424  0.3767
 3246TIP3    H131153   2.800   0.884   2.948  0.7341  0.0610 -0.8630
 3246TIP3    H231154   2.917   0.795   2.985  0.0595 -0.9005 -1.0034
 3247TIP3   OH231155   3.807   1.271  11.341 -0.1721 -0.2406 -0.3063
 3247TIP3    H131156   3.882   1.212  11.350 -0.2324 -0.0660  1.7090
 3247TIP3    H231157   3.734   1.224  11.382  0.0080  1.5560  2.2987
 3248TIP3   OH231158   0.413   4.032  13.377  0.5593 -0.0255 -0.3184
 3248TIP3    H131159   0.435   4.122  13.400  1.0479 -0.2500  0.1313
 3248TIP3    H231160   0.495   3.996  13.342  1.4221 -1.2918  2.6190
 3249TIP3   OH231161   3.107   4.591  12.695 -0.3264 -0.2095 -0.0985
 3249TIP3    H131162   3.174   4.524  12.684 -0.4146 -0.4847  0.9609
 3249TIP3    H231163   3.060   4.592  12.611  0.6989 -0.3298 -0.6900
 3250TIP3   OH231164   5.444   2.238  14.648 -0.3573  0.2054  0.0544
 3250TIP3    H131165   5.523   2.192  14.618  0.2880 -0.2006  2.2294
 3250TIP3    H231166   5.389   2.169  14.685 -0.4622  0.8596  1.1386
 3251TIP3   OH231167   3.674   5.411   2.390  0.0157  0.7067  0.0827
 3251TIP3    H131168   3.768   5.397   2.378 -0.1681 -0.3242 -0.2854
 3251TIP3    H231169   3.666   5.503   2.415  0.9874  1.2462 -1.4473
 3252TIP3   OH231170   0.468   4.099   3.091 -0.1592 -0.0141 -0.8427
 3252TIP3    H131171   0.442   4.184   3.124 -0.3464 -0.0056 -1.0106
 3252TIP3    H231172   0.484   4.114   2.997 -0.5724 -0.2469 -0.9536
 3253TIP3   OH231173   4.764   0.954   0.222  0.4033 -0.2070 -0.5427
 3253TIP3    H131174   4.748   0.874   0.172 -0.1863  0.5076 -1.5576
 3253TIP3    H231175   4.752   1.025   0.158 -0.4789  0.7648  0.6382
 3254TIP3   OH231176   5.988   2.878   3.188  0.4191  0.2687  0.1701
 3254TIP3    H131177   6.010   2.953   3.133  0.3429 -0.1441 -0.4399
 3254TIP3    H231178   6.048   2.809   3.158  1.7762  0.6027  1.9717
 3255TIP3   OH231179   6.359   2.763   0.152 -0.0858 -0.3039  0.1601
 3255TIP3    H131180   6.436   2.795   0.104  0.0739 -0.5011  0.2859
 3255TIP3    H231181   6.386   2.679   0.188  0.0090  0.1265  1.1370
 3256TIP3   OH231182   5.097   4.281   1.495  0.2440 -0.4112 -0.2006
 3256TIP3    H131183   5.014   4.283   1.542  0.2205 -1.4730 -0.1550
 3256TIP3    H231184   5.074   4.257   1.405  0.3507  0.9841 -0.6256
 3257TIP3   OH231185   3.163   0.107  11.852  0.1726 -0.0345  0.1833
 3257TIP3    H131186   3.198   0.153  11.928 -0.5797  1.6421 -0.4268
 3257TIP3    H231187   3.219   0.135  11.780  1.9001 -2.8719  0.3091
 3258TIP3   OH231188   2.763   5.265   6.057  0.8982  0.2094 -0.1267
 3258TIP3    H131189   2.777   5.183   6.104 -3.7622 -0.8422 -0.0875
 3258TIP3    H231190   2.732   5.326   6.124  0.8272  0.8563 -0.7392
 3259TIP3   OH231191   1.312   5.147  11.356  0.4770  0.6278  0.4758
 3259TIP3    H131192   1.355   5.209  11.296  4.1241 -1.3765  0.7602
 3259TIP3    H231193   1.248   5.101  11.301  0.8371  1.6188 -0.8214
 3260TIP3   OH231194   5.810   6.073  13.577 -0.1089 -0.5930  0.2132
 3260TIP3    H131195   5.715   6.060  13.586 -0.2101 -0.6663 -0.8447
 3260TIP3    H231196   5.848   6.012  13.641 -0.7732 -0.2908  0.9182
 3261TIP3   OH231197   2.364   3.684  17.185 -0.2082 -0.2217 -0.2429
 3261TIP3    H131198   2.459   3.694  17.184  0.0203 -1.7043 -2.6447
 3261TIP3    H231199   2.336   3.727  17.265  2.4570  0.4353  0.4394
 3262TIP3   OH231200   5.741   6.173   3.108  0.7948 -0.3337 -0.5291
 3262TIP3    H131201   5.648   6.156   3.101  0.4457  1.8869 -2.3467
 3262TIP3    H231202   5.777   6.150   3.022  1.5704  0.6206 -0.4831
 3263TIP3   OH231203   6.095   0.687   3.641  0.1586  0.2019 -0.2977
 3263TIP3    H131204   6.116   0.719   3.553 -1.1527  1.3696 -0.2218
 3263TIP3    H231205   6.176   0.698   3.691 -0.0410  3.0004 -0.4216
 3264TIP3   OH231206   1.365   2.648   3.917  0.0142  0.4009 -0.2994
 3264TIP3    H131207   1.314   2.589   3.862 -1.2581  1.2450 -0.0723
 3264TIP3    H231208   1.434   2.682   3.860 -1.3226  1.3196 -1.4056
 3265TIP3   OH231209   2.678   4.031  14.374 -0.0468 -0.7094  0.1484
 3265TIP3    H131210   2.602   4.082  14.402  0.9802  1.3755 -0.5650
 3265TIP3    H231211   2.645   3.973  14.306 -1.1828 -0.6266  0.6167
 3266TIP3   OH231212   2.871   2.703   2.569  0.2462 -0.7489 -0.3241
 3266TIP3    H131213   2.788   2.716   2.524 -0.2783 -2.1544  0.1637
 3266TIP3    H231214   2.920   2.642   2.513  0.8780 -0.0849 -0.5127
 3267TIP3   OH231215   3.304   4.697  13.552  0.3221 -0.7015  0.2078
 3267TIP3    H131216   3.268   4.718  13.639 -2.6456 -2.1745 -0.5183
 3267TIP3    H231217   3.362   4.770  13.532 -2.1369  1.8794  1.6945
 3268TIP3   OH231218   4.423   1.557  16.095 -0.0608 -0.1685  0.0511
 3268TIP3    H131219   4.457   1.646  16.088 -0.4528  0.0504  0.8943
 3268TIP3    H231220   4.499   1.504  16.120  0.5125 -0.3418 -1.8818
 3269TIP3   OH231221   6.646   5.884  11.508  0.0543 -0.0470  0.3544
 3269TIP3    H131222   6.605   5.970  11.522 -0.4031 -0.4384  1.5680
 3269TIP3    H231223   6.658   5.849  11.596  0.4284 -1.1462 -0.1209
 3270TIP3   OH231224   1.825   1.395   6.891  0.7587 -0.3801  0.2024
 3270TIP3    H131225   1.892   1.328   6.885  2.4658  0.9591  2.5700
 3270TIP3    H231226   1.872   1.474   6.917 -1.1751  1.7638 -2.2441
 3271TIP3   OH231227   4.004   6.013   1.444  0.5221  0.2740 -0.2888
 3271TIP3    H131228   4.094   5.986   1.464  0.4340 -0.1398 -0.4483
 3271TIP3    H231229   3.964   6.029   1.529  1.2149  2.0295 -0.2354
 3272TIP3   OH231230   5.158   0.929   0.637 -0.0127 -0.0791  0.2215
 3272TIP3    H131231   5.117   0.848   0.666  1.9142 -0.4578  2.1383
 3272TIP3    H231232   5.098   0.964   0.571 -1.0053 -2.9104 -0.5090
 3273TIP3   OH231233   6.089   1.968  11.200 -0.2015  0.0317  0.3981
 3273TIP3    H131234   6.117   1.922  11.279  1.0018  0.3664  0.1977
 3273TIP3    H231235   6.128   2.055  11.207  0.7464 -0.2307 -0.9738
 3274TIP3   OH231236   3.389   2.088   4.045 -0.4281 -0.4171  0.4782
 3274TIP3    H131237   3.448   2.013   4.043  0.4065  0.2107  0.8254
 3274TIP3    H231238   3.375   2.110   3.953  0.3580 -0.2149  0.4005
 3275TIP3   OH231239   1.238   3.919  12.795 -0.2176 -0.0669  0.2714
 3275TIP3    H131240   1.311   3.942  12.851  0.2097  3.1112 -1.3743
 3275TIP3    H231241   1.166   3.975  12.824 -0.7789 -0.2863 -0.6490
 3276TIP3   OH231242   5.655   5.852  11.487 -0.6966 -0.7392  0.4119
 3276TIP3    H131243   5.728   5.884  11.433 -1.2418  0.5551  0.4060
 3276TIP3    H231244   5.677   5.760  11.504  1.7005 -0.0401  1.6324
 3277TIP3   OH231245   0.588   0.011   4.718 -0.1034 -0.4619 -0.2368
 3277TIP3    H131246   0.653  -0.049   4.755  0.3604 -0.6413 -1.3040
 3277TIP3    H231247   0.512  -0.045   4.698  0.9991 -1.1509 -2.9872
 3278TIP3   OH231248   2.048   5.578  17.212  1.0169  0.5529  0.0052
 3278TIP3    H131249   2.086   5.520  17.279 -1.4383 -1.1601  0.0355
 3278TIP3    H231250   2.039   5.522  17.135  0.2241  1.3853 -0.5154
 3279TIP3   OH231251   2.731   3.446  12.814 -0.0563 -0.4641  0.2465
 3279TIP3    H131252   2.732   3.359  12.773  0.1271 -0.5876  0.5147
 3279TIP3    H231253   2.643   3.452  12.853 -1.1311  0.5793 -2.1379
 3280TIP3   OH231254   5.680   4.911   2.285  0.3802 -0.4349  0.1180
 3280TIP3    H131255   5.646   4.867   2.207 -0.1130  1.4563 -0.8002
 3280TIP3    H231256   5.775   4.896   2.281  0.2504 -1.1915 -0.2983
 3281TIP3   OH231257   1.978   4.054  16.695 -0.3990 -0.2444 -0.2096
 3281TIP3    H131258   2.050   3.991  16.699 -0.9651 -1.3793 -3.9791
 3281TIP3    H231259   2.021   4.137  16.674  0.0240 -0.1495  0.9344
 3282TIP3   OH231260   3.958   0.722  15.127 -0.1806  0.1329  0.1465
 3282TIP3    H131261   3.869   0.709  15.162 -0.4319  1.3765  0.0252
 3282TIP3    H231262   4.004   0.770  15.196  0.6614 -1.1731  0.5306
 3283TIP3   OH231263   4.491   2.917   4.398  0.0330  0.5173  0.2303
 3283TIP3    H131264   4.503   2.913   4.493  0.7508  1.2829  0.1767
 3283TIP3    H231265   4.440   2.997   4.384  1.8449  1.6361 -0.1956
 3284TIP3   OH231266   5.770   3.666   5.697 -0.4231 -0.0818  0.7644
 3284TIP3    H131267   5.742   3.584   5.738  0.6804 -1.4352 -1.0317
 3284TIP3    H231268   5.700   3.687   5.636 -0.0116 -0.5461  0.1223
 3285TIP3   OH231269   2.641   3.808   6.069  0.4578 -0.0029 -0.6954
 3285TIP3    H131270   2.551   3.815   6.101  0.1818 -1.9210 -0.9228
 3285TIP3    H231271   2.632   3.785   5.977  1.2351  1.6396 -1.2257
 3286TIP3   OH231272   0.399   4.745   4.641  0.1615  0.1533 -0.4499
 3286TIP3    H131273   0.371   4.831   4.672  0.6835  0.0998  0.2120
 3286TIP3    H231274   0.382   4.745   4.547 -2.3606 -0.0053 -0.0450
 3287TIP3   OH231275   1.280   3.129   1.531 -0.3458 -0.2878 -0.1148
 3287TIP3    H131276   1.188   3.151   1.543 -0.7439 -1.1279 -1.4350
 3287TIP3    H231277   1.285   3.091   1.443  1.1402 -0.8858  0.1898
 3288TIP3   OH231278   1.860   3.423   0.013  0.2313 -0.3009 -0.1581
 3288TIP3    H131279   1.875   3.452  -0.077 -0.5840 -0.2197 -0.2759
 3288TIP3    H231280   1.783   3.366   0.007 -0.9072  1.0883  0.7397
 3289TIP3   OH231281   4.968   2.778  15.670 -0.0577 -0.2980 -0.2116
 3289TIP3    H131282   4.964   2.683  15.660  0.2640 -0.6113  2.0926
 3289TIP3    H231283   4.877   2.807  15.658 -0.5133 -1.1504  1.0304
 3290TIP3   OH231284   2.387   6.258   6.113  0.0866 -0.4020 -0.6441
 3290TIP3    H131285   2.396   6.295   6.201  0.8442 -0.9110 -0.5020
 3290TIP3    H231286   2.299   6.285   6.085 -0.2179 -0.3547  0.3222
 3291TIP3   OH231287   0.251   4.027  16.874  0.0676 -0.1106 -0.0965
 3291TIP3    H131288   0.291   4.085  16.938 -4.6080  1.4065  1.8544
 3291TIP3    H231289   0.244   3.942  16.918  2.7801 -1.0483 -1.2627
 3292TIP3   OH231290   5.124   1.384   1.370  0.2214 -0.0199  0.5981
 3292TIP3    H131291   5.043   1.367   1.321  0.7389 -2.2327  0.3872
 3292TIP3    H231292   5.101   1.362   1.460  0.8741 -1.9730  0.3409
 3293TIP3   OH231293   5.445   0.921  16.056  0.5575 -0.4402 -0.3876
 3293TIP3    H131294   5.475   0.960  15.973 -1.4552  2.5443  0.1622
 3293TIP3    H231295   5.382   0.855  16.029  1.1516 -0.6832 -1.2522
 3294TIP3   OH231296   4.113   2.729   4.348 -0.0779  0.3935  0.0195
 3294TIP3    H131297   4.184   2.728   4.411  0.3022 -1.7041 -0.3650
 3294TIP3    H231298   4.034   2.744   4.400  0.3636 -0.0565  0.8299
 3295TIP3   OH231299   5.517   6.223   4.132 -0.2538 -0.0112  0.0255
 3295TIP3    H131300   5.519   6.318   4.133 -0.3300 -0.0096  0.1206
 3295TIP3    H231301   5.607   6.197   4.110  0.1649  0.0704  1.5114
 3296TIP3   OH231302   2.238   4.277  13.641  0.3627 -0.1493 -0.7909
 3296TIP3    H131303   2.175   4.221  13.686 -0.7484  2.5656  1.3576
 3296TIP3    H231304   2.188   4.318  13.570  0.8390 -0.9243 -1.5923
 3297TIP3   OH231305   4.501   3.333  14.251  0.1244  0.0854 -0.0500
 3297TIP3    H131306   4.540   3.417  14.277  2.3350 -0.8711 -0.0786
 3297TIP3    H231307   4.407   3.348  14.257  0.3162  3.3513 -2.3980
 3298TIP3   OH231308   3.049   0.651  16.025 -0.4375  0.4654  0.0638
 3298TIP3    H131309   2.964   0.656  15.982  0.3579 -0.6634 -1.7427
 3298TIP3    H231310   3.078   0.561  16.011  1.9887  1.3584 -1.2768
 3299TIP3   OH231311   5.154   1.165   3.261 -0.1613 -0.3469 -0.3324
 3299TIP3    H131312   5.177   1.074   3.276 -1.3613 -0.4192  1.3747
 3299TIP3    H231313   5.230   1.202   3.216  0.2739 -2.2048 -1.2265
 3300TIP3   OH231314   0.298   6.317   3.015 -0.4346  0.2311 -0.0632
 3300TIP3    H131315   0.228   6.296   3.078  1.2218  0.1304  1.8628
 3300TIP3    H231316   0.326   6.405   3.039  0.9091 -0.2015  0.0514
 3301TIP3   OH231317   3.651   5.007   5.523 -0.4077 -0.1687  0.4673
 3301TIP3    H131318   3.614   5.076   5.578  0.5234  0.0336  0.8671
 3301TIP3    H231319   3.728   5.048   5.483  0.7900 -1.2633  1.5509
 3302TIP3   OH231320   2.889   5.600   0.992  0.0462  0.2343 -0.4898
 3302TIP3    H131321   2.814   5.655   1.013  0.2772 -0.0284  1.1466
 3302TIP3    H231322   2.883   5.586   0.898 -2.7857 -0.9588 -0.2270
 3303TIP3   OH231323   0.962   4.396   5.178 -0.2153  0.3358  1.2709
 3303TIP3    H131324   0.936   4.483   5.209  0.2495  0.2956  1.7768
 3303TIP3    H231325   0.880   4.347   5.174 -0.9390  1.5494 -1.5618
 3304TIP3   OH231326   2.583   3.823   0.942 -0.2250 -0.1040 -0.9630
 3304TIP3    H131327   2.554   3.748   0.994  0.8470 -1.0642 -1.6933
 3304TIP3    H231328   2.515   3.890   0.956 -0.0339 -0.3368  1.5563
 3305TIP3   OH231329   5.800   2.597  12.877 -0.6966  0.5175  0.6912
 3305TIP3    H131330   5.828   2.673  12.929  2.6194  0.4125 -0.7123
 3305TIP3    H231331   5.775   2.633  12.792 -0.8645  0.1728  0.5901
 3306TIP3   OH231332   1.194   2.835   1.807  0.0360 -0.6884  0.3647
 3306TIP3    H131333   1.145   2.838   1.724  0.9769 -3.5750 -0.3948
 3306TIP3    H231334   1.127   2.824   1.874 -0.5896 -1.0133 -0.2965
 3307TIP3   OH231335   6.592   6.417   4.506 -0.5604 -0.6937 -0.5230
 3307TIP3    H131336   6.558   6.349   4.448  1.9153 -2.4663 -0.0917
 3307TIP3    H231337   6.593   6.497   4.453 -0.1985 -1.8198 -2.2928
 3308TIP3   OH231338   3.305   2.725   5.978 -0.6066 -0.4111 -0.2882
 3308TIP3    H131339   3.301   2.725   6.073  0.5236  1.4518 -0.1817
 3308TIP3    H231340   3.241   2.790   5.951  1.5832  1.7761 -0.5331
 3309TIP3   OH231341   6.408   6.723   1.027 -0.0777  0.1086  0.0890
 3309TIP3    H131342   6.438   6.652   0.969 -0.9950 -0.3292  0.1313
 3309TIP3    H231343   6.388   6.680   1.110  1.7065  0.8114  0.9378
 3310TIP3   OH231344   0.936   0.884   3.630  0.1765  0.4697  0.3285
 3310TIP3    H131345   1.028   0.911   3.638  0.7507  0.0425 -3.3349
 3310TIP3    H231346   0.888   0.967   3.624  0.4131  0.6875  1.2725
 3311TIP3   OH231347   4.830   2.178  14.131 -0.2207 -0.0311 -0.3165
 3311TIP3    H131348   4.851   2.093  14.170 -1.6390 -0.8542 -1.2789
 3311TIP3    H231349   4.865   2.174  14.042 -1.4629 -0.1595 -0.8252
 3312TIP3   OH231350   2.643   3.762  14.803 -0.4129  0.2701  0.1079
 3312TIP3    H131351   2.681   3.712  14.876 -0.4344 -0.1445 -0.1652
 3312TIP3    H231352   2.717   3.811  14.768 -0.3221  0.1752  0.1648
 3313TIP3   OH231353   1.131   2.385   4.920  0.9315  1.4478  0.5191
 3313TIP3    H131354   1.116   2.313   4.981  0.2633  0.8181 -0.3560
 3313TIP3    H231355   1.071   2.454   4.949  0.7608  1.2275  0.6946
 3314TIP3   OH231356   2.145   5.271  14.947  0.0532 -0.4970  0.8163
 3314TIP3    H131357   2.184   5.293  15.032  0.0244 -1.8784  1.2108
 3314TIP3    H231358   2.081   5.341  14.931 -0.2550 -0.4398  2.1518
 3315TIP3   OH231359   2.412   2.771  12.011  0.2268  0.0378 -0.4623
 3315TIP3    H131360   2.429   2.726  11.928 -0.5414  0.2792 -0.7592
 3315TIP3    H231361   2.349   2.840  11.988 -0.0841  0.0300  0.3382
 3316TIP3   OH231362   4.784   2.903   0.771  0.4569  0.0681 -0.7458
 3316TIP3    H131363   4.864   2.893   0.719 -0.6737 -0.3516 -2.5127
 3316TIP3    H231364   4.752   2.990   0.749 -0.0368 -0.1126 -0.7501
 3317TIP3   OH231365   2.551   2.344  12.385  0.1151  0.3844  0.3385
 3317TIP3    H131366   2.510   2.428  12.363 -1.9844 -0.1747  1.7623
 3317TIP3    H231367   2.571   2.304  12.300 -1.6430  1.0536 -0.4430
 3318TIP3   OH231368   0.407   0.322   3.692 -0.1174 -0.4336  0.3628
 3318TIP3    H131369   0.319   0.345   3.662 -0.1346 -0.1650  0.6172
 3318TIP3    H231370   0.447   0.406   3.716  0.1823 -0.5619  0.3198
 3319TIP3   OH231371   3.621   3.307  13.202  0.2097  0.0768  0.7010
 3319TIP3    H131372   3.529   3.288  13.220  0.8987 -1.3990  2.9827
 3319TIP3    H231373   3.663   3.221  13.195  1.3883  0.7085 -0.8070
 3320TIP3   OH231374   2.995   5.410   4.947  0.3999 -0.0074  0.0879
 3320TIP3    H131375   2.998   5.379   4.857  4.6641 -1.0003  0.3532
 3320TIP3    H231376   3.021   5.502   4.942  0.2294  0.0523  0.2736
 3321TIP3   OH231377   4.484   4.850  12.951 -0.4386 -0.7758  0.1208
 3321TIP3    H131378   4.483   4.766  12.995 -0.4135 -2.6553 -3.1160
 3321TIP3    H231379   4.550   4.841  12.882 -1.2413  1.4448 -1.0802
 3322TIP3   OH231380   5.640   3.535   1.267 -0.1105  0.1732  1.0370
 3322TIP3    H131381   5.696   3.601   1.226  0.2586 -0.1096  1.0782
 3322TIP3    H231382   5.590   3.583   1.332  0.2142  0.4018  1.1198
 3323TIP3   OH231383   6.674   5.791   5.646 -0.3738 -0.0663 -0.0789
 3323TIP3    H131384   6.670   5.858   5.715  1.4314  1.3111 -1.2272
 3323TIP3    H231385   6.597   5.810   5.591 -0.7767  0.0076  0.4963
 3324TIP3   OH231386   2.774   5.435   2.807  0.0502 -0.3328  0.3994
 3324TIP3    H131387   2.747   5.345   2.787  2.0170 -0.7885 -0.4137
 3324TIP3    H231388   2.755   5.484   2.728  1.9294 -0.7656 -0.3709
 3325TIP3   OH231389   2.827   6.237   0.703 -0.4728 -0.1319  0.3534
 3325TIP3    H131390   2.743   6.278   0.682 -1.1044 -0.7177  1.6546
 3325TIP3    H231391   2.835   6.246   0.798 -0.3605 -2.4498  0.6106
 3326TIP3   OH231392   2.468   2.577   2.990 -0.1727  0.2530  0.2862
 3326TIP3    H131393   2.557   2.554   3.013 -0.5118  0.6305  2.1242
 3326TIP3    H231394   2.427   2.494   2.964  0.5008 -0.0458  0.1816
 3327TIP3   OH231395   1.212   3.293  12.948  0.1615  0.7142  0.1775
 3327TIP3    H131396   1.142   3.294  13.014 -1.2416 -1.1502 -1.1655
 3327TIP3    H231397   1.288   3.256  12.993 -1.0672 -1.5130  0.5662
 3328TIP3   OH231398   3.381   1.015  12.800  0.9685  0.0435  0.2626
 3328TIP3    H131399   3.290   1.038  12.821  1.0453  0.2447  0.3741
 3328TIP3    H231400   3.409   0.960  12.874  0.0948 -2.2548 -0.9927
 3329TIP3   OH231401   2.446   1.360  16.610  0.4152  0.1204 -0.3982
 3329TIP3    H131402   2.507   1.348  16.537 -0.2881  0.4197 -1.0476
 3329TIP3    H231403   2.375   1.412  16.574 -0.8478 -1.2542 -0.0121
 3330TIP3   OH231404   5.871   0.309  16.625 -0.3677 -0.3227  0.2758
 3330TIP3    H131405   5.945   0.309  16.686  0.1585  0.4539 -0.3426
 3330TIP3    H231406   5.896   0.246  16.557 -0.0529  0.2908 -0.1840
 3331TIP3   OH231407   2.897   5.506   4.333  0.2772  0.2021 -0.2418
 3331TIP3    H131408   2.833   5.572   4.306  1.1804  0.8350 -0.8842
 3331TIP3    H231409   2.844   5.430   4.356 -0.7645  1.0273  0.1794
 3332TIP3   OH231410   0.039   0.210  16.770  0.0392 -0.3693 -0.9830
 3332TIP3    H131411  -0.026   0.275  16.795  0.0841 -0.4904 -0.5452
 3332TIP3    H231412  -0.013   0.133  16.746  0.0346 -0.6342 -0.1423
 3333TIP3   OH231413   4.864   6.678  14.528 -0.0535 -0.0452  0.0761
 3333TIP3    H131414   4.824   6.591  14.533 -2.2337  0.8675 -0.2890
 3333TIP3    H231415   4.790   6.737  14.514  1.0487  2.2004  2.8753
 3334TIP3   OH231416   1.618   1.774  16.228  0.6619  0.1227 -0.3827
 3334TIP3    H131417   1.557   1.801  16.160 -0.5903 -0.1530  0.5991
 3334TIP3    H231418   1.599   1.682  16.243  1.3436  0.0199 -0.0797
 3335TIP3   OH231419   3.630   2.937   4.183 -0.1268  0.2890  0.2511
 3335TIP3    H131420   3.602   2.972   4.099 -1.6138  1.9373  1.3366
 3335TIP3    H231421   3.549   2.930   4.234  0.7433 -0.4495  1.6011
 3336TIP3   OH231422   3.934   3.360   2.956  0.0747  0.2339  0.5725
 3336TIP3    H131423   3.849   3.398   2.932  0.1307 -0.1154 -0.2265
 3336TIP3    H231424   3.948   3.387   3.046 -0.5681  0.8761  0.4899
 3337TIP3   OH231425   3.912   3.745  12.425 -0.2133 -0.4546 -0.1517
 3337TIP3    H131426   3.935   3.758  12.334 -0.2634  0.5856 -0.0358
 3337TIP3    H231427   3.856   3.668  12.425  1.5031 -1.7579 -0.6988
 3338TIP3   OH231428   4.588   5.770  16.218 -0.0738 -0.3308  0.4818
 3338TIP3    H131429   4.659   5.831  16.198 -1.2980  0.6604 -1.1326
 3338TIP3    H231430   4.561   5.793  16.307  0.3467  0.6109  0.3812
 3339TIP3   OH231431   4.248   4.177   4.310 -0.0686 -0.2306 -0.3429
 3339TIP3    H131432   4.180   4.130   4.262  0.4703  0.0949 -1.4578
 3339TIP3    H231433   4.330   4.148   4.271  0.3570  0.4384  0.0309
 3340TIP3   OH231434   3.093   2.249  10.788 -0.0192  0.9763  0.4581
 3340TIP3    H131435   3.001   2.274  10.797 -1.2508 -1.9450 -2.1073
 3340TIP3    H231436   3.131   2.318  10.733 -1.2994  1.1359 -0.2721
 3341TIP3   OH231437   5.674   0.257  14.157 -0.3364 -0.1104 -0.0639
 3341TIP3    H131438   5.612   0.316  14.199  1.1047 -0.1370  2.2353
 3341TIP3    H231439   5.704   0.305  14.079 -1.2224  1.0047  0.2644
 3342TIP3   OH231440   4.238   6.674  13.774  0.7652 -0.3731 -0.5256
 3342TIP3    H131441   4.200   6.627  13.848  2.8807 -2.9065 -0.9072
 3342TIP3    H231442   4.251   6.763  13.806  1.4926 -1.3550  2.1249
 3343TIP3   OH231443   0.745   4.573  14.515  0.0737  0.0027  0.4034
 3343TIP3    H131444   0.706   4.653  14.551 -1.5110  0.2439 -1.6721
 3343TIP3    H231445   0.776   4.599  14.428 -0.4982 -1.6115 -0.3202
 3344TIP3   OH231446   5.604   1.289   5.300  0.2424 -0.2284 -0.1219
 3344TIP3    H131447   5.545   1.363   5.314 -1.1998 -1.2420 -0.6077
 3344TIP3    H231448   5.687   1.316   5.339 -0.0157  1.9275 -0.9394
 3345TIP3   OH231449   6.580   1.631  12.265  0.1515  0.3422  0.5315
 3345TIP3    H131450   6.626   1.696  12.213 -0.2551  0.4667  0.3195
 3345TIP3    H231451   6.617   1.547  12.239 -1.1252  0.2468 -1.1303
 3346TIP3   OH231452   0.459   3.513  12.025 -0.3404  0.0276 -0.2278
 3346TIP3    H131453   0.502   3.578  11.969  0.3600 -0.3023 -0.0846
 3346TIP3    H231454   0.502   3.431  12.003 -1.3930 -0.4412 -0.5815
 3347TIP3   OH231455   3.932   1.953   0.197  0.3883 -0.1475  0.3582
 3347TIP3    H131456   3.864   1.909   0.147  0.3733  0.3844 -0.0951
 3347TIP3    H231457   3.950   1.894   0.271 -2.2907  0.8051  1.8996
 3348TIP3   OH231458   1.560   1.209  15.955 -0.4363  0.0916  0.3465
 3348TIP3    H131459   1.628   1.216  15.888 -1.2304  0.8081 -0.4166
 3348TIP3    H231460   1.602   1.238  16.035  0.0721  0.8694 -0.1817
 3349TIP3   OH231461   3.596   3.547  16.347 -0.4518 -0.2533  0.0344
 3349TIP3    H131462   3.525   3.493  16.381 -0.2455 -1.2939 -1.0923
 3349TIP3    H231463   3.583   3.547  16.252  1.6130 -1.3483 -0.3125
 3350TIP3   OH231464   1.067   4.652   4.443 -0.4301  0.4405 -0.3949
 3350TIP3    H131465   1.031   4.737   4.417 -2.9172 -0.2083  0.6204
 3350TIP3    H231466   1.100   4.667   4.532  1.7422  0.9616 -1.2203
 3351TIP3   OH231467   0.152   2.014  13.283 -1.0335  0.2670  0.2433
 3351TIP3    H131468   0.208   1.997  13.208 -1.1991  0.6492  0.0255
 3351TIP3    H231469   0.171   1.944  13.345  0.8091  1.2443  0.8330
 3352TIP3   OH231470   2.710   6.061  13.293 -0.0700 -0.2380 -0.3193
 3352TIP3    H131471   2.768   5.997  13.251 -1.3683 -1.4040 -0.3818
 3352TIP3    H231472   2.769   6.115  13.346  1.2696 -0.3704 -1.6135
 3353TIP3   OH231473   4.986   4.774  12.614  0.4813 -0.0801 -0.4282
 3353TIP3    H131474   5.015   4.796  12.702  0.3306 -2.2494  0.2212
 3353TIP3    H231475   5.067   4.772  12.562  0.3919  3.0953 -0.8869
 3354TIP3   OH231476   5.307   6.399   3.204 -0.5398 -0.1119 -0.5129
 3354TIP3    H131477   5.372   6.346   3.251 -0.7423  1.3782  1.6305
 3354TIP3    H231478   5.259   6.337   3.150  0.8453 -1.6814 -0.0225
 3355TIP3   OH231479   4.403   4.326  15.637  0.0513  0.2378 -0.6171
 3355TIP3    H131480   4.452   4.247  15.615  0.1721  0.0862  0.1722
 3355TIP3    H231481   4.448   4.396  15.590  1.5574  0.2323  0.7182
 3356TIP3   OH231482   2.288   2.491  15.251  0.8047 -0.0480  0.5222
 3356TIP3    H131483   2.332   2.567  15.213  0.0227 -0.8090 -2.0948
 3356TIP3    H231484   2.358   2.427  15.265  1.0403  0.0602 -0.1579
 3357TIP3   OH231485   1.804   2.064   4.579  0.2111  0.3828  0.6054
 3357TIP3    H131486   1.736   2.130   4.589  0.7961  0.8453  1.6712
 3357TIP3    H231487   1.867   2.103   4.518  0.5539  0.8230  1.2295
 3358TIP3   OH231488   4.424   2.083  11.268 -0.3521  0.2864 -0.3829
 3358TIP3    H131489   4.481   2.159  11.281  0.4069 -0.2522 -0.4752
 3358TIP3    H231490   4.467   2.013  11.316 -1.1565 -0.0401 -0.1225
 3359TIP3   OH231491   3.219   5.825  16.146  0.2010 -0.1672  0.2438
 3359TIP3    H131492   3.296   5.849  16.197  0.4196  1.1675 -0.6545
 3359TIP3    H231493   3.190   5.908  16.106 -0.5644 -0.9764 -0.9440
 3360TIP3   OH231494   2.200   0.525   6.621 -0.0911  0.3911  0.2742
 3360TIP3    H131495   2.217   0.499   6.531  0.1314 -0.2952  0.5145
 3360TIP3    H231496   2.124   0.473   6.647  0.5143 -0.2260  0.8417
 3361TIP3   OH231497   1.355   0.057  16.589  0.6890 -0.1224  0.0207
 3361TIP3    H131498   1.351   0.086  16.680  1.6608  1.0091 -0.2704
 3361TIP3    H231499   1.287   0.107  16.544  0.1088 -0.7886  0.1344
 3362TIP3   OH231500   4.648   5.608   4.961  0.1537  0.1973  0.3228
 3362TIP3    H131501   4.661   5.680   5.023  1.1570  1.2047 -0.9973
 3362TIP3    H231502   4.570   5.563   4.993 -0.4177  1.7752  1.2843
 3363TIP3   OH231503   0.941   0.553   5.345 -0.1274 -0.0981 -0.0154
 3363TIP3    H131504   0.870   0.514   5.294  0.4126 -1.4582  0.2393
 3363TIP3    H231505   0.913   0.544   5.436 -0.3606  0.8628  0.0164
 3364TIP3   OH231506   5.327   0.893  16.363  0.0327 -0.6023 -0.5845
 3364TIP3    H131507   5.355   0.977  16.398 -0.5384 -0.3615 -0.6837
 3364TIP3    H231508   5.358   0.828  16.427 -3.2633  0.0068  1.9140
 3365TIP3   OH231509   1.124   2.987  15.444 -0.3224  0.5032  0.2552
 3365TIP3    H131510   1.079   2.923  15.390 -1.3483  0.5191  1.0532
 3365TIP3    H231511   1.087   2.974  15.532  0.2753  1.4191  0.6537
 3366TIP3   OH231512   3.127   2.629   3.477 -0.1231 -0.5752 -0.5519
 3366TIP3    H131513   3.036   2.603   3.493 -0.0540 -0.1950  0.5873
 3366TIP3    H231514   3.121   2.696   3.409 -0.6125 -1.1913 -1.1184
 3367TIP3   OH231515   2.769   3.621  11.248  0.2665  0.1340  0.2040
 3367TIP3    H131516   2.716   3.658  11.177  2.2841 -0.4046 -1.6888
 3367TIP3    H231517   2.803   3.539  11.212  1.9768  0.2217  1.4995
 3368TIP3   OH231518   4.944   4.001   5.822 -0.1152 -0.6888 -0.1720
 3368TIP3    H131519   4.913   3.934   5.882 -2.8690  0.3324 -0.3288
 3368TIP3    H231520   4.869   4.058   5.808  0.9555  0.2050 -3.1123
 3369TIP3   OH231521   1.469   3.152   3.307 -0.1905 -0.3312  0.6411
 3369TIP3    H131522   1.497   3.067   3.340 -1.9420 -0.3813  2.1908
 3369TIP3    H231523   1.449   3.203   3.386  0.0132  1.2288 -0.2726
 3370TIP3   OH231524   4.830   3.345   3.982 -0.1483 -0.2735  0.1135
 3370TIP3    H131525   4.759   3.281   3.993  1.3249 -1.8370  0.8668
 3370TIP3    H231526   4.860   3.363   4.071  0.1733  0.6562 -0.1757
 3371TIP3   OH231527   2.871   1.326  15.321  0.0163  0.6730 -0.2958
 3371TIP3    H131528   2.817   1.345  15.244  0.6667  0.9926 -0.6861
 3371TIP3    H231529   2.873   1.408  15.370 -0.5689  0.4098  0.1768
 3372TIP3   OH231530   4.210   3.218   5.867  0.2535 -0.2012  0.2467
 3372TIP3    H131531   4.176   3.270   5.939 -0.1921  4.0030 -2.6446
 3372TIP3    H231532   4.306   3.227   5.873  0.2207  0.0564  0.3930
 3373TIP3   OH231533   0.385   0.790  15.488 -0.1804 -0.3587  0.0907
 3373TIP3    H131534   0.455   0.764  15.547  0.6619  1.3193 -0.1145
 3373TIP3    H231535   0.319   0.720  15.496  1.0894 -1.4944  0.9718
 3374TIP3   OH231536   3.984   4.199  17.202 -0.5576  0.2679 -0.8622
 3374TIP3    H131537   3.896   4.196  17.239 -1.1259  1.7364 -2.0205
 3374TIP3    H231538   4.027   4.271  17.248 -0.1025 -0.1591 -0.6121
 3375TIP3   OH231539   4.855   6.467   3.660  0.0034 -0.8035  0.0215
 3375TIP3    H131540   4.888   6.543   3.709  1.7606 -2.0416  0.8813
 3375TIP3    H231541   4.763   6.487   3.643  0.6245  1.9187 -0.6024
 3376TIP3   OH231542   4.337   5.812   4.747 -0.0402 -0.0593 -0.5082
 3376TIP3    H131543   4.412   5.830   4.803 -0.7220 -0.7056  0.6535
 3376TIP3    H231544   4.287   5.894   4.747  1.4111  0.9282 -2.5895
 3377TIP3   OH231545   5.051   5.249   0.985 -0.4991 -0.4541  0.3983
 3377TIP3    H131546   5.013   5.326   0.944 -0.8034  0.8695  2.9852
 3377TIP3    H231547   4.979   5.211   1.037  0.9260  0.7520  3.4963
 3378TIP3   OH231548   0.673   6.309   2.421 -0.5287  0.2945 -0.2947
 3378TIP3    H131549   0.743   6.304   2.485 -0.7209 -0.4191 -0.1311
 3378TIP3    H231550   0.655   6.403   2.412  0.9777  0.5559 -0.9276
 3379TIP3   OH231551   2.175   6.304  15.879  0.1991  0.9426  0.0073
 3379TIP3    H131552   2.188   6.398  15.867  1.8811  0.4656 -2.4198
 3379TIP3    H231553   2.236   6.281  15.949 -0.8313  1.7480  1.2194
 3380TIP3   OH231554   2.037   2.600   1.431 -0.0071  0.4456  0.1352
 3380TIP3    H131555   2.043   2.567   1.520  1.3084  0.7960  0.1989
 3380TIP3    H231556   1.955   2.648   1.428 -0.2156  0.1561  1.0639
 3381TIP3   OH231557   3.762   0.980  14.226 -0.3236 -0.2367 -0.0058
 3381TIP3    H131558   3.705   0.904  14.237  0.5467 -0.6342  2.3790
 3381TIP3    H231559   3.828   0.953  14.162 -0.8104 -0.9947 -0.1871
 3382TIP3   OH231560   2.055   0.627  15.183  0.0266  1.0868  0.0287
 3382TIP3    H131561   2.060   0.662  15.094  1.1089  0.9279  0.0148
 3382TIP3    H231562   2.064   0.704  15.239  3.1888  0.8409  0.0061
 3383TIP3   OH231563   5.084   4.190   3.493 -0.2283  0.1767 -0.0179
 3383TIP3    H131564   5.081   4.236   3.577  0.0782  0.6916 -0.2869
 3383TIP3    H231565   5.053   4.102   3.513  0.1796  0.1906  0.7119
 3384TIP3   OH231566   0.386   5.162   0.107 -0.4604  0.0190  0.5129
 3384TIP3    H131567   0.431   5.176   0.024 -0.3103  1.2729  0.7948
 3384TIP3    H231568   0.411   5.236   0.162 -0.9054 -0.5610  1.5370
 3385TIP3   OH231569   3.186   5.300  14.474  0.3317  0.3395  0.5421
 3385TIP3    H131570   3.207   5.367  14.538 -2.5437  0.3410  1.5975
 3385TIP3    H231571   3.195   5.217  14.521 -0.6305  0.2734  0.6291
 3386TIP3   OH231572   6.289   5.855  11.596  0.5901  0.3940 -0.6164
 3386TIP3    H131573   6.287   5.851  11.691 -1.6922  0.2128 -0.6280
 3386TIP3    H231574   6.275   5.948  11.576  0.9735  0.4169 -0.7890
 3387TIP3   OH231575   2.456   1.868   0.144  0.0333  0.3744  0.1658
 3387TIP3    H131576   2.509   1.945   0.121 -0.5408  0.7493  0.0871
 3387TIP3    H231577   2.395   1.858   0.072 -0.6850  0.5648  0.7313
 3388TIP3   OH231578   4.515   0.398  14.455 -0.4751  0.0700 -0.0262
 3388TIP3    H131579   4.543   0.394  14.547 -0.2378 -1.3885 -0.1429
 3388TIP3    H231580   4.443   0.336  14.450  1.4403 -2.2275 -1.4392
 3389TIP3   OH231581   1.993   0.058   2.086  0.1708  0.2795  0.9621
 3389TIP3    H131582   1.974  -0.029   2.051 -1.5662  0.1237  2.1523
 3389TIP3    H231583   2.034   0.042   2.171  1.2806  0.6538  0.5204
 3390TIP3   OH231584   1.849   4.839  14.371 -0.5614 -0.0615  0.2628
 3390TIP3    H131585   1.826   4.775  14.304 -3.0026 -0.7013  1.6012
 3390TIP3    H231586   1.850   4.923  14.324  0.7156 -0.7955 -1.1057
 3391TIP3   OH231587   5.496   0.163   2.622  0.2198  0.1450 -0.3785
 3391TIP3    H131588   5.577   0.137   2.578  0.7543  0.7493  0.2228
 3391TIP3    H231589   5.515   0.152   2.715 -0.1208  1.0253 -0.1962
 3392TIP3   OH231590   0.478   2.908  14.961 -0.3674 -0.3431 -0.3809
 3392TIP3    H131591   0.414   2.945  14.899 -0.4726 -0.4973 -0.3652
 3392TIP3    H231592   0.469   2.813  14.950  0.6337 -0.3639 -1.1762
 3393TIP3   OH231593   0.311   6.605  12.166  0.1887  0.6801 -0.5048
 3393TIP3    H131594   0.271   6.692  12.160  1.9778  1.5182 -1.0196
 3393TIP3    H231595   0.347   6.601  12.255  3.0079  1.8826 -1.4841
 3394TIP3   OH231596   4.492   3.260   0.860  0.3152  0.7013  0.1994
 3394TIP3    H131597   4.507   3.355   0.852 -0.2313  0.7723 -0.0356
 3394TIP3    H231598   4.403   3.247   0.827  0.6693 -0.0089 -0.4910
 3395TIP3   OH231599   3.136   6.117   1.118  0.5392  0.3070 -0.0010
 3395TIP3    H131600   3.153   6.185   1.052 -0.0805  0.3177 -0.1511
 3395TIP3    H231601   3.198   6.137   1.189 -0.5179  1.8358  0.5407
 3396TIP3   OH231602   1.562   6.544   3.784 -0.1906  0.1918 -0.2944
 3396TIP3    H131603   1.497   6.603   3.824 -0.1774 -0.0667  0.1114
 3396TIP3    H231604   1.516   6.461   3.776 -0.0687  0.1418 -0.4720
 3397TIP3   OH231605   0.487   0.366   2.040 -0.1529 -0.1783 -0.3139
 3397TIP3    H131606   0.422   0.370   2.111 -0.6431  2.2232 -0.8022
 3397TIP3    H231607   0.453   0.300   1.981 -2.1122  0.8498 -0.4287
 3398TIP3   OH231608   4.308   6.116   5.454 -0.1102 -0.4573  0.3406
 3398TIP3    H131609   4.238   6.069   5.498  0.8963 -0.9364  1.4965
 3398TIP3    H231610   4.362   6.047   5.415  0.9596 -0.2545  1.4098
 3399TIP3   OH231611   0.771   0.949  12.677  0.6731 -0.3223  0.0948
 3399TIP3    H131612   0.776   1.045  12.674  0.3768 -0.2997  0.2933
 3399TIP3    H231613   0.862   0.921  12.680  0.8128 -0.0976 -1.4238
 3400TIP3   OH231614   1.784   1.848   2.608 -0.4347  0.3744  0.3838
 3400TIP3    H131615   1.871   1.809   2.599 -0.6652 -0.3048  1.0302
 3400TIP3    H231616   1.783   1.918   2.543  0.4725  0.1713  0.1318
 3401TIP3   OH231617   5.988   2.524   0.034  0.0043 -0.0362 -0.0619
 3401TIP3    H131618   5.893   2.532   0.031  0.0482  0.5505 -2.9683
 3401TIP3    H231619   6.005   2.434   0.006  0.2611  0.6584 -2.4383
 3402TIP3   OH231620   1.283   3.610  16.955  0.6464 -0.0374  0.1691
 3402TIP3    H131621   1.335   3.649  16.885  0.3196 -0.5934 -0.3914
 3402TIP3    H231622   1.317   3.522  16.966  0.3377 -0.1391  0.3378
 3403TIP3   OH231623   3.865   6.333   4.189 -0.0313 -0.3674  0.2909
 3403TIP3    H131624   3.897   6.289   4.110  0.9079  1.8704 -0.6682
 3403TIP3    H231625   3.898   6.279   4.261 -2.5045 -3.5627 -0.6994
 3404TIP3   OH231626   1.071   5.309   2.692  0.4603  0.0985  0.2707
 3404TIP3    H131627   1.025   5.244   2.746  0.8351  1.0212  1.7614
 3404TIP3    H231628   1.098   5.376   2.754  0.5765  1.4118 -1.1531
 3405TIP3   OH231629   2.835   4.620   5.244  0.2809  0.4315 -0.4799
 3405TIP3    H131630   2.787   4.700   5.262 -0.4237 -0.4796  2.1863
 3405TIP3    H231631   2.924   4.649   5.223 -0.4359  1.9532 -1.5865
 3406TIP3   OH231632   5.086   6.176  17.117 -0.6736 -0.3255  0.4491
 3406TIP3    H131633   5.145   6.194  17.191 -0.1336 -1.6482  0.3825
 3406TIP3    H231634   5.002   6.154  17.158 -0.5166 -0.5506  0.6571
 3407TIP3   OH231635   2.665   1.387  12.388 -0.1696 -0.3826  0.1945
 3407TIP3    H131636   2.750   1.428  12.371 -0.6370  0.1248 -1.0028
 3407TIP3    H231637   2.615   1.402  12.308 -0.8255 -2.1322  0.2419
 3408TIP3   OH231638   1.317   1.049   5.887 -0.5665  0.0302  0.2879
 3408TIP3    H131639   1.378   0.990   5.842 -0.2187 -0.0487  0.8607
 3408TIP3    H231640   1.263   0.992   5.941 -1.2321  0.0897 -0.2958
 3409TIP3   OH231641   5.082   2.160   0.536 -0.3691 -0.1051  0.0863
 3409TIP3    H131642   5.029   2.221   0.485 -2.0090 -0.5625  1.1463
 3409TIP3    H231643   5.115   2.213   0.609 -0.8116 -0.1870  0.3549
 3410TIP3   OH231644   6.029   1.028   5.251 -0.3315 -0.0987 -0.3181
 3410TIP3    H131645   6.038   1.106   5.195  1.4612 -0.0301  0.0104
 3410TIP3    H231646   5.954   1.047   5.307 -0.6667  0.8687 -1.0682
 3411TIP3   OH231647   0.047   5.743   6.642  0.2638 -0.3377  0.0616
 3411TIP3    H131648   0.096   5.710   6.566 -0.1070  0.4712 -0.5432
 3411TIP3    H231649   0.084   5.695   6.716 -0.8560 -2.7819 -0.8545
 3412TIP3   OH231650   5.362   3.352  16.078  0.5425 -0.1533  0.4402
 3412TIP3    H131651   5.426   3.424  16.082 -1.3311  1.5684  1.7621
 3412TIP3    H231652   5.346   3.330  16.170 -0.0488 -1.2337  0.0958
 3413TIP3   OH231653   0.110   5.278   0.144  0.2224 -0.1130 -0.2742
 3413TIP3    H131654   0.187   5.243   0.189  1.2883  1.0506 -1.1229
 3413TIP3    H231655   0.132   5.369   0.126  0.1554 -0.6249 -3.6732
 3414TIP3   OH231656   5.851   2.678   3.729  0.6761  0.0027  0.2015
 3414TIP3    H131657   5.832   2.754   3.785  1.9836  2.2694 -2.2065
 3414TIP3    H231658   5.946   2.673   3.727  0.6463 -2.5992  1.2773
 3415TIP3   OH231659   4.040   6.040   2.234 -0.0287  0.3646  0.0119
 3415TIP3    H131660   4.126   6.034   2.275  0.5731  2.6727 -0.7728
 3415TIP3    H231661   3.991   6.102   2.289  0.3516  2.4766 -1.8925
 3416TIP3   OH231662   4.609   6.326   4.619  0.2494 -0.9457 -0.3908
 3416TIP3    H131663   4.524   6.345   4.579  0.6180  1.1036 -0.2757
 3416TIP3    H231664   4.658   6.407   4.612  1.1289 -1.1578  2.2741
 3417TIP3   OH231665   1.673   0.973  14.301 -0.1809  0.5513  0.0488
 3417TIP3    H131666   1.611   1.008  14.365  0.1014  0.9111  0.1287
 3417TIP3    H231667   1.756   0.967  14.349  0.1665  1.3620 -0.4458
 3418TIP3   OH231668   0.071   3.040  16.483 -0.3074  0.2644  0.1113
 3418TIP3    H131669   0.106   2.960  16.444 -0.2126 -0.2614  1.2176
 3418TIP3    H231670   0.110   3.042  16.571 -0.5281  1.3835  0.1891
 3419TIP3   OH231671   0.907   3.927   4.306  0.3196 -0.1975 -0.0332
 3419TIP3    H131672   0.898   3.843   4.350 -1.4295 -0.1635 -0.2469
 3419TIP3    H231673   0.952   3.907   4.224  0.4919 -0.8136  0.2070
 3420TIP3   OH231674   1.062   0.002   0.873  0.1259  0.6341 -0.4113
 3420TIP3    H131675   1.146  -0.028   0.839  1.8719  2.1930  2.1988
 3420TIP3    H231676   1.056  -0.037   0.960 -0.9509  2.0594  0.1926
 3421TIP3   OH231677   3.390   5.350  12.410 -0.1466 -0.0508  0.5579
 3421TIP3    H131678   3.432   5.436  12.412  1.1459 -0.5479  4.4982
 3421TIP3    H231679   3.460   5.288  12.431 -1.1531 -2.0900 -1.6214
 3422TIP3   OH231680   0.424   0.629   1.372 -0.6958  0.2017  0.3096
 3422TIP3    H131681   0.448   0.709   1.324  0.4693 -0.4650 -0.2688
 3422TIP3    H231682   0.332   0.614   1.350 -0.3959  0.3322 -1.1365
 3423TIP3   OH231683   4.077   2.132   2.766  0.2742 -0.4106  0.2641
 3423TIP3    H131684   4.012   2.182   2.816 -2.5437 -1.6503 -1.9307
 3423TIP3    H231685   4.071   2.043   2.801 -0.6620 -0.9570 -1.2015
 3424TIP3   OH231686   4.643   5.955  13.971 -0.0900 -0.1138  0.5479
 3424TIP3    H131687   4.667   5.874  13.925 -0.7009 -0.2507  0.4587
 3424TIP3    H231688   4.632   6.019  13.901 -2.1076 -0.5895  0.3489
 3425TIP3   OH231689   5.578   3.988  12.215 -0.0376 -0.0340 -0.0531
 3425TIP3    H131690   5.545   4.063  12.165  0.7740 -0.2667 -0.9659
 3425TIP3    H231691   5.500   3.934  12.231 -0.2802 -0.0953 -1.3178
 3426TIP3   OH231692   4.008   4.602  16.521  0.2266  0.0331  0.6063
 3426TIP3    H131693   3.934   4.542  16.506  0.3084 -0.1887  1.0671
 3426TIP3    H231694   4.078   4.568  16.464 -0.1069  0.4094 -0.0440
 3427TIP3   OH231695   3.601   1.063   5.098 -0.3826 -0.4523  0.2749
 3427TIP3    H131696   3.686   1.100   5.076 -1.1351  1.6662  0.7071
 3427TIP3    H231697   3.574   1.018   5.018 -0.0864  1.3204 -0.8819
 3428TIP3   OH231698   4.743   4.922  12.750 -0.0531  0.1158 -0.3462
 3428TIP3    H131699   4.761   4.829  12.764 -0.3408 -0.1063 -1.3393
 3428TIP3    H231700   4.686   4.924  12.673 -1.4342  1.0226  0.6494
 3429TIP3   OH231701   2.445   0.703  16.128 -0.2631  0.1948 -0.1905
 3429TIP3    H131702   2.518   0.757  16.095  0.2493  0.5859  1.5049
 3429TIP3    H231703   2.470   0.613  16.107  0.5916  0.3506  0.1349
 3430TIP3   OH231704   1.850   4.574  12.219  0.1344 -0.7945 -0.8044
 3430TIP3    H131705   1.899   4.636  12.164  1.0710  0.2231  1.0729
 3430TIP3    H231706   1.902   4.568  12.299 -2.4924 -0.1764  1.0575
 3431TIP3   OH231707   5.667   1.215   5.046 -0.0630 -0.2010 -0.1333
 3431TIP3    H131708   5.652   1.120   5.042  1.7438 -0.5976  1.2580
 3431TIP3    H231709   5.644   1.238   5.136  1.0494  0.3622  0.0217
 3432TIP3   OH231710   3.764   4.629  10.531  0.4418  0.6277  0.6187
 3432TIP3    H131711   3.789   4.537  10.518 -1.2922  0.2276 -0.1851
 3432TIP3    H231712   3.842   4.679  10.508  1.3720 -0.6404  0.9402
 3433TIP3   OH231713   3.018   5.021   1.436 -0.0515  0.1645 -0.4878
 3433TIP3    H131714   3.093   5.051   1.487  0.2782 -0.7767 -0.4023
 3433TIP3    H231715   2.956   5.094   1.440  0.8819  0.9853 -0.6317
 3434TIP3   OH231716   3.738   2.357   4.152  0.8751 -0.0964 -0.3855
 3434TIP3    H131717   3.723   2.374   4.059  0.5676 -1.7490 -0.6714
 3434TIP3    H231718   3.717   2.439   4.196 -1.0205  0.1059 -1.5724
 3435TIP3   OH231719   1.649   2.540  15.276 -0.0835  0.2411  0.5330
 3435TIP3    H131720   1.588   2.580  15.338  1.1698  1.5301  0.9885
 3435TIP3    H231721   1.596   2.523  15.198 -1.3402 -0.0065  1.4155
 3436TIP3   OH231722   5.626   5.136  14.460 -0.4282 -0.2811 -0.1538
 3436TIP3    H131723   5.665   5.055  14.492 -0.5958 -0.7394 -1.0796
 3436TIP3    H231724   5.658   5.204  14.520  1.5521 -0.6828 -0.7114
 3437TIP3   OH231725   6.451   6.524   4.783 -0.6779  0.1846 -0.4592
 3437TIP3    H131726   6.527   6.530   4.726 -0.4215  0.2337 -0.1124
 3437TIP3    H231727   6.419   6.614   4.790 -0.5518  0.2183 -0.3123
 3438TIP3   OH231728   0.026   0.134   1.144  0.6513 -0.1032 -0.3013
 3438TIP3    H131729  -0.034   0.207   1.127 -1.3845 -1.6189  0.0392
 3438TIP3    H231730  -0.022   0.056   1.115  2.4349 -1.4081  0.0955
 3439TIP3   OH231731   5.434   2.228  12.830  0.1024  0.1612 -0.5292
 3439TIP3    H131732   5.503   2.284  12.867  0.9924 -0.9767 -0.3933
 3439TIP3    H231733   5.450   2.231  12.736 -1.3234  1.9744 -0.7707
 3440TIP3   OH231734   5.737   3.152   2.220 -0.0870  0.3574  0.7406
 3440TIP3    H131735   5.685   3.075   2.195 -1.8063  1.3485  1.0892
 3440TIP3    H231736   5.736   3.208   2.142 -0.4264  0.8272  1.0750
 3441TIP3   OH231737   2.056   1.250  16.415 -0.2002 -0.6889  0.1468
 3441TIP3    H131738   1.979   1.199  16.390 -1.0138  0.4931  0.1948
 3441TIP3    H231739   2.121   1.230  16.347 -1.1823 -0.2529 -0.9557
 3442TIP3   OH231740   5.616   5.277  10.610 -0.3180  0.4410  0.1134
 3442TIP3    H131741   5.523   5.301  10.612 -0.0990  1.3576 -0.3330
 3442TIP3    H231742   5.645   5.288  10.701 -1.2849 -2.6208  0.9204
 3443TIP3   OH231743   3.519   2.363  14.478 -0.0178 -0.4390 -0.4465
 3443TIP3    H131744   3.530   2.458  14.478  0.4123 -0.4360  1.3856
 3443TIP3    H231745   3.589   2.331  14.421 -0.3405  0.3516 -1.3073
 3444TIP3   OH231746   0.580   6.012   3.392  0.1489 -0.2350 -0.1411
 3444TIP3    H131747   0.602   5.987   3.482 -0.1009 -0.9672 -0.2841
 3444TIP3    H231748   0.574   6.108   3.396 -0.7311 -0.3094  0.8307
 3445TIP3   OH231749   2.621   4.780   0.874  0.7828  0.0959 -0.1416
 3445TIP3    H131750   2.647   4.847   0.937 -0.0032  0.8969 -0.6442
 3445TIP3    H231751   2.564   4.721   0.924 -1.9585  2.1424 -0.6185
 3446TIP3   OH231752   3.111   0.351  16.251  0.4320 -0.2701 -0.3026
 3446TIP3    H131753   3.165   0.410  16.305 -0.5057  0.5347 -0.2215
 3446TIP3    H231754   3.144   0.362  16.162  1.2878 -0.8086 -0.0638
 3447TIP3   OH231755   1.426   2.674  12.879 -0.0536 -0.0799  0.6844
 3447TIP3    H131756   1.363   2.603  12.865  0.2358  0.1342 -2.3787
 3447TIP3    H231757   1.499   2.631  12.924 -1.1021 -0.9926  1.6001
 3448TIP3   OH231758   1.757   5.501   0.501 -0.0829 -0.0368  0.2104
 3448TIP3    H131759   1.674   5.488   0.547  0.4612  0.7863  1.4858
 3448TIP3    H231760   1.823   5.503   0.571  0.6917  2.1045 -0.4877
 3449TIP3   OH231761   6.706   5.429   2.377 -0.2289 -0.2420  0.1672
 3449TIP3    H131762   6.611   5.423   2.367  0.0136  0.2288 -3.6756
 3449TIP3    H231763   6.739   5.344   2.348  0.6017  0.3009 -0.5235
 3450TIP3   OH231764   0.345   2.631   1.644  0.0770 -0.4857 -0.4364
 3450TIP3    H131765   0.353   2.720   1.611 -1.5342 -0.6267 -1.3511
 3450TIP3    H231766   0.350   2.576   1.565  0.6570 -1.1764  0.0701
 3451TIP3   OH231767   5.241   0.476   5.008 -0.4891  0.0736 -0.7979
 3451TIP3    H131768   5.186   0.520   5.073  2.3621  1.9672  0.5741
 3451TIP3    H231769   5.246   0.385   5.038 -1.3857  0.2901  0.0659
 3452TIP3   OH231770   2.588   6.128   1.164  0.4655  0.3881  0.2423
 3452TIP3    H131771   2.573   6.194   1.098  2.0991  0.2511 -0.3134
 3452TIP3    H231772   2.683   6.123   1.172  0.3523 -1.0520  1.1159
 3453TIP3   OH231773   0.450   1.907   1.866 -0.7849  0.9792 -0.0377
 3453TIP3    H131774   0.421   1.860   1.945 -2.0535  0.6270 -0.6925
 3453TIP3    H231775   0.545   1.911   1.874 -0.8359  0.2364  1.1168
 3454TIP3   OH231776   4.063   1.358  16.320  0.3348 -0.1278 -0.2860
 3454TIP3    H131777   4.039   1.293  16.254 -1.0973  0.0142  0.0648
 3454TIP3    H231778   4.141   1.322  16.362 -1.0671 -2.2010  0.6844
 3455TIP3   OH231779   0.666   0.187   4.929  0.1920  0.4214  0.5733
 3455TIP3    H131780   0.663   0.281   4.910 -0.3687  0.2153 -0.4447
 3455TIP3    H231781   0.629   0.146   4.851  1.2721 -0.6963  0.6159
 3456TIP3   OH231782   0.052   6.372   0.671  0.1286 -0.1244  0.3309
 3456TIP3    H131783   0.057   6.301   0.606 -1.0286  2.6133 -3.0246
 3456TIP3    H231784   0.121   6.433   0.645 -0.3648  1.0599  1.7172
 3457TIP3   OH231785   1.211   4.420  13.420  0.0959 -0.4110 -0.3067
 3457TIP3    H131786   1.138   4.470  13.384 -1.1446 -1.2607  0.9313
 3457TIP3    H231787   1.182   4.395  13.508  2.1730 -0.1585  0.5240
 3458TIP3   OH231788   0.068   3.724  16.081 -0.0820 -0.2988 -0.0897
 3458TIP3    H131789   0.071   3.628  16.082 -3.9951 -0.6307  1.8788
 3458TIP3    H231790   0.140   3.752  16.137  0.4677 -2.1275  0.1712
 3459TIP3   OH231791   5.346   6.471   0.818  0.1169 -0.0228  0.0788
 3459TIP3    H131792   5.309   6.477   0.729  0.6234 -1.3451 -0.2377
 3459TIP3    H231793   5.271   6.482   0.876 -0.2283  0.8344 -0.5037
 3460TIP3   OH231794   4.552   0.321   2.881  0.0385  0.6072 -0.2796
 3460TIP3    H131795   4.547   0.408   2.843 -0.6520  0.5804 -0.2657
 3460TIP3    H231796   4.596   0.268   2.815  0.6223  0.9985 -0.2155
 3461TIP3   OH231797   0.167   1.202   4.030  0.1238 -0.4222 -0.4248
 3461TIP3    H131798   0.139   1.251   3.952  1.6942  1.6958  0.2522
 3461TIP3    H231799   0.166   1.266   4.100 -1.9775 -2.4523  1.5709
 3462TIP3   OH231800   0.659   4.997  15.873  0.0077  0.3601 -0.1354
 3462TIP3    H131801   0.613   4.919  15.902 -0.8781  1.3944  1.4182
 3462TIP3    H231802   0.745   4.991  15.915 -0.8707  1.2834  1.9896
 3463TIP3   OH231803   1.502   6.389   4.492 -0.3594  0.2345 -0.7313
 3463TIP3    H131804   1.475   6.446   4.564 -0.0651 -0.0548 -0.3915
 3463TIP3    H231805   1.542   6.313   4.534  2.3657  1.2787 -1.1787
 3464TIP3   OH231806   2.322   3.725  12.172  0.0451 -0.6716  0.3442
 3464TIP3    H131807   2.364   3.800  12.213  0.1581  0.0960 -1.1071
 3464TIP3    H231808   2.377   3.704  12.097 -2.4930  0.9058 -2.1422
 3465TIP3   OH231809   5.953   1.828   0.681  0.7526 -0.1103  0.0921
 3465TIP3    H131810   5.892   1.757   0.704 -0.6727  1.0809  0.1555
 3465TIP3    H231811   5.975   1.868   0.765  1.4781 -0.4153  0.0479
 3466TIP3   OH231812   1.340   0.586   1.071 -0.2953  0.5699 -0.0282
 3466TIP3    H131813   1.372   0.528   1.001 -0.9104  1.1009 -0.7622
 3466TIP3    H231814   1.273   0.535   1.116 -0.2452  0.4110 -0.1337
 3467TIP3   OH231815   2.308   4.398   1.958  0.0020  0.5963 -0.0792
 3467TIP3    H131816   2.322   4.492   1.970 -0.4182  0.6231  0.2371
 3467TIP3    H231817   2.352   4.358   2.033 -1.4474  0.6753  0.8683
 3468TIP3   OH231818   3.507   6.488   4.425  0.0892 -0.1394  0.1670
 3468TIP3    H131819   3.579   6.541   4.391 -1.6732  1.9394 -0.6532
 3468TIP3    H231820   3.429   6.544   4.413 -1.5554 -1.9472  1.6875
 3469TIP3   OH231821   5.689   2.941   4.219  0.2991  0.5339 -0.3793
 3469TIP3    H131822   5.626   2.931   4.147  0.7642  0.2743 -0.7533
 3469TIP3    H231823   5.771   2.962   4.176  1.4111 -2.8774 -0.2588
 3470TIP3   OH231824   3.711   6.327  15.518 -0.6679 -0.4475 -0.1149
 3470TIP3    H131825   3.735   6.296  15.605  0.5776  2.1410  0.5885
 3470TIP3    H231826   3.633   6.381  15.532  0.5465  1.4366 -0.2057
 3471TIP3   OH231827   2.256   2.185  12.827  0.3295  0.8334 -0.2525
 3471TIP3    H131828   2.298   2.239  12.894 -1.1426  0.8168  0.7268
 3471TIP3    H231829   2.313   2.109  12.819  0.6483  0.9374  0.8396
 3472TIP3   OH231830   3.199   4.547  14.849 -0.3441 -0.2829 -0.3796
 3472TIP3    H131831   3.214   4.611  14.779 -1.3635 -1.0278 -1.3116
 3472TIP3    H231832   3.111   4.567  14.882  0.3782  0.4910  1.1940
 3473TIP3   OH231833   2.526   3.867  16.668  0.6681 -0.0042 -0.1864
 3473TIP3    H131834   2.492   3.909  16.747  1.1752  0.2234 -0.0924
 3473TIP3    H231835   2.580   3.934  16.627  1.7384 -0.6645  0.1296
 3474TIP3   OH231836   2.255   5.075  16.573 -0.5035  0.3748  0.1566
 3474TIP3    H131837   2.271   4.990  16.532 -0.3055  0.1171  0.7418
 3474TIP3    H231838   2.332   5.089  16.629 -1.4052  0.0182  1.5521
 3475TIP3   OH231839   4.784   3.093  17.044  0.9875  0.3461  0.1136
 3475TIP3    H131840   4.786   3.174  16.993 -0.9805 -0.0845 -0.7297
 3475TIP3    H231841   4.752   3.027  16.982  1.0991 -0.7589  1.1985
 3476TIP3   OH231842   3.493   3.017  17.090 -0.5703  0.1110 -0.1101
 3476TIP3    H131843   3.490   3.034  16.996 -2.0419  3.1177  0.3807
 3476TIP3    H231844   3.526   2.927  17.096  2.0310  0.6375 -3.3636
 3477TIP3   OH231845   1.808   3.411   4.937  0.4711 -0.2665  0.0574
 3477TIP3    H131846   1.834   3.496   4.973  1.8439  0.3580 -2.2224
 3477TIP3    H231847   1.762   3.432   4.855  0.0549 -1.7012 -0.1129
 3478TIP3   OH231848   1.393   6.277  12.746 -0.5754 -0.7879  0.5501
 3478TIP3    H131849   1.383   6.190  12.785  0.3806 -0.8764  0.6296
 3478TIP3    H231850   1.337   6.276  12.669 -1.8265 -0.9153  1.4270
 3479TIP3   OH231851   4.386   5.808  11.762 -0.1604  0.0916  0.2417
 3479TIP3    H131852   4.305   5.852  11.789 -1.4599 -0.8994 -1.7940
 3479TIP3    H231853   4.387   5.817  11.667  0.7780 -2.1227 -0.0041
 3480TIP3   OH231854   5.984   4.177   5.051  0.0525  0.1685  0.0968
 3480TIP3    H131855   5.941   4.262   5.050  0.4959  0.4491 -2.4780
 3480TIP3    H231856   6.060   4.188   5.108  0.0949  1.4863 -0.2022
 3481TIP3   OH231857   4.951   4.602   0.020 -0.0290 -0.4560  0.6059
 3481TIP3    H131858   5.001   4.525  -0.004  1.6338  0.1410  1.9452
 3481TIP3    H231859   4.947   4.599   0.116  0.5567  1.3690  0.7312
 3482TIP3   OH231860   5.572   4.515   1.528 -0.2215  0.5202 -0.2094
 3482TIP3    H131861   5.636   4.544   1.462 -2.7185  1.9932 -2.1993
 3482TIP3    H231862   5.499   4.482   1.476 -1.5430 -0.0586  1.9333
 3483TIP3   OH231863   1.494   4.089  14.139  0.2214  0.3302 -0.0956
 3483TIP3    H131864   1.566   4.152  14.133  1.0145 -0.6628 -1.4986
 3483TIP3    H231865   1.536   4.003  14.136 -1.0377 -0.2853 -1.6483
 3484TIP3   OH231866   5.468   2.079  14.966 -0.0936 -0.6983  0.6706
 3484TIP3    H131867   5.388   2.066  15.017 -0.3231  0.2410  0.5721
 3484TIP3    H231868   5.471   2.174  14.950  0.4498 -0.8671 -0.2870
 3485TIP3   OH231869   5.293   2.349   4.184  0.1958  0.1664 -0.3064
 3485TIP3    H131870   5.312   2.351   4.277 -1.5473  1.3051  0.0829
 3485TIP3    H231871   5.356   2.287   4.147  0.8065 -0.4285  1.6375
 3486TIP3   OH231872   4.777   6.203   0.605 -0.3119 -0.2020 -0.1756
 3486TIP3    H131873   4.809   6.173   0.520 -2.0657 -1.3983 -0.4741
 3486TIP3    H231874   4.852   6.195   0.664  0.5234 -0.7608 -1.2831
 3487TIP3   OH231875   4.969   1.219   3.494 -0.2602  0.0032  0.2004
 3487TIP3    H131876   4.924   1.139   3.521  0.9122 -0.1553  1.7867
 3487TIP3    H231877   5.057   1.192   3.471  0.2604  0.8705  1.0958
 3488TIP3   OH231878   1.699   2.074   1.813  0.1714 -0.5041  0.3085
 3488TIP3    H131879   1.637   2.019   1.859  1.7185 -1.0630  1.8190
 3488TIP3    H231880   1.782   2.026   1.816  1.3170  1.3557  0.6897
 3489TIP3   OH231881   6.046   6.672  14.750 -0.4992  0.2580  0.2109
 3489TIP3    H131882   6.015   6.628  14.671 -1.3965  0.2748  0.5398
 3489TIP3    H231883   6.062   6.763  14.722  0.0901  0.0428 -0.1611
 3490TIP3   OH231884   0.462   3.821   1.335  0.5200 -0.0030  1.0474
 3490TIP3    H131885   0.508   3.759   1.278 -0.7330 -0.4269  0.4668
 3490TIP3    H231886   0.384   3.846   1.285  2.1784  4.1017  0.0576
 3491TIP3   OH231887   1.934   2.751  11.724  0.1115 -0.2484 -0.0355
 3491TIP3    H131888   1.897   2.838  11.736  3.1139  1.3327 -1.2921
 3491TIP3    H231889   1.970   2.728  11.810 -1.7467 -0.8948  0.6300
 3492TIP3   OH231890   5.017   1.846  14.007 -0.1458  0.8951  0.3410
 3492TIP3    H131891   4.926   1.855  13.981  0.2291  3.4090 -0.3713
 3492TIP3    H231892   5.066   1.838  13.925  0.3805  1.0146  0.6332
 3493TIP3   OH231893   6.269   4.543   4.102  0.5044  0.7217  0.1573
 3493TIP3    H131894   6.210   4.507   4.168  1.2365 -0.4258  0.2186
 3493TIP3    H231895   6.215   4.553   4.024 -0.1620  1.2718  0.6721
 3494TIP3   OH231896   6.058   3.589   3.437  0.2766  0.0523 -0.5250
 3494TIP3    H131897   6.068   3.547   3.522 -0.1452  0.0903 -0.4524
 3494TIP3    H231898   6.047   3.517   3.375 -1.0395  0.0537 -0.3204
 3495TIP3   OH231899   6.387   6.345  16.485  0.1247  0.1624  1.0731
 3495TIP3    H131900   6.433   6.323  16.566 -0.9934  0.6813  1.8843
 3495TIP3    H231901   6.334   6.422  16.508  1.3158  1.5843 -0.7171
 3496TIP3   OH231902   3.437   0.792  17.120  0.2610 -0.7132 -0.0399
 3496TIP3    H131903   3.511   0.770  17.063  1.0365 -1.0660  1.0731
 3496TIP3    H231904   3.388   0.710  17.128  0.3582 -0.7576  0.0994
 3497TIP3   OH231905   3.106   1.952  14.957 -0.2334 -0.4732  0.1424
 3497TIP3    H131906   3.127   1.921  15.045  1.3301  2.1806  0.8033
 3497TIP3    H231907   3.025   2.002  14.968  0.0819  0.0472  0.1445
 3498TIP3   OH231908   1.609   3.768  14.552  0.0022  0.1508 -0.1475
 3498TIP3    H131909   1.689   3.746  14.504 -0.9834  0.3172 -1.9277
 3498TIP3    H231910   1.634   3.844  14.604  1.0864  0.0180 -0.4324
 3499TIP3   OH231911   3.624   3.127   4.911 -0.1364 -0.3259 -0.1824
 3499TIP3    H131912   3.584   3.054   4.959  1.4304 -0.3566  1.1842
 3499TIP3    H231913   3.680   3.085   4.845  1.5084 -0.4861  1.2137
 3500TIP3   OH231914   0.807   6.650  11.559 -0.6992 -0.3518 -0.0149
 3500TIP3    H131915   0.839   6.652  11.469  0.3406 -0.8117  0.3287
 3500TIP3    H231916   0.877   6.607  11.609  0.3506  2.9531  1.6578
 3501TIP3   OH231917   1.727   3.306  11.535  0.6623 -0.4210 -0.7062
 3501TIP3    H131918   1.649   3.349  11.569  0.6493 -0.1145 -1.1071
 3501TIP3    H231919   1.745   3.351  11.452  1.6504 -0.0345 -0.3044
 3502TIP3   OH231920   5.659   2.975  11.796  0.0390  0.1800 -0.2832
 3502TIP3    H131921   5.658   3.011  11.707 -0.6925  1.6871  0.2823
 3502TIP3    H231922   5.748   2.990  11.827 -0.2815  1.7137 -0.0157
 3503TIP3   OH231923   5.076   0.731   5.068  0.5459 -0.2689 -0.1529
 3503TIP3    H131924   5.059   0.752   4.976  0.0292  0.3391  0.0690
 3503TIP3    H231925   5.127   0.806   5.100  0.0286 -0.0836  0.2574
 3504TIP3   OH231926   5.045   4.317   0.416 -0.5764  0.1618  0.4610
 3504TIP3    H131927   5.092   4.400   0.417  1.0220 -0.7000  0.4693
 3504TIP3    H231928   5.034   4.295   0.509  2.2681 -1.3224  0.5694
 3505TIP3   OH231929   1.269   5.772   1.235  0.9754 -0.2890 -0.1605
 3505TIP3    H131930   1.363   5.760   1.232  1.0107 -0.1899 -3.2016
 3505TIP3    H231931   1.256   5.864   1.211  0.1165 -0.4153 -0.2226
 3506TIP3   OH231932   0.874   2.267  12.278  0.2863 -0.1150 -0.3385
 3506TIP3    H131933   0.908   2.344  12.324  1.4930 -0.5168 -0.5362
 3506TIP3    H231934   0.820   2.304  12.208  0.9088  0.5641 -0.4787
 3507TIP3   OH231935   2.698   4.932   6.842  0.6188  0.1413  0.2912
 3507TIP3    H131936   2.779   4.882   6.849  1.0915  0.9955  0.9080
 3507TIP3    H231937   2.708   4.984   6.763  0.5174 -0.0054  0.1786
 3508TIP3   OH231938   3.459   2.713  10.960  0.0063  0.2580  0.0553
 3508TIP3    H131939   3.428   2.801  10.980  0.1423  0.2198  0.4402
 3508TIP3    H231940   3.390   2.674  10.907  0.6242  1.1493 -1.4849
 3509TIP3   OH231941   0.867   3.095  11.569 -0.5470 -0.1291 -0.1786
 3509TIP3    H131942   0.939   3.035  11.548 -0.3574 -0.5164  1.4288
 3509TIP3    H231943   0.909   3.181  11.576 -0.1376 -0.4192  1.1682
 3510TIP3   OH231944   5.219   5.512  17.000  0.2262  0.3343 -0.1493
 3510TIP3    H131945   5.283   5.575  17.033  2.5857 -1.6305 -0.6359
 3510TIP3    H231946   5.141   5.525  17.053  2.0485  0.8667  2.5578
 3511TIP3   OH231947   0.203   5.615   3.033  0.1031  0.2248 -0.4107
 3511TIP3    H131948   0.232   5.685   3.091 -2.2542  0.9711 -0.0395
 3511TIP3    H231949   0.168   5.660   2.956 -0.1257 -0.6196 -0.8167
 3512TIP3   OH231950   4.651   5.291  13.268  0.0340  0.1201 -0.5432
 3512TIP3    H131951   4.611   5.227  13.209 -1.9373  0.3212  0.5261
 3512TIP3    H231952   4.702   5.237  13.329 -1.0708 -0.4060 -0.0597
 3513TIP3   OH231953   5.857   3.876  13.578  0.6905  0.0025  0.5051
 3513TIP3    H131954   5.855   3.830  13.494 -0.4053 -2.2704  1.6738
 3513TIP3    H231955   5.929   3.834  13.626  0.4393  0.3367  1.1825
 3514TIP3   OH231956   0.571   1.240   5.317  0.6635  0.0263  0.0693
 3514TIP3    H131957   0.496   1.185   5.340  0.8256 -0.4739 -0.5710
 3514TIP3    H231958   0.540   1.330   5.331 -0.5503 -0.0957 -1.5463
 3515TIP3   OH231959   4.757   4.302  12.964  0.0314 -0.2949 -0.3841
 3515TIP3    H131960   4.738   4.229  13.023  1.0912  0.4682  0.9607
 3515TIP3    H231961   4.686   4.300  12.899 -0.8555 -1.5121  0.5872
 3516TIP3   OH231962   1.552   6.049   4.519 -0.4082 -0.0525  0.4875
 3516TIP3    H131963   1.534   6.013   4.432 -2.2803  1.9225 -0.0267
 3516TIP3    H231964   1.647   6.037   4.531 -0.2090 -0.8550 -1.5833
 3517TIP3   OH231965   6.478   5.319  15.916  0.2610 -0.3122 -0.6910
 3517TIP3    H131966   6.386   5.330  15.892 -0.4380 -2.7148  0.6005
 3517TIP3    H231967   6.479   5.245  15.976  2.7937  0.9501  1.0264
 3518TIP3   OH231968   6.180   3.353  14.045  0.4487 -0.2487 -0.3244
 3518TIP3    H131969   6.158   3.387  14.132 -0.8044  0.0073 -0.7194
 3518TIP3    H231970   6.228   3.425  14.003 -1.2605  0.6933 -0.7715
 3519TIP3   OH231971   4.337   4.633  11.412 -0.3592 -0.2025  0.2088
 3519TIP3    H131972   4.420   4.641  11.364 -1.2992 -0.7571 -1.5755
 3519TIP3    H231973   4.317   4.723  11.439 -0.5005  0.3710 -1.6871
 3520TIP3   OH231974   3.145   1.763   0.150 -0.0522 -0.0150 -0.2195
 3520TIP3    H131975   3.189   1.848   0.158 -0.9472  0.4790 -0.4065
 3520TIP3    H231976   3.210   1.706   0.108 -0.1046  1.1188 -1.9354
 3521TIP3   OH231977   0.310   2.917   3.067  0.3144 -0.1407  0.4924
 3521TIP3    H131978   0.353   2.920   2.982  4.3560 -0.5415  2.2575
 3521TIP3    H231979   0.290   2.824   3.081  1.0860 -0.3060  0.5570
 3522TIP3   OH231980   4.598   6.628  16.156 -0.5796  0.0759 -0.0011
 3522TIP3    H131981   4.507   6.653  16.139 -0.6670 -0.4038 -0.2438
 3522TIP3    H231982   4.619   6.567  16.086 -0.6601 -1.2556  1.0946
 3523TIP3   OH231983   3.078   3.874  12.364  0.0811 -0.9767 -0.0375
 3523TIP3    H131984   3.121   3.854  12.281 -1.3391 -1.2462 -0.7551
 3523TIP3    H231985   3.085   3.793  12.415  1.2471 -0.7048  0.2487
 3524TIP3   OH231986   2.894   2.552  14.575 -0.5243 -0.1839 -0.3782
 3524TIP3    H131987   2.854   2.533  14.660  0.6980 -1.0315  0.0255
 3524TIP3    H231988   2.988   2.559  14.593 -0.3638  0.7979 -1.4736
 3525TIP3   OH231989   4.476   6.122  15.860 -0.0008  0.1899 -0.4064
 3525TIP3    H131990   4.451   6.121  15.953 -0.4580  0.4364 -0.5263
 3525TIP3    H231991   4.466   6.032  15.831  0.0054  0.1398 -0.2532
 3526TIP3   OH231992   3.500   2.704   5.541 -0.3646 -0.0806 -0.0690
 3526TIP3    H131993   3.526   2.747   5.622 -2.0098  0.9946 -0.0744
 3526TIP3    H231994   3.407   2.684   5.553  0.0496 -2.6271 -0.5389
 3527TIP3   OH231995   0.945   4.421   6.041  0.0743  0.3672 -0.1864
 3527TIP3    H131996   0.903   4.504   6.020 -0.0147  0.3034 -0.2592
 3527TIP3    H231997   0.885   4.377   6.101  1.0406  1.2334  1.5044
 3528TIP3   OH231998   1.203   2.525  13.902  0.0068  0.3794  0.6962
 3528TIP3    H131999   1.269   2.459  13.882  0.2867  0.6790  0.6236
 3528TIP3    H232000   1.232   2.603  13.855 -1.5550 -0.0870 -1.1983
 3529TIP3   OH232001   0.081   3.404  16.804 -0.6498 -0.1210  0.2763
 3529TIP3    H132002   0.096   3.481  16.748  0.6898 -0.4620  0.1536
 3529TIP3    H232003   0.037   3.439  16.881  1.8798  1.1500  1.2211
 3530TIP3   OH232004   6.690   4.700  15.652 -0.6429 -0.0475  0.0974
 3530TIP3    H132005   6.627   4.752  15.701 -0.6026  0.7198 -0.6444
 3530TIP3    H232006   6.695   4.742  15.566  0.9235 -0.0362  0.1552
 3531TIP3   OH232007   4.911   4.411   2.198  0.1880 -0.2295  0.1852
 3531TIP3    H132008   4.950   4.338   2.246 -1.1559 -1.6215 -0.7370
 3531TIP3    H232009   4.958   4.412   2.115  0.5827  0.3529  0.4047
 3532TIP3   OH232010   6.289   1.061   2.702  0.2269  0.0839  0.1870
 3532TIP3    H132011   6.384   1.051   2.710  0.2113  0.8252  1.8563
 3532TIP3    H232012   6.265   1.119   2.775 -1.5347 -0.2514 -0.0722
 3533TIP3   OH232013   5.253   5.056   6.654  0.0336 -0.0127  0.3331
 3533TIP3    H132014   5.316   5.128   6.663  0.6082  0.0460 -2.7735
 3533TIP3    H232015   5.300   4.979   6.687  1.1932  0.3027 -0.5116
 3534TIP3   OH232016   2.603   5.550  14.856 -0.7211  0.3040 -0.0951
 3534TIP3    H132017   2.609   5.629  14.803 -0.3425  0.5719  0.3328
 3534TIP3    H232018   2.690   5.511  14.851 -0.4735  0.6987  0.8671
 3535TIP3   OH232019   0.957   1.147   1.344 -0.9308 -0.2416  0.2161
 3535TIP3    H132020   0.940   1.192   1.261 -0.3581  0.7802  0.6341
 3535TIP3    H232021   1.030   1.088   1.326  0.0696  0.9290  0.2873
 3536TIP3   OH232022   3.968   4.045   5.149 -0.3023 -0.6461 -0.3129
 3536TIP3    H132023   3.955   3.999   5.232 -0.5637  0.9277  0.5494
 3536TIP3    H232024   3.962   3.977   5.083  0.3065 -2.0144  0.9773
 3537TIP3   OH232025   0.064   3.805   6.972 -0.2384  0.4118 -0.3597
 3537TIP3    H132026   0.149   3.796   6.930 -0.4894  0.2473 -0.8379
 3537TIP3    H232027   0.068   3.891   7.015  0.6764 -0.1833  0.8193
 3538TIP3   OH232028   4.060   6.167   2.875  0.2929 -0.1210  0.2067
 3538TIP3    H132029   4.131   6.129   2.928  0.3623  0.2017  0.3479
 3538TIP3    H232030   4.047   6.254   2.912 -0.9402 -0.5783  0.9187
 3539TIP3   OH232031   5.970   0.048  11.348  0.0831 -0.1699 -0.2246
 3539TIP3    H132032   6.063   0.033  11.333  0.1472  0.7678 -0.8669
 3539TIP3    H232033   5.963   0.061  11.443  0.5420 -0.6211 -0.1222
 3540TIP3   OH232034   1.329   6.348  15.698  0.6638  0.1742  0.0791
 3540TIP3    H132035   1.368   6.349  15.611  0.3774  1.5219 -0.0468
 3540TIP3    H232036   1.255   6.287  15.691 -1.1876  2.4465 -1.4611
 3541TIP3   OH232037   3.578   3.991  16.980 -0.0394  0.8893 -0.5975
 3541TIP3    H132038   3.590   3.974  16.887 -0.2937 -0.6613 -0.3763
 3541TIP3    H232039   3.666   3.983  17.018  0.0783  1.6071 -0.7004
 3542TIP3   OH232040   2.135   5.984   1.128 -0.0252  0.0686  0.5447
 3542TIP3    H132041   2.221   5.953   1.158 -0.4079 -2.5285 -0.8090
 3542TIP3    H232042   2.151   6.074   1.100  1.8304  0.2607  1.9898
 3543TIP3   OH232043   3.266   2.012  16.726 -0.5027  0.6674 -0.2627
 3543TIP3    H132044   3.300   2.068  16.656  1.9593 -0.8231 -0.3996
 3543TIP3    H232045   3.296   1.924  16.703  0.6623  0.1366  2.7206
 3544TIP3   OH232046   3.895   0.295  12.242 -0.0326  0.4415  0.4024
 3544TIP3    H132047   3.857   0.375  12.205  1.6579  0.8859 -0.5052
 3544TIP3    H232048   3.923   0.244  12.166 -1.8502 -1.4896  0.9254
 3545TIP3   OH232049   2.553   2.775   0.768  0.4045  0.7175 -0.2457
 3545TIP3    H132050   2.566   2.863   0.803 -0.2613  0.4400  0.7731
 3545TIP3    H232051   2.628   2.759   0.711  1.7333  1.0837  1.3237
 3546TIP3   OH232052   3.491   5.745   2.168 -0.6743  0.2382  0.0434
 3546TIP3    H132053   3.534   5.713   2.088  0.0186 -0.0355  0.5189
 3546TIP3    H232054   3.555   5.729   2.237 -1.6649 -0.4562  0.8176
 3547TIP3   OH232055   6.443   1.191  12.943  0.6112 -0.1740  0.7032
 3547TIP3    H132056   6.526   1.208  12.896  0.0206  2.1942  0.3666
 3547TIP3    H232057   6.468   1.132  13.014  1.9014 -2.3938 -1.4159
 3548TIP3   OH232058   4.232   0.769   2.591  0.0932 -0.1507  0.0249
 3548TIP3    H132059   4.233   0.787   2.497  0.8725  0.8990  0.2098
 3548TIP3    H232060   4.299   0.702   2.603  0.2219 -0.0487 -0.1241
 3549TIP3   OH232061   2.832   0.529   1.953  0.4213  0.1285  0.1158
 3549TIP3    H132062   2.873   0.484   1.880 -1.8536 -1.7663 -0.1273
 3549TIP3    H232063   2.871   0.490   2.031  1.2081  0.5118 -0.0797
 3550TIP3   OH232064   2.362   5.083   3.212 -0.4624  0.2366 -0.3253
 3550TIP3    H132065   2.362   5.004   3.157 -0.4987  0.3037 -0.4209
 3550TIP3    H232066   2.400   5.151   3.156  0.7314 -0.0022  0.1629
 3551TIP3   OH232067   2.334   0.864  12.091 -0.0030  0.1117 -0.1810
 3551TIP3    H132068   2.286   0.908  12.021  3.2145  1.5102 -1.7003
 3551TIP3    H232069   2.403   0.815  12.046  3.6124  2.8029  1.8935
 3552TIP3   OH232070   1.729   4.320  11.401 -0.7014 -0.2941  0.2934
 3552TIP3    H132071   1.689   4.407  11.396 -2.1613 -0.8215  1.9970
 3552TIP3    H232072   1.677   4.266  11.341 -0.7804 -0.3557  0.4180
 3553TIP3   OH232073   4.632   0.753  16.722  0.2003 -0.4950 -0.1597
 3553TIP3    H132074   4.610   0.662  16.742  2.3229 -0.8040  1.1185
 3553TIP3    H232075   4.548   0.799  16.723 -0.8487 -2.3187 -0.2067
 3554TIP3   OH232076   0.550   6.026   5.152 -0.0240 -0.1900 -0.3824
 3554TIP3    H132077   0.484   6.015   5.084 -0.6646 -0.3358  0.2532
 3554TIP3    H232078   0.631   6.041   5.104 -0.3532 -0.8990 -1.1925
 3555TIP3   OH232079   6.016   3.364  15.899 -0.3685 -0.3893  0.1228
 3555TIP3    H132080   5.990   3.393  15.812  0.2888  2.0281  0.6525
 3555TIP3    H232081   5.972   3.424  15.959  2.1246  0.4475  1.2537
 3556TIP3   OH232082   5.043   3.592  13.931 -0.1362  0.1580  0.3939
 3556TIP3    H132083   5.104   3.525  13.901 -0.4235 -0.3204  0.8486
 3556TIP3    H232084   4.956   3.555  13.914 -0.3262  1.0965 -0.8365
 3557TIP3   OH232085   1.658   0.478  11.045 -0.4313  0.0074  0.2155
 3557TIP3    H132086   1.715   0.433  10.983 -1.8267  0.3483 -1.3985
 3557TIP3    H232087   1.571   0.472  11.005 -1.1829  1.2748  1.5876
 3558TIP3   OH232088   1.672   1.780  15.829 -0.0763  0.5019 -0.2627
 3558TIP3    H132089   1.726   1.820  15.897 -1.0243  0.5640  0.4879
 3558TIP3    H232090   1.684   1.836  15.752  2.0183 -0.3044 -0.5707
 3559TIP3   OH232091   1.800   5.678   2.501 -0.4770 -0.0328 -0.6803
 3559TIP3    H132092   1.767   5.589   2.512  0.2604 -0.6467 -2.7965
 3559TIP3    H232093   1.876   5.668   2.443  1.2305  1.7098  1.1278
 3560TIP3   OH232094   5.249   0.439   3.372  0.5084 -0.2805 -0.2698
 3560TIP3    H132095   5.206   0.467   3.453  0.0944 -1.2083 -0.1621
 3560TIP3    H232096   5.192   0.472   3.302  0.1209 -0.6882 -0.1478
 3561TIP3   OH232097   3.761   1.858  13.577 -0.9329 -0.0254 -0.3943
 3561TIP3    H132098   3.754   1.904  13.494 -0.9223  2.4296  0.8819
 3561TIP3    H232099   3.670   1.846  13.605 -0.9096 -0.0905 -0.3455
 3562TIP3   OH232100   1.954   6.224   5.172  0.1051 -0.4115 -0.3169
 3562TIP3    H132101   1.949   6.229   5.077  1.1240  0.5577 -0.3376
 3562TIP3    H232102   1.914   6.139   5.193 -0.9569 -0.2478 -1.5151
 3563TIP3   OH232103   6.063   5.635   2.960  0.1341  0.3909  0.4370
 3563TIP3    H132104   6.124   5.655   3.032  1.7383 -0.4981 -0.6275
 3563TIP3    H232105   6.006   5.712   2.955  1.0874  1.2022  1.5465
 3564TIP3   OH232106   2.959   5.708  15.730 -0.8359 -0.1142  0.3156
 3564TIP3    H132107   3.022   5.778  15.712 -0.5966 -0.0339  1.3782
 3564TIP3    H232108   2.873   5.750  15.717 -0.6874  0.2560  0.5055
 3565TIP3   OH232109   3.906   2.911   2.208 -0.0531 -0.1073 -0.3118
 3565TIP3    H132110   3.962   2.865   2.271 -0.5408 -0.4988 -0.1645
 3565TIP3    H232111   3.848   2.964   2.262  0.9064  1.1842 -0.4901
 3566TIP3   OH232112   3.522   1.610  14.249  0.4976  0.5755 -0.3487
 3566TIP3    H132113   3.499   1.518  14.233 -1.4833  1.0644 -0.5244
 3566TIP3    H232114   3.577   1.634  14.174 -0.3019 -0.0393 -1.1568
 3567TIP3   OH232115   4.602   0.206   3.268  0.4117 -0.4612  0.2327
 3567TIP3    H132116   4.582   0.147   3.341 -0.9570 -0.9613 -0.5314
 3567TIP3    H232117   4.521   0.213   3.219  0.8074  1.3294 -0.2349
 3568TIP3   OH232118   4.132   0.481   5.889 -0.0500 -0.0620 -0.4007
 3568TIP3    H132119   4.132   0.576   5.893  0.2023 -0.0967  0.5526
 3568TIP3    H232120   4.126   0.452   5.980  3.8920 -0.9589 -0.2434
 3569TIP3   OH232121   6.650   2.563  17.338 -0.3445 -0.5812 -0.0449
 3569TIP3    H132122   6.721   2.624  17.318 -0.0138 -1.1592 -0.6499
 3569TIP3    H232123   6.692   2.492  17.387 -0.1538 -1.7563 -1.8103
 3570TIP3   OH232124   1.163   3.533   1.696  0.6060 -0.1346  0.0772
 3570TIP3    H132125   1.076   3.572   1.699  0.8103  0.6719 -2.4726
 3570TIP3    H232126   1.209   3.571   1.771 -0.3892  1.6104 -0.1515
 3571TIP3   OH232127   2.183   5.986  12.450 -0.5706 -0.3497 -0.0387
 3571TIP3    H132128   2.106   5.934  12.430 -0.9635  0.8262 -1.8138
 3571TIP3    H232129   2.173   6.065  12.397  2.9025 -1.0633 -2.0660
 3572TIP3   OH232130   0.839   0.209  13.032  0.0207 -0.7246 -0.1608
 3572TIP3    H132131   0.796   0.209  12.946 -0.3542 -0.2537  0.0233
 3572TIP3    H232132   0.895   0.131  13.031  1.1645  0.0677 -1.3942
 3573TIP3   OH232133   1.516   3.480   4.731  0.1561  0.3717  0.1694
 3573TIP3    H132134   1.544   3.517   4.648  3.4856  0.2809  1.1133
 3573TIP3    H232135   1.523   3.386   4.719  1.7827  0.3834  0.8508
 3574TIP3   OH232136   6.669   4.569   1.009 -0.0584  0.0271  0.7303
 3574TIP3    H132137   6.597   4.508   0.996 -0.7008  0.9672 -0.3408
 3574TIP3    H232138   6.717   4.534   1.084 -1.0866 -1.1218  0.8887
 3575TIP3   OH232139   5.086   6.593   1.250 -0.1872 -0.2047  0.2592
 3575TIP3    H132140   5.117   6.587   1.340 -0.5330 -1.7082  0.3050
 3575TIP3    H232141   5.006   6.645   1.256  0.3036  0.5170  0.6741
 3576TIP3   OH232142   2.394   2.072   5.343  0.2682 -0.0747 -0.8199
 3576TIP3    H132143   2.399   1.981   5.315  0.0188 -0.4233  0.2054
 3576TIP3    H232144   2.484   2.097   5.361  0.2338 -0.4767 -0.0523
 3577TIP3   OH232145   1.311   4.372   0.064  0.3676  0.1969  0.1332
 3577TIP3    H132146   1.366   4.450   0.052  0.4255  0.1947  0.3762
 3577TIP3    H232147   1.228   4.406   0.097 -0.2198  0.3198 -1.3849
 3578TIP3   OH232148   4.808   4.241  16.736 -0.1630 -0.2968 -0.2509
 3578TIP3    H132149   4.753   4.162  16.734  0.3433 -0.6917  0.6079
 3578TIP3    H232150   4.774   4.292  16.810 -1.5018  1.0813 -1.7409
 3579TIP3   OH232151   5.220   3.534   5.131 -0.0829  0.2432  0.2337
 3579TIP3    H132152   5.147   3.497   5.081  1.1913  1.3425 -2.6579
 3579TIP3    H232153   5.182   3.608   5.178 -1.1476 -0.2226  0.1442
 3580TIP3   OH232154   4.476   1.518   2.178 -0.5942 -0.0796  0.1127
 3580TIP3    H132155   4.426   1.527   2.096 -0.7128 -1.5060  0.0112
 3580TIP3    H232156   4.418   1.471   2.237  0.0784 -0.4584  0.4887
 3581TIP3   OH232157   2.728   2.683   5.213 -1.1261 -0.2246 -0.1123
 3581TIP3    H132158   2.764   2.766   5.244  0.1697 -0.8053 -0.0121
 3581TIP3    H232159   2.649   2.670   5.266 -2.8072  2.1136 -1.7859
 3582TIP3   OH232160   2.100   6.299   3.167 -0.2784 -0.3290 -0.1904
 3582TIP3    H132161   2.180   6.304   3.114 -0.3842  0.4021 -0.2895
 3582TIP3    H232162   2.131   6.282   3.256 -0.0993 -1.5935 -0.4687
 3583TIP3   OH232163   1.118   1.793  14.507 -0.4339 -0.1412 -0.2269
 3583TIP3    H132164   1.180   1.799  14.580  1.1392  2.5897 -1.6136
 3583TIP3    H232165   1.173   1.779  14.430 -1.8148 -0.4220 -1.1913
 3584TIP3   OH232166   2.911   6.299   5.747  0.0387  0.0108  0.2633
 3584TIP3    H132167   2.983   6.298   5.810  0.4463  1.5163 -0.1281
 3584TIP3    H232168   2.907   6.390   5.717 -0.5345 -0.5255 -1.4238
 3585TIP3   OH232169   2.103   4.446  13.438 -0.0264  0.1550  0.3532
 3585TIP3    H132170   2.043   4.489  13.499 -0.0226  0.9995 -0.2194
 3585TIP3    H232171   2.047   4.388  13.386 -0.6824  2.1650 -1.3101
 3586TIP3   OH232172   6.452   1.077  17.198 -0.1313  0.2890  0.3287
 3586TIP3    H132173   6.423   1.148  17.256 -1.7281 -0.0373 -0.0288
 3586TIP3    H232174   6.374   1.053  17.148  1.1291  0.3598 -1.7822
 3587TIP3   OH232175   6.043   0.180   0.067  0.1937  0.1691  0.2866
 3587TIP3    H132176   6.047   0.251   0.003  0.8782 -0.2774 -0.1790
 3587TIP3    H232177   6.127   0.185   0.113  1.3270 -1.8388 -1.4068
 3588TIP3   OH232178   6.197   4.470   0.554  0.3161  0.0730 -0.0237
 3588TIP3    H132179   6.260   4.518   0.607  1.4278 -1.8861  0.5342
 3588TIP3    H232180   6.242   4.388   0.531 -2.0808 -1.5655  0.6806
 3589TIP3   OH232181   5.488   5.819  16.682 -0.5106 -0.3088 -0.2777
 3589TIP3    H132182   5.401   5.832  16.719 -0.4865 -2.3325  0.6440
 3589TIP3    H232183   5.514   5.732  16.713  2.4119  0.7795  0.6265
 3590TIP3   OH232184   5.708   1.534   4.258 -0.8584  0.5775  0.8509
 3590TIP3    H132185   5.761   1.471   4.208 -3.2541 -0.2791 -0.7669
 3590TIP3    H232186   5.757   1.546   4.340  1.0722 -1.2489  0.0748
 3591TIP3   OH232187   6.401   3.501  16.460  0.2027  0.0178  0.5917
 3591TIP3    H132188   6.362   3.457  16.536  1.2841 -2.0702 -0.0042
 3591TIP3    H232189   6.431   3.430  16.404  2.0381  1.5366 -0.4381
 3592TIP3   OH232190   0.342   4.140  17.096 -0.6201  0.0503  0.5552
 3592TIP3    H132191   0.254   4.150  17.134 -1.4691  2.7177 -1.7719
 3592TIP3    H232192   0.379   4.228  17.098  0.6363 -0.3593 -1.5633
 3593TIP3   OH232193   1.904   1.655  12.759  0.2483  0.0878  0.0737
 3593TIP3    H132194   1.937   1.608  12.683 -0.1414  0.3948 -0.2909
 3593TIP3    H232195   1.868   1.737  12.723  1.6117  1.0365  0.7711
 3594TIP3   OH232196   3.800   0.968  14.579  0.4640 -0.1189 -0.1758
 3594TIP3    H132197   3.743   0.892  14.568  1.1787 -1.1050  2.2143
 3594TIP3    H232198   3.766   1.012  14.657  2.8840 -0.7494  1.3376
 3595TIP3   OH232199   2.372   1.273  14.777  0.2690  0.3464 -0.4443
 3595TIP3    H132200   2.351   1.366  14.784  1.1328  0.5623 -0.6295
 3595TIP3    H232201   2.287   1.229  14.785 -0.0663  1.1070  0.4175
 3596TIP3   OH232202   4.375   6.656  14.950 -0.0108  0.3151  0.4535
 3596TIP3    H132203   4.301   6.613  14.991  0.1142 -0.0958  0.2494
 3596TIP3    H232204   4.434   6.585  14.924  0.6787  0.6539  1.0402
 3597TIP3   OH232205   5.514   0.825   3.462  0.1112 -0.2986 -0.1893
 3597TIP3    H132206   5.532   0.907   3.508  0.2909  0.5030 -1.6086
 3597TIP3    H232207   5.524   0.757   3.528 -1.1499  0.8937  1.3117
 3598TIP3   OH232208   5.726   0.648   0.323  0.1351  0.7290 -0.1923
 3598TIP3    H132209   5.656   0.585   0.338  0.4511  0.3863 -0.1663
 3598TIP3    H232210   5.735   0.652   0.228 -0.7299  1.6662 -0.2636
 3599TIP3   OH232211   4.307   6.555   0.077 -0.0109 -0.4509 -0.1105
 3599TIP3    H132212   4.310   6.648   0.098 -2.1425 -0.7202  1.7386
 3599TIP3    H232213   4.368   6.514   0.139 -0.3223 -0.4490  0.1978
 3600TIP3   OH232214   2.657   6.003   6.438  0.3487 -0.4305  0.2683
 3600TIP3    H132215   2.665   6.089   6.397 -0.2207  0.2979  1.6400
 3600TIP3    H232216   2.565   5.979   6.427  0.7013 -1.3496 -0.9793
 3601TIP3   OH232217   1.639   3.465   0.679  0.0448  0.0187 -0.5901
 3601TIP3    H132218   1.708   3.468   0.745  0.7207 -0.5357 -1.2580
 3601TIP3    H232219   1.657   3.385   0.629  0.1468  0.9379 -2.0826
 3602TIP3   OH232220   1.069   2.751   2.917 -0.0938  0.0593 -0.4704
 3602TIP3    H132221   0.985   2.719   2.948  1.0699  0.9833  4.5455
 3602TIP3    H232222   1.064   2.846   2.928  1.0481  0.3361 -1.9116
 3603TIP3   OH232223   2.907   3.244   2.495 -0.1017 -0.0412 -0.5179
 3603TIP3    H132224   2.836   3.188   2.525  0.5138 -1.0711 -0.9456
 3603TIP3    H232225   2.984   3.187   2.490  0.3291  0.5907 -1.8573
 3604TIP3   OH232226   4.615   3.104  15.754  0.1356  0.3335 -0.1443
 3604TIP3    H132227   4.601   3.110  15.848 -1.2011  2.0648 -0.3985
 3604TIP3    H232228   4.710   3.098  15.744  0.2839 -0.1285  1.3126
 3605TIP3   OH232229   1.396   2.444  12.362  0.4997 -0.4799  0.5924
 3605TIP3    H132230   1.352   2.439  12.447  0.5230  0.5956  0.6726
 3605TIP3    H232231   1.392   2.354  12.329 -1.6020 -0.4631  0.6707
 3606TIP3   OH232232   0.065   6.193   5.287  0.5300 -0.8336 -0.0373
 3606TIP3    H132233   0.152   6.219   5.318 -0.4824  0.9891  1.5753
 3606TIP3    H232234   0.029   6.274   5.249 -0.1874 -1.7690 -1.4260
 3607TIP3   OH232235   5.460   0.469   1.506  0.0262  0.2114  0.7743
 3607TIP3    H132236   5.385   0.427   1.465  1.7919 -1.4576 -0.9627
 3607TIP3    H232237   5.482   0.412   1.580 -1.1816  1.4303  2.1059
 3608TIP3   OH232238   6.194   0.895  16.393  0.0806  0.0900  0.2944
 3608TIP3    H132239   6.197   0.899  16.489  1.6434  0.3677  0.2612
 3608TIP3    H232240   6.115   0.844  16.374  0.9484 -2.0094  1.8080
 3609TIP3   OH232241   0.246   3.854  14.102  0.4324 -0.1298  0.1120
 3609TIP3    H132242   0.252   3.908  14.023 -0.3930 -2.2048 -1.4499
 3609TIP3    H232243   0.170   3.890  14.149  0.8896  1.0840 -0.0281
 3610TIP3   OH232244   4.687   0.483   4.273  0.0637  0.3657 -0.4255
 3610TIP3    H132245   4.749   0.413   4.257  1.5463  1.5790 -0.1826
 3610TIP3    H232246   4.709   0.517   4.359 -0.6878  1.0832 -0.4963
 3611TIP3   OH232247   4.214   1.930   2.294 -0.2912  0.3912  0.1776
 3611TIP3    H132248   4.192   1.846   2.333 -0.0240  0.8173  1.2786
 3611TIP3    H232249   4.291   1.960   2.342  3.2239 -1.2221 -3.7823
 3612TIP3   OH232250   3.845   6.151  17.085 -0.3927 -0.2608  0.4289
 3612TIP3    H132251   3.765   6.110  17.053 -1.5398  1.9648  0.2766
 3612TIP3    H232252   3.838   6.145  17.180 -1.0995  0.5218  0.4376
 3613TIP3   OH232253   3.253   5.735   3.711 -0.0364 -0.4048  0.0775
 3613TIP3    H132254   3.324   5.798   3.715 -0.4568  0.1275 -0.6800
 3613TIP3    H232255   3.211   5.740   3.797 -1.2734  1.7869 -0.5923
 3614TIP3   OH232256   6.718   5.328   2.814  0.1307 -0.2651 -0.2606
 3614TIP3    H132257   6.684   5.404   2.861  1.9057 -0.4440  1.4439
 3614TIP3    H232258   6.640   5.282   2.784 -1.1946 -0.1886  2.6784
 3615TIP3   OH232259   1.115   4.194   5.399  0.2426  0.4340 -0.4300
 3615TIP3    H132260   1.047   4.189   5.331 -0.0763 -1.0000 -0.0237
 3615TIP3    H232261   1.158   4.109   5.397  0.2528  0.3787  1.1610
 3616TIP3   OH232262   0.716   0.027   5.739 -0.1570  0.2593  0.4781
 3616TIP3    H132263   0.706   0.080   5.661 -0.1327 -0.9192 -0.3546
 3616TIP3    H232264   0.734  -0.061   5.706 -0.3673 -0.3056  1.8040
 3617TIP3   OH232265   2.798   1.989   0.550  0.1700 -0.5229  0.0698
 3617TIP3    H132266   2.732   2.014   0.485  0.1410 -0.4954  0.1099
 3617TIP3    H232267   2.747   1.968   0.628  0.2497  0.1294  0.3030
 3618TIP3   OH232268   1.370   5.585  14.054 -0.3973 -0.2680  0.4321
 3618TIP3    H132269   1.401   5.497  14.032  0.6712  0.0723  0.4954
 3618TIP3    H232270   1.329   5.618  13.975 -0.3735 -0.6512  0.2615
 3619TIP3   OH232271   0.062   1.991  11.621  0.0720 -0.1783 -0.0945
 3619TIP3    H132272   0.133   2.027  11.567 -0.2235  0.3013 -0.1643
 3619TIP3    H232273   0.039   2.061  11.681 -2.0064  0.6177 -1.6726
 3620TIP3   OH232274   6.541   5.165   4.882 -0.2618  0.1836  0.1209
 3620TIP3    H132275   6.538   5.253   4.921 -1.2820  0.1597  0.0978
 3620TIP3    H232276   6.465   5.161   4.825  0.1507 -0.4901 -0.3997
 3621TIP3   OH232277   3.343   0.068   0.712 -0.4729  0.4393 -0.2780
 3621TIP3    H132278   3.327   0.137   0.776 -0.4572 -1.5868  2.0550
 3621TIP3    H232279   3.438   0.057   0.711 -0.4537  0.6074 -0.8551
 3622TIP3   OH232280   1.972   0.332   1.741  0.0563  0.1553 -0.2879
 3622TIP3    H132281   2.042   0.336   1.676  0.2501 -0.8199 -0.1591
 3622TIP3    H232282   1.893   0.354   1.692  0.6971  3.9075  0.0925
 3623TIP3   OH232283   6.244   2.299   1.693  0.2845 -0.3289 -0.9786
 3623TIP3    H132284   6.306   2.333   1.757 -0.3648 -3.2214  1.3652
 3623TIP3    H232285   6.163   2.347   1.709  0.3466 -0.4968 -0.1515
 3624TIP3   OH232286   0.990   6.272  16.681  0.4489 -0.6610  0.0654
 3624TIP3    H132287   1.038   6.352  16.704 -0.5115  0.1712 -0.6752
 3624TIP3    H232288   1.055   6.216  16.639  1.0582 -0.0948  0.2322
 3625TIP3   OH232289   5.813   2.139  13.101 -0.3185 -0.3823 -0.1102
 3625TIP3    H132290   5.801   2.070  13.036  0.9203 -1.1035  0.3985
 3625TIP3    H232291   5.864   2.098  13.171 -0.9322  0.6109  0.9417
 3626TIP3   OH232292   6.082   3.885   5.256  0.1780 -0.2075  0.1953
 3626TIP3    H132293   6.109   3.796   5.234 -0.2457 -0.4908  0.7810
 3626TIP3    H232294   6.027   3.875   5.334 -0.9761  0.4105 -0.4988
 3627TIP3   OH232295   2.401   0.678   4.391 -0.2507 -0.5611  0.4365
 3627TIP3    H132296   2.450   0.758   4.374  0.4632 -0.9234  0.7445
 3627TIP3    H232297   2.457   0.608   4.357  0.0746 -1.0985  2.0026
 3628TIP3   OH232298   1.622   2.374   3.073  0.6659  0.0303 -0.1387
 3628TIP3    H132299   1.564   2.391   2.999  0.6177  0.4728 -0.0003
 3628TIP3    H232300   1.679   2.451   3.078  1.4367 -0.5089 -0.4262
 3629TIP3   OH232301   2.281   0.040   4.504 -0.4292 -0.2766 -0.1658
 3629TIP3    H132302   2.227   0.056   4.426  1.0669  0.5104 -1.0751
 3629TIP3    H232303   2.257   0.110   4.565  0.7101  1.0683 -1.2123
 3630TIP3   OH232304   1.783   5.164   3.893  0.1595 -0.3830  0.5561
 3630TIP3    H132305   1.816   5.084   3.853 -0.6577  0.9710 -3.2146
 3630TIP3    H232306   1.700   5.138   3.933  0.3946 -1.5781  0.3036
 3631TIP3   OH232307   5.080   1.439  13.864  0.4320 -0.2253  0.3761
 3631TIP3    H132308   5.151   1.447  13.928  0.9875 -0.5698 -0.1815
 3631TIP3    H232309   5.009   1.491  13.900  1.4610  1.2957  0.2698
 3632TIP3   OH232310   1.892   1.299   6.459  0.2963  0.0790  0.2257
 3632TIP3    H132311   1.816   1.329   6.509 -0.3128 -2.2474  0.7952
 3632TIP3    H232312   1.967   1.333   6.508 -0.3431  0.3188  1.0660
 3633TIP3   OH232313   5.477   2.948   1.223  0.1764 -0.3941  0.2347
 3633TIP3    H132314   5.543   2.985   1.166  1.1950  1.0593  2.2384
 3633TIP3    H232315   5.503   2.856   1.234 -0.1912 -0.7838 -1.7404
 3634TIP3   OH232316   0.247   4.346   5.823 -0.3397 -0.0800  0.8220
 3634TIP3    H132317   0.210   4.429   5.854  0.1389 -0.2445  1.8734
 3634TIP3    H232318   0.281   4.304   5.902 -1.2265 -1.6207  0.4376
 3635TIP3   OH232319   3.599   6.203  11.908 -0.2069 -0.1421  0.9259
 3635TIP3    H132320   3.518   6.237  11.947 -0.0679  0.8437  0.3793
 3635TIP3    H232321   3.658   6.278  11.904  0.8338 -0.9066  1.5339
 3636TIP3   OH232322   2.019   5.406  13.504 -0.0072  0.0303 -0.3965
 3636TIP3    H132323   1.952   5.408  13.435  0.0064 -0.4289 -0.4235
 3636TIP3    H232324   1.990   5.338  13.564 -0.5888  1.1549  0.6404
 3637TIP3   OH232325   4.319   2.430   1.461 -0.2799 -0.3583  0.5062
 3637TIP3    H132326   4.347   2.339   1.468 -2.4578 -1.0946  0.5144
 3637TIP3    H232327   4.330   2.451   1.368  0.0849 -0.6931  0.4708
 3638TIP3   OH232328   5.419   6.156   1.574  0.2337 -0.2288 -0.1244
 3638TIP3    H132329   5.375   6.088   1.524 -0.8503  0.1497  0.2990
 3638TIP3    H232330   5.484   6.109   1.627  0.6916 -0.7313 -1.1072
 3639TIP3   OH232331   2.063   2.341  17.316  1.0564  0.3250  0.4531
 3639TIP3    H132332   2.149   2.340  17.357  0.6612 -0.2320  1.3114
 3639TIP3    H232333   2.015   2.271  17.360  0.3742  0.1793 -0.4792
 3640TIP3   OH232334   2.624   1.138  17.061 -0.4853  0.0060  0.7684
 3640TIP3    H132335   2.576   1.220  17.052 -0.8103 -0.2294  0.3466
 3640TIP3    H232336   2.569   1.073  17.018  0.4725 -0.1602 -0.2493
 3641TIP3   OH232337   5.323   5.108  15.980  0.5677  0.0678  0.1844
 3641TIP3    H132338   5.320   5.194  16.023 -0.1793  0.0662  0.1585
 3641TIP3    H232339   5.241   5.103  15.931  0.5017 -0.7533  0.3600
 3642TIP3   OH232340   5.329   1.513   2.839  0.3274  0.0652 -0.3413
 3642TIP3    H132341   5.253   1.505   2.897  1.3494  1.4925  1.3031
 3642TIP3    H232342   5.375   1.429   2.847 -0.9876 -0.7910 -1.3096
 3643TIP3   OH232343   4.478   1.586   6.336  0.3032  0.5001 -0.1134
 3643TIP3    H132344   4.443   1.673   6.316 -0.3472  0.6568  1.5309
 3643TIP3    H232345   4.411   1.546   6.391  0.7546 -0.9269 -0.5659
 3644TIP3   OH232346   5.563   1.922   5.708 -0.0776  0.4575 -0.0644
 3644TIP3    H132347   5.621   1.876   5.769 -0.2628  1.3475  0.8026
 3644TIP3    H232348   5.488   1.863   5.698  0.6540 -0.3929 -0.6659
 3645TIP3   OH232349   3.365   1.839   2.940  0.4012 -0.0451  0.3863
 3645TIP3    H132350   3.375   1.794   2.856  0.8810 -0.1632  0.5055
 3645TIP3    H232351   3.453   1.841   2.977 -0.1492 -2.2116  2.0454
 3646TIP3   OH232352   2.267   0.541   3.424  0.3125 -0.2321  0.5098
 3646TIP3    H132353   2.308   0.621   3.457 -1.2982  1.6631 -1.7168
 3646TIP3    H232354   2.203   0.518   3.491  0.8505  0.2978  1.2208
 3647TIP3   OH232355   6.235   1.280   2.226 -0.2136 -1.2308  0.1307
 3647TIP3    H132356   6.214   1.217   2.295 -1.5899  0.2786  1.1917
 3647TIP3    H232357   6.182   1.253   2.152 -0.2091 -1.7595  0.3160
 3648TIP3   OH232358   4.367   1.335  10.258  0.3075 -0.4859 -0.0086
 3648TIP3    H132359   4.389   1.428  10.256 -0.7765 -0.2241 -0.8433
 3648TIP3    H232360   4.340   1.319  10.348  0.0476  0.1189  0.0273
 3649TIP3   OH232361   3.889   0.615   1.791 -0.4924 -0.1017 -0.2130
 3649TIP3    H132362   3.863   0.644   1.704 -2.2187  0.8464  0.5772
 3649TIP3    H232363   3.920   0.525   1.778 -0.4136  0.1380 -1.8353
 3650TIP3   OH232364   0.678   3.091  15.044 -0.3544 -0.0568 -0.1028
 3650TIP3    H132365   0.621   3.019  15.017 -0.1365 -0.6897  1.0583
 3650TIP3    H232366   0.676   3.088  15.140  2.0609 -0.4469 -0.0001
 3651TIP3   OH232367   3.483   4.946  13.207 -0.2194  0.0351 -0.3205
 3651TIP3    H132368   3.441   4.972  13.289 -0.9583 -1.7449 -0.0940
 3651TIP3    H232369   3.411   4.919  13.150  0.3784  0.1646 -1.1637
 3652TIP3   OH232370   4.292   1.747   1.523  0.1260 -0.2388  0.5143
 3652TIP3    H132371   4.343   1.764   1.444 -0.4023  1.7501  0.5436
 3652TIP3    H232372   4.260   1.833   1.550 -1.6190 -1.1633  1.5954
 3653TIP3   OH232373   1.347   5.495  11.361  0.0033  0.0941 -0.6387
 3653TIP3    H132374   1.365   5.450  11.278 -0.3655 -2.6553  0.6422
 3653TIP3    H232375   1.369   5.430  11.428 -3.0147  0.9114  1.3213
 3654TIP3   OH232376   2.485   6.016   5.352  0.2966  0.0814  0.2852
 3654TIP3    H132377   2.442   6.030   5.268  0.4571 -1.0424 -0.0075
 3654TIP3    H232378   2.413   5.995   5.412  0.2206  0.5115  0.3511
 3655TIP3   OH232379   1.912   3.669  16.390  0.4302 -0.1139  0.7651
 3655TIP3    H132380   1.881   3.652  16.480  2.1742  0.6371  1.5475
 3655TIP3    H232381   1.948   3.585  16.361  0.7886 -0.0976  1.1575
 3656TIP3   OH232382   1.908   3.112  13.763  0.3336 -0.2002  0.2713
 3656TIP3    H132383   1.828   3.065  13.785 -0.1333  1.0048  1.3125
 3656TIP3    H232384   1.895   3.140  13.673 -0.3081 -0.2415  0.3428
 3657TIP3   OH232385   3.574   0.940  13.357  0.1149  0.2746  0.6557
 3657TIP3    H132386   3.629   0.909  13.284 -0.9207  0.3032 -0.1544
 3657TIP3    H232387   3.572   1.035  13.346  0.1756  0.3027  0.8907
 3658TIP3   OH232388   2.328   4.808   3.084 -0.1208 -0.9306  0.3830
 3658TIP3    H132389   2.270   4.800   3.008 -0.4796 -0.4349  0.5980
 3658TIP3    H232390   2.407   4.760   3.059  0.1932  0.1362 -0.7312
 3659TIP3   OH232391   2.308   5.765   0.941 -0.1757 -0.1308  0.2139
 3659TIP3    H132392   2.219   5.785   0.911  0.9849  0.7076 -3.0767
 3659TIP3    H232393   2.331   5.837   1.001 -1.2528  0.3141  0.1074
 3660TIP3   OH232394   2.266   1.567   6.619 -0.0801 -0.1577 -0.0631
 3660TIP3    H132395   2.223   1.646   6.652  0.2406 -0.0094  0.0066
 3660TIP3    H232396   2.344   1.558   6.674 -0.1836 -0.5955  0.0093
 3661TIP3   OH232397   4.645   1.355  13.963 -0.3376  0.1743 -0.6194
 3661TIP3    H132398   4.644   1.274  14.014  1.5934 -0.1999 -1.0889
 3661TIP3    H232399   4.592   1.335  13.885 -1.0204 -0.1590 -0.0792
 3662TIP3   OH232400   4.392   3.403  12.394  0.0443  0.3842 -0.1306
 3662TIP3    H132401   4.469   3.403  12.337  0.0590 -2.0242 -0.1984
 3662TIP3    H232402   4.389   3.315  12.429 -2.4468  0.5599  0.2185
 3663TIP3   OH232403   6.297   5.718  14.916 -0.1168 -0.0179  0.1043
 3663TIP3    H132404   6.265   5.764  14.993  3.5855  0.1801  1.7303
 3663TIP3    H232405   6.357   5.779  14.874  2.1267 -1.9437  0.2649
 3664TIP3   OH232406   2.135   1.100  14.458  0.2027  0.3664 -0.0475
 3664TIP3    H132407   2.128   1.078  14.551 -0.5801 -0.5365 -0.3075
 3664TIP3    H232408   2.203   1.168  14.454  0.7295 -0.0720  1.1064
 3665TIP3   OH232409   6.455   3.441   3.539 -0.2889  0.5926 -0.1828
 3665TIP3    H132410   6.427   3.476   3.455 -0.0033 -1.8466 -1.3874
 3665TIP3    H232411   6.457   3.346   3.526  1.8343  0.2508  1.9125
 3666TIP3   OH232412   5.669   4.204   2.646  0.1340 -0.1239 -0.1738
 3666TIP3    H132413   5.600   4.148   2.610  0.1130 -0.1763 -0.0527
 3666TIP3    H232414   5.698   4.257   2.572  0.7804 -0.9240 -0.5098
 3667TIP3   OH232415   6.291   1.889  14.607 -0.1815 -0.2823  0.2837
 3667TIP3    H132416   6.249   1.955  14.551 -0.7642 -1.0316 -0.1784
 3667TIP3    H232417   6.377   1.926  14.626  0.9003 -0.8494 -2.8185
 3668TIP3   OH232418   2.303   1.797   1.624 -1.0533  0.3897  0.0272
 3668TIP3    H132419   2.236   1.828   1.563 -1.3342 -0.5051 -0.1391
 3668TIP3    H232420   2.293   1.701   1.624  0.7464  0.1604 -0.6030
 3669TIP3   OH232421   6.744   0.617   3.458  0.2146 -0.3255 -0.5095
 3669TIP3    H132422   6.682   0.688   3.475 -0.6183 -0.6879 -1.8533
 3669TIP3    H232423   6.796   0.610   3.538 -0.0639  1.4157 -0.1482
 3670TIP3   OH232424   2.572   2.364  16.833  0.2221  0.3302 -0.1006
 3670TIP3    H132425   2.529   2.448  16.853  0.7177  0.4203  0.6209
 3670TIP3    H232426   2.594   2.370  16.740  0.5651  1.1460  0.0229
 3671TIP3   OH232427   0.633   4.955   4.121  0.2757  0.0718 -0.2630
 3671TIP3    H132428   0.608   5.038   4.163  2.1951  0.4550  0.2055
 3671TIP3    H232429   0.583   4.889   4.169  0.2118  0.7865  0.6860
 3672TIP3   OH232430   2.043   1.457   3.528 -0.0165 -0.2647 -0.4963
 3672TIP3    H132431   2.042   1.492   3.439 -1.1180  1.7895  0.2485
 3672TIP3    H232432   2.083   1.526   3.581 -2.7819  0.2582  1.1304
 3673TIP3   OH232433   6.579   3.995  15.050 -0.2624 -0.0054  0.5103
 3673TIP3    H132434   6.558   4.048  14.973 -1.6422 -1.6440 -0.3085
 3673TIP3    H232435   6.612   3.913  15.014 -1.7714 -1.1480  1.5969
 3674TIP3   OH232436   2.054   6.635   1.233 -0.4170 -0.1124 -0.5959
 3674TIP3    H132437   2.137   6.599   1.264 -0.0037 -0.8576 -2.3822
 3674TIP3    H232438   1.990   6.611   1.300  0.0950 -3.1465 -1.0558
 3675TIP3   OH232439   3.159   2.052   4.893  0.2655 -0.3752  0.1778
 3675TIP3    H132440   3.242   2.099   4.894 -1.3180  2.6764 -0.9482
 3675TIP3    H232441   3.138   2.042   4.800 -1.1180 -0.1566  0.4485
 3676TIP3   OH232442   3.637   3.255   0.362  0.3149 -0.8423 -0.3633
 3676TIP3    H132443   3.552   3.287   0.332  0.5646 -0.2920 -0.4947
 3676TIP3    H232444   3.659   3.311   0.435  0.7089 -0.7835 -0.5255
 3677TIP3   OH232445   1.994   1.446   4.603 -0.4253  0.2853 -0.2844
 3677TIP3    H132446   1.972   1.359   4.636 -1.4060  0.0787 -1.4192
 3677TIP3    H232447   2.074   1.470   4.649  0.8181 -1.9402 -1.1425
 3678TIP3   OH232448   5.412   1.880  17.104  0.0556  0.0868 -0.1348
 3678TIP3    H132449   5.496   1.913  17.072  0.1977 -0.0338  0.1079
 3678TIP3    H232450   5.389   1.940  17.176  0.6645 -0.7559  0.7848
 3679TIP3   OH232451   5.391   2.653  17.186  0.2512 -0.3770 -0.2391
 3679TIP3    H132452   5.472   2.640  17.137  0.2108  1.8381 -1.0391
 3679TIP3    H232453   5.339   2.575  17.168  1.2491 -0.7539 -1.6938
 3680TIP3   OH232454   0.111   5.159   4.771 -0.2114  1.0605 -0.2513
 3680TIP3    H132455   0.183   5.096   4.769 -0.9158  0.2624 -1.0193
 3680TIP3    H232456   0.079   5.156   4.861 -0.0233  0.5730 -0.1981
 3681TIP3   OH232457   3.495   0.356   1.082  0.2559 -0.5874  0.2775
 3681TIP3    H132458   3.562   0.333   1.018 -0.0244 -1.7293  0.3768
 3681TIP3    H232459   3.449   0.430   1.044  0.7690 -0.5908 -0.3596
 3682TIP3   OH232460   5.994   3.862  13.135  0.1590  0.1447  0.2194
 3682TIP3    H132461   6.046   3.793  13.177 -0.8519 -0.2066  0.9475
 3682TIP3    H232462   6.022   3.861  13.043 -0.3139 -1.7333  0.0464
 3683TIP3   OH232463   0.030   5.216   0.402  0.3876  0.2435 -0.1923
 3683TIP3    H132464   0.021   5.264   0.320  0.5248  0.2338 -0.2141
 3683TIP3    H232465   0.124   5.199   0.409  0.5898  1.6080  0.7469
 3684TIP3   OH232466   3.830   0.165   0.982 -0.7522 -0.3961  0.2827
 3684TIP3    H132467   3.909   0.174   0.928  0.9539  0.9399  2.7888
 3684TIP3    H232468   3.775   0.239   0.956 -1.0391 -1.1007 -1.2016
 3685TIP3   OH232469   4.826   2.720  15.387 -0.4505  0.3600  0.1853
 3685TIP3    H132470   4.787   2.737  15.473 -0.7813  1.4097 -0.1561
 3685TIP3    H232471   4.824   2.804  15.342  3.5902  0.9368  0.6719
 3686TIP3   OH232472   1.354   0.411   3.578 -0.3418 -0.2299 -0.1789
 3686TIP3    H132473   1.420   0.481   3.572  0.1467 -0.6176  0.5278
 3686TIP3    H232474   1.281   0.451   3.625  0.1543 -0.3370  0.7100
 3687TIP3   OH232475   1.815   2.334  12.699 -0.0007  0.6745 -0.0574
 3687TIP3    H132476   1.845   2.370  12.782 -0.4737 -0.9803  0.8869
 3687TIP3    H232477   1.776   2.250  12.722  0.3736 -0.1061 -2.0275
 3688TIP3   OH232478   0.624   1.782   0.561 -0.6103  0.0236  0.0305
 3688TIP3    H132479   0.609   1.716   0.493  1.2055  1.2258 -1.6563
 3688TIP3    H232480   0.641   1.863   0.512  1.6563  0.7682  1.8731
 3689TIP3   OH232481   1.488   6.098  11.521 -0.0183 -0.0287 -0.0064
 3689TIP3    H132482   1.445   6.132  11.442  1.1780  2.4055  0.2929
 3689TIP3    H232483   1.563   6.049  11.489 -0.0090  0.2403 -0.4013
 3690TIP3   OH232484   5.023   1.233   5.061  0.1785  0.3898  0.0632
 3690TIP3    H132485   4.939   1.267   5.094  0.6752  0.9493  0.7911
 3690TIP3    H232486   5.038   1.281   4.980 -0.8493 -0.6870 -0.8047
 3691TIP3   OH232487   5.413   4.355   0.043 -0.0323 -0.8993  0.0385
 3691TIP3    H132488   5.353   4.290   0.080 -1.8576  0.3069 -0.6663
 3691TIP3    H232489   5.430   4.416   0.114 -1.8159  0.2235 -0.4499
 3692TIP3   OH232490   2.261   4.121   1.635 -0.3464  0.7714  0.2100
 3692TIP3    H132491   2.195   4.137   1.702  0.0175 -1.1129  1.0853
 3692TIP3    H232492   2.254   4.027   1.616  2.3938  0.3723  0.7278
 3693TIP3   OH232493   5.152   5.109   5.233  0.3369 -0.2326 -0.2474
 3693TIP3    H132494   5.169   5.173   5.164  0.7862  0.9285  0.8932
 3693TIP3    H232495   5.162   5.159   5.315  0.2476 -1.6611  0.6689
 3694TIP3   OH232496   3.204   2.832   4.540 -0.5561 -0.2519  0.4731
 3694TIP3    H132497   3.190   2.756   4.597 -3.1297 -0.0478  0.2513
 3694TIP3    H232498   3.201   2.795   4.451 -1.1419 -0.0040  0.3842
 3695TIP3   OH232499   2.048   4.268   0.553  0.2185 -0.4329 -0.0856
 3695TIP3    H132500   2.032   4.202   0.486 -0.0166  0.8155 -1.3077
 3695TIP3    H232501   2.124   4.317   0.522 -0.2046  0.4903  0.2634
 3696TIP3   OH232502   5.917   5.292   5.759  0.9895 -0.5544 -0.9673
 3696TIP3    H132503   5.846   5.274   5.696 -0.6424  1.8007  0.0377
 3696TIP3    H232504   5.996   5.293   5.707 -0.1396 -0.1183 -2.7633
 3697TIP3   OH232505   5.391   4.087  15.072 -0.4538  0.1835 -0.0412
 3697TIP3    H132506   5.472   4.133  15.095 -0.6252 -0.8133  3.0965
 3697TIP3    H232507   5.322   4.152  15.083 -0.2480  0.5830 -1.0395
 3698TIP3   OH232508   5.906   5.993  10.408 -0.7905 -0.3849 -0.0060
 3698TIP3    H132509   5.880   5.914  10.457 -2.6335 -0.0911 -0.4203
 3698TIP3    H232510   5.989   6.019  10.447 -1.2010 -1.3258  1.6082
 3699TIP3   OH232511   2.072   1.873   1.433  0.3267 -0.3079  0.1121
 3699TIP3    H132512   2.055   1.810   1.363  0.9306 -1.8838  1.3279
 3699TIP3    H232513   2.007   1.853   1.500  1.2119 -0.3890  0.9779
 3700TIP3   OH232514   2.547   0.643  16.930  0.2060 -0.3852 -0.3146
 3700TIP3    H132515   2.527   0.549  16.933 -1.2289 -0.0810  1.7529
 3700TIP3    H232516   2.615   0.654  16.996  1.8815 -0.2314 -2.0012
 3701TIP3   OH232517   4.349   2.668   4.500 -0.0294  0.1835 -0.3921
 3701TIP3    H132518   4.337   2.573   4.510  0.1700 -0.0305 -1.9492
 3701TIP3    H232519   4.437   2.684   4.535  0.0384 -0.2512 -0.3514
 3702TIP3   OH232520   6.529   0.123   5.987 -0.4332 -0.5828 -0.1216
 3702TIP3    H132521   6.460   0.060   5.966 -0.0196 -0.5615 -1.6303
 3702TIP3    H232522   6.557   0.099   6.075 -0.6596 -2.1647 -0.4547
 3703TIP3   OH232523   0.414   4.674  11.620 -0.4019 -0.6874 -0.2212
 3703TIP3    H132524   0.504   4.644  11.635 -0.4216 -0.3996  0.5384
 3703TIP3    H232525   0.400   4.742  11.686 -1.3183 -1.0148 -0.0587
 3704TIP3   OH232526   3.214   5.820   2.845  0.0510 -0.3942 -0.3518
 3704TIP3    H132527   3.247   5.889   2.903  1.2442 -0.8288 -0.4759
 3704TIP3    H232528   3.283   5.810   2.779  0.0649 -1.9382 -0.1318
 3705TIP3   OH232529   2.971   4.469  16.786  0.5102 -0.0505  0.2298
 3705TIP3    H132530   3.033   4.497  16.719  1.1761 -1.3248  0.2987
 3705TIP3    H232531   3.001   4.512  16.866  1.0906 -0.3767  0.1882
 3706TIP3   OH232532   4.242   2.033  14.942  0.4609  0.2036  0.4560
 3706TIP3    H132533   4.249   2.124  14.913  0.0466  0.5524  1.4185
 3706TIP3    H232534   4.167   2.032  15.001  1.4989 -0.3892  1.8403
 3707TIP3   OH232535   4.657   6.448  17.017  0.0314 -0.7850  0.0346
 3707TIP3    H132536   4.656   6.478  17.108  0.5273 -0.6502 -0.0003
 3707TIP3    H232537   4.566   6.429  16.997 -0.2773  0.5408  0.1067
 3708TIP3   OH232538   0.733   2.309  14.827 -0.2482 -0.5472  0.4996
 3708TIP3    H132539   0.668   2.335  14.762 -0.7526 -0.4999  1.0153
 3708TIP3    H232540   0.763   2.391  14.866  0.7962 -0.4965 -0.3566
 3709TIP3   OH232541   5.655   2.373  12.988 -0.6129  0.0534  0.4498
 3709TIP3    H132542   5.719   2.431  12.948 -0.5489  0.0909  0.6118
 3709TIP3    H232543   5.707   2.303  13.027 -0.7360 -0.9512 -1.0685
 3710TIP3   OH232544   5.394   1.443   3.601 -0.2308  0.3417  0.2866
 3710TIP3    H132545   5.307   1.476   3.577 -0.2065 -0.6883 -1.3949
 3710TIP3    H232546   5.389   1.428   3.695 -2.1959 -0.5201  0.0995
 3711TIP3   OH232547   2.188   4.632  15.219  0.0427 -0.0334  0.5077
 3711TIP3    H132548   2.206   4.647  15.126  0.9715 -1.5070  0.4231
 3711TIP3    H232549   2.096   4.656  15.229 -0.5659 -1.4056 -1.1673
 3712TIP3   OH232550   2.424   0.048  13.384  0.0676 -0.4887  0.2031
 3712TIP3    H132551   2.510   0.007  13.390 -0.3157 -1.2393  0.6692
 3712TIP3    H232552   2.382   0.028  13.468  0.3489  1.9733  1.0141
 3713TIP3   OH232553   3.161   0.497   1.572  0.5647 -0.2994 -0.4355
 3713TIP3    H132554   3.129   0.581   1.540  1.2520  0.9496  1.9114
 3713TIP3    H232555   3.201   0.455   1.496  0.5910  1.6840 -1.5713
 3714TIP3   OH232556   3.483   6.651   2.734  0.6739  0.0214  0.0674
 3714TIP3    H132557   3.484   6.746   2.718  0.8233  0.3876  2.0372
 3714TIP3    H232558   3.548   6.616   2.673 -0.4101  0.9666 -1.7200
 3715TIP3   OH232559   4.950   3.970   3.601 -0.3429 -0.0452 -0.1341
 3715TIP3    H132560   4.929   3.919   3.679 -2.2199  0.7180 -0.0782
 3715TIP3    H232561   4.867   4.009   3.575  0.5494  0.9814 -1.6161
 3716TIP3   OH232562   2.330   1.554   5.019  0.0038 -0.1829 -0.2961
 3716TIP3    H132563   2.249   1.555   5.070 -0.1399  0.4175 -0.5315
 3716TIP3    H232564   2.301   1.548   4.928  0.1901  1.0163 -0.4410
 3717TIP3   OH232565   6.379   5.073  14.917 -0.3514  0.4575  0.0417
 3717TIP3    H132566   6.465   5.042  14.887  0.2661  0.7135  1.4289
 3717TIP3    H232567   6.316   5.024  14.865  0.6399 -0.2264 -0.5534
 3718TIP3   OH232568   2.064   3.075   6.336  0.3589 -0.4057 -0.0268
 3718TIP3    H132569   2.056   2.987   6.373 -1.3409 -0.5746 -0.7365
 3718TIP3    H232570   2.134   3.067   6.271 -0.6180 -1.5805 -0.9855
 3719TIP3   OH232571   4.334   3.408  15.603  0.2978  0.2941  0.1137
 3719TIP3    H132572   4.313   3.317  15.623 -1.5489  1.2273  2.9787
 3719TIP3    H232573   4.262   3.439  15.548  0.8910  0.0990 -0.8047
 3720TIP3   OH232574   3.655   5.496   3.323  0.5100  0.6618  0.4384
 3720TIP3    H132575   3.719   5.461   3.261 -0.8481  0.2603 -0.7855
 3720TIP3    H232576   3.647   5.589   3.299 -0.4035  0.3896 -0.3714
 3721TIP3   OH232577   6.622   3.336  15.813  0.1847  0.0458  0.1569
 3721TIP3    H132578   6.561   3.318  15.742  0.1894  0.5676  0.0219
 3721TIP3    H232579   6.659   3.250  15.835  1.2463  0.0551 -1.4260
 3722TIP3   OH232580   6.609   4.502  14.460  0.2267 -0.0535  0.3641
 3722TIP3    H132581   6.534   4.477  14.515 -1.4018  1.7647 -0.9186
 3722TIP3    H232582   6.597   4.452  14.379  2.3238 -2.3085  1.3264
 3723TIP3   OH232583   6.073   3.993  11.537 -0.0299  0.8321  0.9319
 3723TIP3    H132584   6.125   4.066  11.571  2.7346  0.3165 -1.6704
 3723TIP3    H232585   6.042   4.023  11.451  1.0297 -0.8641 -0.1241
 3724TIP3   OH232586   0.861   3.463   2.322 -0.5373  0.2706  0.1306
 3724TIP3    H132587   0.930   3.493   2.263 -0.0500 -0.7841  0.1347
 3724TIP3    H232588   0.896   3.476   2.410  0.5772 -2.1371  0.1408
 3725TIP3   OH232589   2.277   0.369  14.884  0.3813 -0.4808 -0.2657
 3725TIP3    H132590   2.241   0.455  14.863  2.0086  0.3682  0.2405
 3725TIP3    H232591   2.370   0.377  14.864  0.8748 -1.5654  1.4072
 3726TIP3   OH232592   0.685   4.226  13.910 -0.0958  0.0443 -0.2342
 3726TIP3    H132593   0.695   4.131  13.903 -0.0368  0.1192 -1.2931
 3726TIP3    H232594   0.696   4.258  13.821  0.7122  1.1324  0.2340
 3727TIP3   OH232595   3.788   6.310   5.755 -0.6672  0.2581 -0.7844
 3727TIP3    H132596   3.701   6.329   5.790 -0.4291 -0.4523  0.2478
 3727TIP3    H232597   3.804   6.219   5.779  1.1370  0.9200  0.7758
 3728TIP3   OH232598   1.549   0.313  12.081  0.1017  0.1745 -0.5836
 3728TIP3    H132599   1.639   0.309  12.051 -0.0720 -3.4002 -1.0606
 3728TIP3    H232600   1.497   0.320  12.000 -0.1675  3.0767 -0.2854
 3729TIP3   OH232601   1.971   2.103  14.736 -0.0380  0.1795 -0.0241
 3729TIP3    H132602   1.955   2.194  14.761  0.5910  0.1521  0.4818
 3729TIP3    H232603   1.933   2.096  14.648  3.1115  1.9908 -1.7426
 3730TIP3   OH232604   5.096   1.397  11.718 -0.4187 -0.1461  0.2273
 3730TIP3    H132605   5.022   1.390  11.779  0.4803 -0.7251  1.3053
 3730TIP3    H232606   5.059   1.373  11.633 -1.3530 -0.9935  0.8385
 3731TIP3   OH232607   3.183   5.131   0.963 -0.2834  0.1100 -0.3025
 3731TIP3    H132608   3.268   5.175   0.961  0.3323 -0.9213  1.3157
 3731TIP3    H232609   3.166   5.114   1.056 -2.1451  0.0446 -0.6044
 3732TIP3   OH232610   4.388   3.681   6.896 -0.9928  0.0506  0.2457
 3732TIP3    H132611   4.353   3.667   6.984 -0.2091 -3.5403  0.1293
 3732TIP3    H232612   4.336   3.624   6.840  0.0032  0.5447 -1.2318
 3733TIP3   OH232613   5.862   3.770   1.881 -0.7979 -0.0643 -0.0226
 3733TIP3    H132614   5.928   3.792   1.815 -0.6615  0.1675  0.1852
 3733TIP3    H232615   5.883   3.828   1.955 -1.9356  0.8326 -0.3770
 3734TIP3   OH232616   0.989   6.550  14.231  0.5201  0.2446 -0.2378
 3734TIP3    H132617   1.000   6.531  14.324  1.7721  0.2453 -0.3732
 3734TIP3    H232618   0.922   6.489  14.201  0.2401  0.1278  0.6215
 3735TIP3   OH232619   2.214   4.983  13.914  0.2540 -0.3399 -0.1279
 3735TIP3    H132620   2.128   5.010  13.946  0.7878 -0.2416  1.2889
 3735TIP3    H232621   2.274   5.045  13.954  0.7881  1.5016 -3.4244
 3736TIP3   OH232622   3.917   4.871   0.671  1.1272  0.1888 -0.6267
 3736TIP3    H132623   3.944   4.819   0.596  0.0408 -2.1639  0.5104
 3736TIP3    H232624   3.936   4.816   0.747 -1.4873  0.7493  0.5499
 3737TIP3   OH232625   2.392   6.368   1.805  0.2977  0.8651 -0.1974
 3737TIP3    H132626   2.332   6.425   1.758  0.1109 -0.8552 -2.2240
 3737TIP3    H232627   2.359   6.366   1.895 -0.3238  2.9778 -0.3234
 3738TIP3   OH232628   0.747   5.459   4.299  0.1314 -0.8632  0.3287
 3738TIP3    H132629   0.720   5.434   4.388 -0.6359  0.9520  0.6513
 3738TIP3    H232630   0.666   5.485   4.256  0.7114 -0.1189 -0.3500
 3739TIP3   OH232631   2.306   5.263  11.254 -0.6961 -0.3978  0.3391
 3739TIP3    H132632   2.281   5.245  11.164  0.5739  1.5874 -0.4660
 3739TIP3    H232633   2.225   5.286  11.298 -1.0767  0.4714 -0.7825
 3740TIP3   OH232634   0.073   6.172  12.853 -0.0412  0.6569 -0.7306
 3740TIP3    H132635   0.003   6.235  12.867  0.4713  1.1328 -0.2461
 3740TIP3    H232636   0.050   6.128  12.771 -1.4742  0.0174  0.0069
 3741TIP3   OH232637   3.489   3.189   3.400 -0.3496  0.0024  0.2748
 3741TIP3    H132638   3.446   3.124   3.345  0.1967  0.6089 -0.9144
 3741TIP3    H232639   3.544   3.139   3.461  2.9302 -0.7062 -2.9383
 3742TIP3   OH232640   4.805   5.312  16.735  0.0751  0.4689  0.5927
 3742TIP3    H132641   4.828   5.335  16.645 -0.7142 -0.9871 -0.0099
 3742TIP3    H232642   4.882   5.337  16.786  0.8274  0.6422 -0.5876
 3743TIP3   OH232643   5.573   3.414   4.382  0.1954  0.3540  0.7925
 3743TIP3    H132644   5.492   3.399   4.333  0.5985  0.7721 -0.0048
 3743TIP3    H232645   5.581   3.337   4.439  0.1148 -0.5041 -0.3306
 3744TIP3   OH232646   1.261   5.805  17.054  0.0995  0.0528  0.4471
 3744TIP3    H132647   1.171   5.804  17.087 -0.1429  1.9774 -0.0749
 3744TIP3    H232648   1.299   5.884  17.092  1.0642  0.1201 -0.6457
 3745TIP3   OH232649   4.325   5.530  15.523  0.1318 -0.1558  0.4104
 3745TIP3    H132650   4.290   5.569  15.603  1.5036 -0.6587  1.2786
 3745TIP3    H232651   4.419   5.549  15.526  0.0192  1.3105 -1.9328
 3746TIP3   OH232652   1.541   5.331   5.278  0.3950 -0.1149  0.1525
 3746TIP3    H132653   1.463   5.370   5.240  0.3815 -0.3399 -0.0578
 3746TIP3    H232654   1.579   5.400   5.332  0.1962  0.0803  0.0451
 3747TIP3   OH232655   4.759   2.108  11.638  0.0722  0.0686  0.2784
 3747TIP3    H132656   4.829   2.136  11.698  1.2315 -0.6863 -0.6627
 3747TIP3    H232657   4.755   2.178  11.573  0.0402  0.0529  0.2641
 3748TIP3   OH232658   6.413   3.054  15.885  0.1789 -0.2941  0.1063
 3748TIP3    H132659   6.338   3.093  15.931  0.6446 -0.9785  1.5080
 3748TIP3    H232660   6.374   3.012  15.808 -0.3847  2.6225 -1.3627
 3749TIP3   OH232661   2.851   6.373   1.933  0.0349  0.2093  0.0946
 3749TIP3    H132662   2.805   6.327   2.003 -1.7880  2.2063  0.2931
 3749TIP3    H232663   2.904   6.305   1.891  1.1406 -1.0941  3.2865
 3750TIP3   OH232664   4.832   0.185   0.961 -0.3896 -0.5942  0.3198
 3750TIP3    H132665   4.923   0.191   0.935  0.1615 -0.3878  2.1523
 3750TIP3    H232666   4.796   0.114   0.908  1.0054 -1.1291  0.0627
 3751TIP3   OH232667   1.522   2.088  16.689 -0.1975 -0.2034  0.1155
 3751TIP3    H132668   1.563   2.167  16.724 -1.9397 -0.2895  2.5611
 3751TIP3    H232669   1.428   2.100  16.705 -0.6887 -2.0448 -1.0332
 3752TIP3   OH232670   4.190   1.716  13.435  0.1790  0.2649  0.2020
 3752TIP3    H132671   4.178   1.621  13.447 -1.9727  0.5398  0.6078
 3752TIP3    H232672   4.149   1.755  13.512  1.0652  1.5379  0.0452
 3753TIP3   OH232673   1.166   3.296   0.648  0.2362  0.6074  0.2491
 3753TIP3    H132674   1.204   3.295   0.560  1.2181 -2.2504  0.5947
 3753TIP3    H232675   1.073   3.281   0.634  0.7231 -2.5043 -0.3240
 3754TIP3   OH232676   1.697   0.249  12.625 -0.1159  0.0802  0.1455
 3754TIP3    H132677   1.621   0.260  12.683  0.0935 -1.2683  0.7157
 3754TIP3    H232678   1.658   0.244  12.537 -1.1592 -3.7466  0.6162
 3755TIP3   OH232679   2.641   1.203  15.779 -0.3122  0.0536 -0.5478
 3755TIP3    H132680   2.662   1.116  15.746 -0.6022  0.0151 -0.6317
 3755TIP3    H232681   2.563   1.190  15.834 -1.4967  0.5363 -2.0340
 3756TIP3   OH232682   1.623   2.665  14.427 -0.2690  0.1869  0.4128
 3756TIP3    H132683   1.696   2.727  14.437  1.7477 -1.8578 -0.7104
 3756TIP3    H232684   1.633   2.604  14.500  0.2258 -1.0784 -0.6702
 3757TIP3   OH232685   0.328   2.172  11.825 -0.0798 -0.1335 -0.7246
 3757TIP3    H132686   0.274   2.105  11.783 -1.5595  1.2968 -1.2278
 3757TIP3    H232687   0.286   2.187  11.910  2.2779 -2.2523  0.9661
 3758TIP3   OH232688   3.961   2.215  13.866 -0.0914  0.3461  0.3911
 3758TIP3    H132689   4.009   2.216  13.783  0.5695 -0.9415  0.7300
 3758TIP3    H232690   3.964   2.305  13.897  0.5391  0.6389 -0.4759
 3759TIP3   OH232691   4.025   4.970  15.094 -0.0789 -0.2261  0.1380
 3759TIP3    H132692   3.943   5.012  15.069 -0.0284 -0.3284 -0.2100
 3759TIP3    H232693   4.060   5.025  15.164  0.1381  0.4986 -0.5212
 3760TIP3   OH232694   2.290   2.995   3.273  0.2036 -0.0639 -0.4978
 3760TIP3    H132695   2.287   2.937   3.197  2.6190 -1.2402  0.1959
 3760TIP3    H232696   2.230   3.066   3.251 -0.0206 -0.9149 -3.0194
 3761TIP3   OH232697   3.042   0.771   2.385  0.1135  0.0745 -0.0277
 3761TIP3    H132698   3.102   0.745   2.455 -0.0792  0.4327  0.2693
 3761TIP3    H232699   3.068   0.717   2.310  0.3247 -0.3046  0.3159
 3762TIP3   OH232700   1.947   4.668   1.544  0.1062 -0.1817  0.3175
 3762TIP3    H132701   2.009   4.720   1.493 -1.5907  0.3669 -1.3107
 3762TIP3    H232702   2.002   4.608   1.595  1.9665  0.4633 -0.8268
 3763TIP3   OH232703   5.414   1.793   0.889 -0.2047  0.2764  0.3352
 3763TIP3    H132704   5.421   1.726   0.821 -1.3051 -0.4821  0.9364
 3763TIP3    H232705   5.366   1.864   0.849  0.1990  0.3460 -0.0360
 3764TIP3   OH232706   4.590   4.134  17.298 -0.2111  0.0434 -0.0500
 3764TIP3    H132707   4.570   4.138  17.391  0.3904  0.7512  0.0547
 3764TIP3    H232708   4.674   4.178  17.289 -1.2680  1.9353 -1.2113
 3765TIP3   OH232709   5.377   1.096   1.494 -0.0520  0.0331 -0.2391
 3765TIP3    H132710   5.414   1.182   1.475  1.2823 -0.4432  0.1284
 3765TIP3    H232711   5.421   1.067   1.574 -0.1440 -1.1817 -0.6068
 3766TIP3   OH232712   6.633   4.172   0.162 -0.2299 -0.5067  0.4477
 3766TIP3    H132713   6.709   4.199   0.111 -0.0839 -2.1203 -0.2767
 3766TIP3    H232714   6.560   4.220   0.124  0.2039 -0.1091  0.1052
 3767TIP3   OH232715   3.946   0.950  16.662  0.0780 -0.3874 -0.0902
 3767TIP3    H132716   3.863   0.999  16.660 -0.4147 -0.9786  2.2272
 3767TIP3    H232717   4.013   1.015  16.642 -0.8894  0.2404 -1.4111
 3768TIP3   OH232718   6.503   4.088   5.542  0.3936  0.3950 -0.0800
 3768TIP3    H132719   6.594   4.116   5.554  0.5601 -0.1881  0.0576
 3768TIP3    H232720   6.494   4.012   5.600 -0.3197  0.7330  0.2730
 3769TIP3   OH232721   2.544   2.126   5.992 -0.1509 -0.1094 -0.1981
 3769TIP3    H132722   2.487   2.080   5.931 -0.3174  0.2695 -0.3307
 3769TIP3    H232723   2.597   2.183   5.937  0.6553 -0.7688 -0.1152
 3770TIP3   OH232724   5.172   2.907   0.164  0.1004 -0.0689 -0.3032
 3770TIP3    H132725   5.204   2.983   0.115  1.8446 -1.3634 -1.2913
 3770TIP3    H232726   5.097   2.875   0.113  0.3441  0.0805 -0.7644
 3771TIP3   OH232727   6.660   2.682  11.544  0.3419  0.0069  0.4730
 3771TIP3    H132728   6.598   2.753  11.560  0.7569  0.3429  0.6482
 3771TIP3    H232729   6.624   2.606  11.590 -0.4595 -0.0867 -0.2936
 3772TIP3   OH232730   0.342   1.100  16.489 -0.8926 -0.2860 -0.2574
 3772TIP3    H132731   0.336   1.126  16.581 -0.4837  0.9002 -0.5445
 3772TIP3    H232732   0.290   1.165  16.443 -0.1904 -0.2246 -0.9755
 3773TIP3   OH232733   0.156   1.986   5.291 -0.1467 -0.3323  0.0402
 3773TIP3    H132734   0.098   1.917   5.260 -1.4022  0.4542  0.5223
 3773TIP3    H232735   0.103   2.066   5.282 -0.0451  0.1216  2.7295
 3774TIP3   OH232736   5.116   0.996  16.792 -0.3904 -0.2865 -0.5727
 3774TIP3    H132737   5.212   0.992  16.789 -0.2206  0.2901  1.8451
 3774TIP3    H232738   5.092   0.940  16.866 -2.1281 -2.0606 -2.3534
 3775TIP3   OH232739   1.061   2.954   4.210  0.8957 -0.3139  0.6925
 3775TIP3    H132740   0.990   2.889   4.216  0.6535 -0.1636 -0.4773
 3775TIP3    H232741   1.137   2.904   4.180  0.8179 -0.1293  0.1923
 3776TIP3   OH232742   3.736   1.330   1.390  0.1642  0.0077 -0.0203
 3776TIP3    H132743   3.743   1.321   1.485  0.3476 -1.5450 -0.1513
 3776TIP3    H232744   3.682   1.256   1.363  0.5714  0.1121 -1.1726
 3777TIP3   OH232745   1.352   2.867  12.049  0.0232 -0.0325 -0.1195
 3777TIP3    H132746   1.436   2.877  12.003 -0.1452  0.8645 -0.2523
 3777TIP3    H232747   1.364   2.790  12.104  1.1216  0.3923  0.2613
 3778TIP3   OH232748   5.354   3.293   5.192  0.1696 -0.7807  0.6032
 3778TIP3    H132749   5.306   3.375   5.187  2.3751  0.5736  0.4390
 3778TIP3    H232750   5.344   3.254   5.105 -1.3160 -0.9826  0.8377
 3779TIP3   OH232751   4.786   4.240   3.210  0.3280  0.2551 -0.9354
 3779TIP3    H132752   4.798   4.295   3.287  0.6319  0.6476 -1.2563
 3779TIP3    H232753   4.799   4.300   3.136 -0.4381 -0.0074 -1.2962
 3780TIP3   OH232754   4.184   5.015   0.579 -0.0888 -0.1205  0.2795
 3780TIP3    H132755   4.106   4.965   0.604  1.1591 -1.9634  0.6937
 3780TIP3    H232756   4.210   5.061   0.658  0.6789 -1.5513  0.8952
 3781TIP3   OH232757   5.493   5.584  17.127 -0.2918 -0.1435  0.3170
 3781TIP3    H132758   5.481   5.545  17.040 -2.4165 -0.6882  0.8096
 3781TIP3    H232759   5.585   5.565  17.149  0.1853 -0.2795 -1.6484
 3782TIP3   OH232760   5.478   4.829  13.037 -0.2496  0.5926 -0.3537
 3782TIP3    H132761   5.572   4.813  13.047 -0.1585  1.2538 -0.0557
 3782TIP3    H232762   5.470   4.869  12.950 -0.2672  0.4289 -0.4263
 3783TIP3   OH232763   0.592   6.672   3.814 -0.3449  0.5207  0.2067
 3783TIP3    H132764   0.602   6.598   3.755 -0.7123  0.8526 -0.2845
 3783TIP3    H232765   0.653   6.655   3.886 -1.5462 -1.0341  0.8964
 3784TIP3   OH232766   0.910   6.540   2.327 -0.4259 -0.3634 -0.0387
 3784TIP3    H132767   0.964   6.573   2.398 -1.1826 -3.5754  2.2354
 3784TIP3    H232768   0.825   6.583   2.339  0.2227  1.2511 -0.8593
 3785TIP3   OH232769   5.565   3.715  11.640  0.0098  0.3990 -0.7711
 3785TIP3    H132770   5.512   3.640  11.668  0.3251  0.2586 -0.5398
 3785TIP3    H232771   5.529   3.740  11.555 -0.3894  0.2690 -0.6427
 3786TIP3   OH232772   3.942   2.706  16.851  0.1164  0.5713  0.5558
 3786TIP3    H132773   3.955   2.684  16.944  1.5646 -0.5854  0.1069
 3786TIP3    H232774   3.998   2.782  16.836  0.8364  0.0105  0.3531
 3787TIP3   OH232775   4.445   1.796  15.129 -0.4306 -0.4391  0.2639
 3787TIP3    H132776   4.461   1.889  15.149  0.8991 -0.3226 -1.1124
 3787TIP3    H232777   4.380   1.798  15.059  0.6992 -0.4278 -0.8285
 3788TIP3   OH232778   3.751   4.809  15.258  0.3416 -0.3447 -0.1805
 3788TIP3    H132779   3.721   4.836  15.171  0.1125  1.3679  0.3951
 3788TIP3    H232780   3.675   4.765  15.297 -0.3045  0.8249 -0.0593
 3789TIP3   OH232781   1.980   6.120  17.012  0.3253 -0.3114 -0.3702
 3789TIP3    H132782   1.949   6.169  16.936 -0.7586 -0.0706  0.2018
 3789TIP3    H232783   2.021   6.042  16.976 -1.1112 -0.7286 -1.1913
 3790TIP3   OH232784   6.663   0.095   2.071  0.4137 -0.0511 -0.1564
 3790TIP3    H132785   6.656   0.185   2.041 -1.0758 -0.1461 -0.1687
 3790TIP3    H232786   6.579   0.077   2.114  0.4611 -1.5887 -0.6243
 3791TIP3   OH232787   6.725   4.617  16.694  0.5402 -0.2530  0.2272
 3791TIP3    H132788   6.779   4.545  16.727 -1.0626 -2.2596 -1.2743
 3791TIP3    H232789   6.752   4.628  16.603  0.2012  0.5114  0.2062
 3792TIP3   OH232790   6.457   1.344   3.163  0.6987  0.4442  0.9786
 3792TIP3    H132791   6.442   1.302   3.247 -1.0206  1.2442  1.1105
 3792TIP3    H232792   6.429   1.434   3.176 -0.7363  0.3047 -0.7452
 3793TIP3   OH232793   5.666   5.502   6.398  0.2615 -0.7741  0.0021
 3793TIP3    H132794   5.698   5.415   6.374  1.4068  0.2014 -2.3175
 3793TIP3    H232795   5.711   5.562   6.338 -1.5518  1.2796  0.5514
 3794TIP3   OH232796   3.331   5.164  16.348  0.1579  0.0597 -0.3079
 3794TIP3    H132797   3.426   5.156  16.345  0.1085 -0.3136 -1.1549
 3794TIP3    H232798   3.308   5.219  16.273 -0.3780 -0.9345 -0.9043
 3795TIP3   OH232799   3.011   2.108  13.527 -0.2140 -0.2761  0.5712
 3795TIP3    H132800   3.056   2.138  13.606 -0.8615  0.3124  0.7146
 3795TIP3    H232801   2.972   2.186  13.489  0.1481 -0.5354 -0.3799
 3796TIP3   OH232802   2.825   0.767   5.837  0.0175 -0.1465 -0.1203
 3796TIP3    H132803   2.899   0.792   5.782 -0.0971  1.8032  0.5314
 3796TIP3    H232804   2.748   0.806   5.794 -0.7901 -2.5751 -1.0760
 3797TIP3   OH232805   3.991   5.889   0.371  0.3190 -0.1487 -0.2119
 3797TIP3    H132806   3.940   5.948   0.427  2.5679  0.5803  1.1980
 3797TIP3    H232807   3.939   5.879   0.292 -2.5490 -0.4022  1.5629
 3798TIP3   OH232808   0.398   4.890  11.811  0.2938  0.5262 -0.6021
 3798TIP3    H132809   0.395   4.983  11.830  1.3392  0.0317  2.5630
 3798TIP3    H232810   0.312   4.857  11.835  0.0932  0.5812 -1.2295
 3799TIP3   OH232811   3.974   1.155   3.610 -0.2082  0.7943 -0.1166
 3799TIP3    H132812   3.962   1.237   3.659  2.1390  0.2644  1.5296
 3799TIP3    H232813   4.058   1.122   3.640 -0.7144 -1.8477 -1.3444
 3800TIP3   OH232814   0.224   4.328  14.621  0.2867 -0.2203  0.0244
 3800TIP3    H132815   0.197   4.246  14.663  1.9176  0.0717  1.7538
 3800TIP3    H232816   0.245   4.303  14.531 -0.5194 -1.4269  0.1448
 3801TIP3   OH232817   2.977   0.562   6.465 -0.3230 -1.0219  0.2588
 3801TIP3    H132818   3.060   0.521   6.442  0.0313 -0.3037  0.2170
 3801TIP3    H232819   2.966   0.544   6.558  0.7462  0.3345  0.6772
 3802TIP3   OH232820   3.268   5.788   4.223  0.7765  0.7532  0.0373
 3802TIP3    H132821   3.350   5.801   4.271  0.8196 -1.6951  0.7857
 3802TIP3    H232822   3.202   5.833   4.276  1.3491  1.0014  0.5453
 3803TIP3   OH232823   3.460   1.373  15.005 -0.7014 -0.1854 -0.2483
 3803TIP3    H132824   3.485   1.282  14.992 -1.3859 -0.4382  0.1672
 3803TIP3    H232825   3.380   1.384  14.955 -0.6490  0.1725 -0.2575
 3804TIP3   OH232826   3.884   3.169  12.691  0.6765  0.2791 -0.0041
 3804TIP3    H132827   3.838   3.138  12.769  0.3452 -0.2983 -0.4258
 3804TIP3    H232828   3.815   3.185  12.627  1.1517 -2.9110 -1.4878
 3805TIP3   OH232829   2.527   3.367  11.469 -0.2146 -0.6328 -0.5439
 3805TIP3    H132830   2.511   3.375  11.375  1.1174 -1.2549 -0.8569
 3805TIP3    H232831   2.515   3.455  11.504 -1.7142 -0.5829 -1.1108
 3806TIP3   OH232832   1.892   0.089  16.244 -0.0815  0.3419  0.0015
 3806TIP3    H132833   1.976   0.054  16.272  0.1650  0.5528 -0.4725
 3806TIP3    H232834   1.864   0.032  16.172 -0.7086 -0.1911  0.6482
 3807TIP3   OH232835   0.034   4.090   2.207  0.3025 -0.6748 -0.6346
 3807TIP3    H132836  -0.046   4.040   2.219  1.2292 -2.5355 -1.7108
 3807TIP3    H232837   0.083   4.041   2.141  1.2996  1.6758 -1.7441
 3808TIP3   OH232838   3.033   1.238  12.818 -0.0399  0.4797  0.6289
 3808TIP3    H132839   3.054   1.177  12.888 -2.1922  0.6482  1.4941
 3808TIP3    H232840   2.972   1.300  12.857 -0.6179  1.1115 -1.1595
 3809TIP3   OH232841   3.515   2.499  16.112  0.9983  0.4688  0.4141
 3809TIP3    H132842   3.557   2.584  16.124  1.0283  0.8003 -1.7741
 3809TIP3    H232843   3.588   2.438  16.105  1.0519  0.6311 -0.5032
 3810TIP3   OH232844   1.805   1.450  11.794  0.1189  0.6083 -0.1804
 3810TIP3    H132845   1.715   1.421  11.811  0.2501 -0.5506 -1.3375
 3810TIP3    H232846   1.801   1.492  11.709  1.2337 -2.5515 -1.9589
 3811TIP3   OH232847   3.107   0.547   2.642  0.0490 -0.1215  0.0145
 3811TIP3    H132848   3.127   0.636   2.673  0.9375  0.1890 -1.3773
 3811TIP3    H232849   3.181   0.524   2.587 -0.7190 -1.2978 -0.5503
 3812TIP3   OH232850   1.218   3.099   0.827  0.2172  0.5035  0.2243
 3812TIP3    H132851   1.192   3.154   0.753  0.7066  0.7508  0.2289
 3812TIP3    H232852   1.204   3.010   0.796  0.3961  0.6047 -0.1632
 3813TIP3   OH232853   3.195   6.346  11.611  0.1191  0.6350  0.2566
 3813TIP3    H132854   3.202   6.409  11.683 -2.5660 -0.7837  1.9210
 3813TIP3    H232855   3.112   6.366  11.570 -0.9853 -1.9263  1.0567
 3814TIP3   OH232856   1.950   5.734  12.525 -0.8020 -0.3745  0.0664
 3814TIP3    H132857   1.952   5.642  12.501 -1.5561 -0.0106 -1.5790
 3814TIP3    H232858   2.021   5.744  12.588  0.9524 -1.6124 -1.5812
 3815TIP3   OH232859   3.056   5.904   3.482  0.4557  0.3565 -0.2008
 3815TIP3    H132860   3.022   5.991   3.463  0.1040  0.1170 -0.7260
 3815TIP3    H232861   3.150   5.917   3.496  0.1574  1.0392  1.3455
 3816TIP3   OH232862   4.131   1.806  10.570  0.1679  0.2111  0.1358
 3816TIP3    H132863   4.103   1.716  10.557 -1.0005  0.3605  1.3408
 3816TIP3    H232864   4.069   1.858  10.521 -0.4426  0.4453  1.1289
 3817TIP3   OH232865   2.996   0.395   1.798  0.2323  0.6054  0.2687
 3817TIP3    H132866   2.979   0.307   1.763  0.1405  0.2951  1.0650
 3817TIP3    H232867   3.051   0.437   1.732  2.1189 -0.8152  0.8268
 3818TIP3   OH232868   5.325   6.124   5.980 -0.4439 -0.0392 -0.2248
 3818TIP3    H132869   5.383   6.082   5.916 -0.0023  2.4655 -1.6128
 3818TIP3    H232870   5.384   6.156   6.049 -0.7144 -1.1721  0.5531
 3819TIP3   OH232871   4.162   2.868  15.415  0.1267 -0.1399 -0.1906
 3819TIP3    H132872   4.101   2.857  15.488  1.0334 -3.0652  0.2491
 3819TIP3    H232873   4.115   2.834  15.339  0.1447  0.4877 -0.4958
 3820TIP3   OH232874   4.614   5.710   5.778  0.0821 -0.0689 -0.2348
 3820TIP3    H132875   4.624   5.621   5.746 -0.7809 -0.8444  1.5194
 3820TIP3    H232876   4.519   5.721   5.788  0.1952  0.9394 -0.1892
 3821TIP3   OH232877   1.007   4.605  14.250  0.2113 -0.2087 -0.1501
 3821TIP3    H132878   1.062   4.618  14.172  0.1291  0.8279 -0.0460
 3821TIP3    H232879   0.938   4.671  14.242 -1.9912 -2.4657 -1.0757
 3822TIP3   OH232880   0.127   1.106   4.481  0.8543  0.4643 -0.1408
 3822TIP3    H132881   0.116   1.166   4.407  0.4849 -1.2512 -1.5390
 3822TIP3    H232882   0.066   1.034   4.463  1.5348 -0.5150  1.2920
 3823TIP3   OH232883   1.965   5.123  13.604  0.7903  0.2578  0.0180
 3823TIP3    H132884   2.042   5.066  13.605  0.1300 -0.8582 -2.8548
 3823TIP3    H232885   1.902   5.078  13.548 -1.3952  1.8825  1.0253
 3824TIP3   OH232886   2.337   2.341  16.591 -0.2244 -0.4301 -0.2184
 3824TIP3    H132887   2.317   2.319  16.500  2.8851 -2.4672 -0.5467
 3824TIP3    H232888   2.326   2.259  16.638 -0.9359  0.4000  1.1249
 3825TIP3   OH232889   4.182   2.289   6.300  0.1659  0.4464 -0.0778
 3825TIP3    H132890   4.210   2.201   6.323 -1.4656  0.2206  1.2932
 3825TIP3    H232891   4.235   2.347   6.355  1.5297  0.3779 -1.2787
 3826TIP3   OH232892   4.152   1.200  14.971  0.7801  0.2335  0.0397
 3826TIP3    H132893   4.085   1.138  14.942  1.7178 -0.9988  0.3948
 3826TIP3    H232894   4.148   1.197  15.066 -0.3887  2.1511  0.1163
 3827TIP3   OH232895   5.956   2.142   5.598 -0.5560  0.5236  0.5831
 3827TIP3    H132896   5.965   2.076   5.529  0.0672  0.1858  0.9800
 3827TIP3    H232897   5.998   2.220   5.563  1.0620 -0.0694  1.1245
 3828TIP3   OH232898   6.366   0.290  10.740  0.3888 -0.1830 -0.4645
 3828TIP3    H132899   6.375   0.377  10.780  0.5737 -0.4738  0.1294
 3828TIP3    H232900   6.277   0.290  10.704  0.1364  0.0027  0.1493
 3829TIP3   OH232901   4.140   6.708  14.772 -0.1664  0.0274 -0.0032
 3829TIP3    H132902   4.181   6.692  14.688 -0.4785  0.0300 -0.1598
 3829TIP3    H232903   4.210   6.697  14.836 -0.0049 -0.3040 -0.2357
 3830TIP3   OH232904   3.153   0.276  14.899  0.2279  0.4235  0.4220
 3830TIP3    H132905   3.236   0.320  14.881  0.5424  0.2102  1.2654
 3830TIP3    H232906   3.094   0.346  14.925  0.2792  0.5234  0.2694
 3831TIP3   OH232907   3.076   1.532  15.463 -0.0915 -0.1436  0.0829
 3831TIP3    H132908   3.088   1.452  15.515 -1.5517  0.4775  1.4658
 3831TIP3    H232909   3.073   1.602  15.528 -0.2144  0.8814 -1.0085
 3832TIP3   OH232910   2.561   4.208  15.213  0.1494 -0.4347 -0.0188
 3832TIP3    H132911   2.523   4.132  15.256  0.7595 -0.6852  0.0893
 3832TIP3    H232912   2.505   4.281  15.239 -0.2725 -0.7993  0.1043
 3833TIP3   OH232913   2.971   0.344   0.712  0.2563  0.2792  0.0119
 3833TIP3    H132914   2.923   0.335   0.630 -1.4448  0.1068  0.9848
 3833TIP3    H232915   2.917   0.300   0.777  1.2029  1.0479  1.3717
 3834TIP3   OH232916   0.487   4.692   1.997  0.3121  0.1157 -0.8703
 3834TIP3    H132917   0.482   4.744   1.917 -0.7614  0.9480 -0.2914
 3834TIP3    H232918   0.575   4.708   2.031  0.4063  0.5895 -1.3223
 3835TIP3   OH232919   1.112   5.201   0.314  0.0812 -0.1509 -0.2037
 3835TIP3    H132920   1.069   5.135   0.369  1.4452 -2.3514 -1.6002
 3835TIP3    H232921   1.201   5.208   0.350  0.3510 -0.0740 -0.8783
 3836TIP3   OH232922   5.527   6.597   4.476  0.0037 -0.0545  0.0929
 3836TIP3    H132923   5.574   6.648   4.542 -0.5713  0.1492  0.3484
 3836TIP3    H232924   5.470   6.539   4.526 -1.7859  1.3476 -0.2081
 3837TIP3   OH232925   1.657   3.545  16.069  0.3302 -0.2018 -0.2028
 3837TIP3    H132926   1.748   3.515  16.066  0.7691  1.1951 -2.0098
 3837TIP3    H232927   1.662   3.640  16.067 -1.1810 -0.1044 -1.9494
 3838TIP3   OH232928   6.556   4.939  12.636 -0.5439  0.0194 -0.0973
 3838TIP3    H132929   6.593   4.974  12.717 -0.8509 -1.0388  0.5204
 3838TIP3    H232930   6.622   4.957  12.569  0.8266 -1.2196  0.8478
 3839TIP3   OH232931   3.580   0.990  11.416  0.3387 -0.2475 -0.0171
 3839TIP3    H132932   3.584   0.915  11.475 -0.8454 -1.0916 -0.9460
 3839TIP3    H232933   3.514   0.965  11.351  0.1722  1.4679 -0.5494
 3840TIP3   OH232934   5.480   0.376   0.967 -0.1738 -0.7352 -0.2420
 3840TIP3    H132935   5.474   0.363   1.061 -0.1788 -2.7372 -0.4850
 3840TIP3    H232936   5.427   0.306   0.929  0.3778 -0.3736 -1.7600
 3841TIP3   OH232937   0.379   2.319   3.866 -0.3189 -1.0251  0.5517
 3841TIP3    H132938   0.457   2.285   3.821 -0.5046 -2.4996  1.2934
 3841TIP3    H232939   0.397   2.304   3.959 -1.9748 -2.5180  0.6748
 3842TIP3   OH232940   1.766   1.296  14.184 -0.0901 -0.0322  0.1501
 3842TIP3    H132941   1.821   1.275  14.109  2.0842  1.3341  1.2510
 3842TIP3    H232942   1.822   1.349  14.241 -1.9932 -0.0979  2.2381
 3843TIP3   OH232943   5.729   1.860   2.580 -0.1619  0.1047 -0.5179
 3843TIP3    H132944   5.667   1.807   2.630 -0.2768  1.1016  0.4267
 3843TIP3    H232945   5.675   1.925   2.535  0.1728  1.0302  0.3708
 3844TIP3   OH232946   4.399   1.004   1.027 -0.0046  0.4917  0.1975
 3844TIP3    H132947   4.433   0.944   0.961  1.0095  1.0145  0.2251
 3844TIP3    H232948   4.411   1.091   0.989 -1.0364  0.7131  0.3467
 3845TIP3   OH232949   3.062   4.374  17.135 -0.0795 -0.0200  0.3348
 3845TIP3    H132950   3.053   4.323  17.216  0.1698  1.6042  1.4391
 3845TIP3    H232951   3.122   4.444  17.159  0.0070  0.4859 -1.2945
 3846TIP3   OH232952   4.244   0.982   1.789 -0.1639  0.0349 -0.0190
 3846TIP3    H132953   4.169   0.947   1.837  0.2115 -0.3856  0.2647
 3846TIP3    H232954   4.229   1.077   1.787 -0.3088  0.0314  0.7236
 3847TIP3   OH232955   4.951   2.372  11.754 -0.6478 -0.2799  0.4206
 3847TIP3    H132956   4.965   2.466  11.741  1.3727 -0.6882 -0.8298
 3847TIP3    H232957   4.897   2.366  11.832  0.4870  1.8799  1.4543
 3848TIP3   OH232958   3.566   0.932  16.860  0.1962 -0.6415  0.3049
 3848TIP3    H132959   3.591   0.988  16.933 -0.5293  1.0448 -0.6554
 3848TIP3    H232960   3.587   0.843  16.888 -0.0338 -0.0443  2.5260
 3849TIP3   OH232961   4.740   4.043   0.895  0.0503 -0.4028  0.0346
 3849TIP3    H132962   4.729   4.038   0.990  0.1119  1.4074  0.1879
 3849TIP3    H232963   4.687   3.972   0.860  0.2683 -1.2755  1.4367
 3850TIP3   OH232964   4.389   1.843  14.807  0.5257 -0.1446  0.2175
 3850TIP3    H132965   4.329   1.909  14.842 -0.3485  0.2424 -1.8071
 3850TIP3    H232966   4.473   1.861  14.849 -0.2867  0.6512  1.5627
 3851TIP3   OH232967   4.953   5.345   2.672 -0.1289 -0.2189  0.1590
 3851TIP3    H132968   4.928   5.362   2.581  2.5092  0.3433 -0.5682
 3851TIP3    H232969   4.942   5.251   2.682 -0.8861 -0.2225 -0.6089
 3852TIP3   OH232970   5.576   3.380  13.233 -0.4511 -0.1724 -0.0096
 3852TIP3    H132971   5.649   3.320  13.217 -1.2785 -1.4787  0.8507
 3852TIP3    H232972   5.502   3.322  13.255 -1.3637  1.1612  0.5882
 3853TIP3   OH232973   2.850   4.964   5.990  0.5709  0.6256  0.3974
 3853TIP3    H132974   2.867   4.902   6.061  0.4243 -0.6398 -0.6398
 3853TIP3    H232975   2.937   4.985   5.955  0.7000  1.7821  1.3624
 3854TIP3   OH232976   0.969   2.344   4.162 -0.1663  0.2476 -0.4380
 3854TIP3    H132977   0.995   2.265   4.209 -0.3954  0.1765 -0.4311
 3854TIP3    H232978   0.914   2.393   4.223  0.1987  0.5485 -0.3437
 3855TIP3   OH232979   5.533   4.799   5.341 -0.0646 -0.1698  0.0243
 3855TIP3    H132980   5.552   4.893   5.338  0.9360 -0.2959  1.6333
 3855TIP3    H232981   5.602   4.762   5.396 -0.8246 -1.7636 -0.0401
 3856TIP3   OH232982   5.725   0.112   1.395  0.5534 -0.9338 -0.3663
 3856TIP3    H132983   5.707   0.201   1.365 -0.3066 -1.4072 -1.3295
 3856TIP3    H232984   5.698   0.057   1.322 -2.3962 -2.2284  1.5371
 3857TIP3   OH232985   0.571   4.488   1.451 -0.1572  0.2608  0.2700
 3857TIP3    H132986   0.666   4.492   1.443 -0.0171 -2.5139 -0.4213
 3857TIP3    H232987   0.545   4.419   1.391 -2.3730 -0.6926  2.1852
 3858TIP3   OH232988   2.431   5.866  13.850 -0.0885 -0.0532  0.2138
 3858TIP3    H132989   2.358   5.903  13.801 -1.2739  1.2251  2.7839
 3858TIP3    H232990   2.391   5.807  13.913  1.3071 -1.0000  0.2717
 3859TIP3   OH232991   5.239   5.659  10.931  0.2690 -0.1514 -0.2586
 3859TIP3    H132992   5.218   5.743  10.971  0.3499  0.2029 -0.9369
 3859TIP3    H232993   5.154   5.618  10.916  0.1794  0.2063 -0.7499
 3860TIP3   OH232994   6.591   0.864   0.679  0.8367 -0.1541 -0.0373
 3860TIP3    H132995   6.549   0.802   0.618  1.9486 -0.6034 -0.3658
 3860TIP3    H232996   6.670   0.819   0.708  1.3002  0.8359  0.2748
 3861TIP3   OH232997   0.128   5.424  14.171 -0.1897 -0.1424  0.2215
 3861TIP3    H132998   0.199   5.383  14.121  1.7147 -0.6630  3.1074
 3861TIP3    H232999   0.095   5.354  14.227 -0.3953  1.0337  1.6056
 3862TIP3   OH233000   0.596   2.720   3.357  0.2446 -0.2586  0.1947
 3862TIP3    H133001   0.646   2.664   3.417  0.0385 -0.0771  0.5380
 3862TIP3    H233002   0.642   2.804   3.358  0.4587 -0.3707 -0.1939
 3863TIP3   OH233003   5.922   3.981   4.644  0.3711  0.4857  0.0009
 3863TIP3    H133004   5.913   3.888   4.624  1.3643  0.1734  0.8778
 3863TIP3    H233005   5.919   3.985   4.740 -1.4182  1.5797 -0.0554
 3864TIP3   OH233006   6.400   2.474   4.257 -0.2808 -0.1843 -0.2411
 3864TIP3    H133007   6.374   2.437   4.173  0.7691  0.0061 -0.6713
 3864TIP3    H233008   6.405   2.569   4.241 -0.0710 -0.1476  0.0297
 3865TIP3   OH233009   3.109   4.928   5.920 -0.0478 -0.2629  0.4585
 3865TIP3    H133010   3.168   4.929   5.845  1.6042 -0.3054  1.6981
 3865TIP3    H233011   3.167   4.934   5.996 -1.6467 -0.4310  1.7446
 3866TIP3   OH233012   6.739   0.948  16.876 -0.2625  0.0001 -0.6135
 3866TIP3    H133013   6.728   0.986  16.964 -1.1601 -1.1221 -0.2122
 3866TIP3    H233014   6.813   0.888  16.885 -0.9189 -0.8000 -0.3520
 3867TIP3   OH233015   3.472   0.518  13.886 -0.1745 -0.9102  0.4379
 3867TIP3    H133016   3.467   0.475  13.972  1.8468  0.3303  1.2385
 3867TIP3    H233017   3.437   0.606  13.901  0.9987 -0.3890  0.2474
 3868TIP3   OH233018   6.187   0.723   0.826  0.2049  0.2427 -0.6441
 3868TIP3    H133019   6.225   0.642   0.791  0.6755  0.4916 -0.7263
 3868TIP3    H233020   6.261   0.784   0.829 -0.4558  1.1507 -2.0409
 3869TIP3   OH233021   2.364   4.384  11.732  0.1626  0.2464  0.4719
 3869TIP3    H133022   2.437   4.396  11.670 -0.3503 -0.2460 -0.2402
 3869TIP3    H233023   2.405   4.345  11.809  0.6291 -0.2513 -0.0117
 3870TIP3   OH233024   6.562   4.459  11.610 -0.3636 -0.9113  0.4284
 3870TIP3    H133025   6.593   4.369  11.627 -0.3134 -0.9059  0.3654
 3870TIP3    H233026   6.635   4.514  11.637  0.3978 -0.9607 -1.3866
 3871TIP3   OH233027   5.352   3.759   3.410  0.5129  0.1716  0.7332
 3871TIP3    H133028   5.423   3.810   3.370  0.7992 -0.4534  0.4368
 3871TIP3    H233029   5.328   3.809   3.489  0.3007  1.1371  0.0715
 3872TIP3   OH233030   5.881   6.431   2.503 -0.2915 -0.7079  0.3553
 3872TIP3    H133031   5.811   6.469   2.450 -0.4745 -0.3151  0.8621
 3872TIP3    H233032   5.961   6.473   2.472 -0.3672 -0.6683  0.2150
 3873TIP3   OH233033   3.347   5.989  16.347 -0.6111  0.1312  0.5065
 3873TIP3    H133034   3.392   6.071  16.369  0.1247 -0.7823  2.6522
 3873TIP3    H233035   3.418   5.927  16.328 -1.1235 -0.3143 -0.0057
 3874TIP3   OH233036   5.051   0.124   5.754 -0.0398  0.4663  0.2762
 3874TIP3    H133037   5.096   0.121   5.838  0.3324  0.9968  0.1014
 3874TIP3    H233038   5.011   0.211   5.750  0.3679  0.6371 -0.3052
 3875TIP3   OH233039   1.372   6.215  12.363  0.2149 -0.0266 -0.2298
 3875TIP3    H133040   1.292   6.229  12.313  1.1266  0.2756 -1.6879
 3875TIP3    H233041   1.344   6.169  12.442 -1.3793  0.0787 -0.7039
 3876TIP3   OH233042   2.428   0.513   0.521  0.5754  0.4262 -0.5742
 3876TIP3    H133043   2.391   0.597   0.494 -1.2513 -0.3303 -0.5597
 3876TIP3    H233044   2.512   0.535   0.560 -0.3536  2.3767  0.4542
 3877TIP3   OH233045   6.575   2.525   2.084  0.1903 -0.1712 -0.0445
 3877TIP3    H133046   6.649   2.514   2.023  1.8291  0.3655  1.7429
 3877TIP3    H233047   6.610   2.498   2.169 -1.5572  0.5151  0.9367
 3878TIP3   OH233048   5.498   6.753  14.776 -0.0583 -0.0578  0.3402
 3878TIP3    H133049   5.498   6.663  14.745  0.5448  0.0515 -0.0007
 3878TIP3    H233050   5.474   6.805  14.699 -0.5198  0.0693  0.5642
 3879TIP3   OH233051   1.633   4.489  15.669  0.0936  0.6876 -0.8029
 3879TIP3    H133052   1.662   4.409  15.624 -0.2548  0.2536 -0.2686
 3879TIP3    H233053   1.636   4.466  15.762 -3.3644  0.0972 -0.7203
 3880TIP3   OH233054   1.234   4.392   3.872  0.0886  0.6400  0.2764
 3880TIP3    H133055   1.141   4.383   3.895 -0.1414 -1.2755 -1.2141
 3880TIP3    H233056   1.279   4.339   3.937  0.0115  0.3104  0.0580
 3881TIP3   OH233057   4.475   4.737   2.849  0.1949  0.2525  0.4957
 3881TIP3    H133058   4.450   4.646   2.839 -1.5552  0.4731  2.3330
 3881TIP3    H233059   4.513   4.761   2.764  2.1015 -2.5520  0.4234
 3882TIP3   OH233060   1.100   1.795  15.996 -0.1073 -0.6109  0.0337
 3882TIP3    H133061   1.074   1.843  16.075 -1.7522 -1.6854  0.1824
 3882TIP3    H233062   1.183   1.753  16.019 -0.6286 -1.0071  1.2404
 3883TIP3   OH233063   0.110   5.951   2.532  0.1894 -0.0214 -0.0968
 3883TIP3    H133064   0.134   5.993   2.450  0.9879  0.5719  0.4319
 3883TIP3    H233065   0.060   6.019   2.580  1.5726  0.3992  0.8035
 3884TIP3   OH233066   0.456   6.252   2.577 -0.4341  0.3029  0.1199
 3884TIP3    H133067   0.457   6.159   2.601 -0.8523  0.0149 -0.9470
 3884TIP3    H233068   0.535   6.265   2.526 -0.7750  0.3435 -0.4046
 3885TIP3   OH233069   6.124   2.050   2.584  0.0924 -0.5243  0.2192
 3885TIP3    H133070   6.079   1.966   2.592  1.4633 -1.1064  2.6541
 3885TIP3    H233071   6.186   2.037   2.512 -1.1928 -0.8154 -0.8860
 3886TIP3   OH233072   5.178   3.647  16.556  0.2609  0.1217 -0.0667
 3886TIP3    H133073   5.090   3.652  16.519  0.5358  1.4030 -0.5917
 3886TIP3    H233074   5.235   3.633  16.481  0.7586  2.1023 -0.1304
 3887TIP3   OH233075   0.019   1.054   6.019  0.7391  0.3512  0.0746
 3887TIP3    H133076   0.093   1.040   5.960  0.1317 -1.2282 -0.3484
 3887TIP3    H233077   0.027   1.146   6.045  2.5179  0.3691 -0.3980
 3888TIP3   OH233078   2.528   1.444  17.025  0.6975  0.4144  0.1883
 3888TIP3    H133079   2.433   1.446  17.038  0.5750  1.0037 -0.6971
 3888TIP3    H233080   2.564   1.446  17.114 -0.1116  1.5256  0.5248
 3889TIP3   OH233081   4.579   6.028  12.227 -0.0789 -0.1072  0.0035
 3889TIP3    H133082   4.493   6.058  12.200 -0.2465  0.1009  0.7290
 3889TIP3    H233083   4.572   5.933  12.232 -0.4201 -0.0582  0.5422
 3890TIP3   OH233084   3.823   0.307   5.285  0.0048  0.2052 -0.4136
 3890TIP3    H133085   3.772   0.241   5.332  0.1665 -0.2083 -0.8216
 3890TIP3    H233086   3.790   0.390   5.320 -3.2122  0.1444 -2.8178
 3891TIP3   OH233087   3.986   6.545   3.393 -0.0026  0.1375 -0.3128
 3891TIP3    H133088   3.961   6.627   3.434 -0.0980  0.7312 -1.5188
 3891TIP3    H233089   4.080   6.554   3.374 -0.2179  0.3833 -1.3325
 3892TIP3   OH233090   5.935   1.447   1.131 -0.1582  0.0604 -0.1422
 3892TIP3    H133091   5.897   1.525   1.172  0.9738  0.2676  0.5489
 3892TIP3    H233092   6.007   1.481   1.079  1.1724 -0.6156  1.1835
 3893TIP3   OH233093   6.731   5.630  16.598 -1.0811 -0.4096 -0.3626
 3893TIP3    H133094   6.716   5.683  16.677  0.4751 -0.6108  0.1034
 3893TIP3    H233095   6.664   5.561  16.602 -2.0647  0.5366 -0.1034
 3894TIP3   OH233096   3.825   0.471  12.602  0.1178 -0.3504  0.5313
 3894TIP3    H133097   3.750   0.414  12.616  0.5602 -1.0111  0.3235
 3894TIP3    H233098   3.882   0.455  12.678  1.0322 -1.5157 -0.3365
 3895TIP3   OH233099   2.034   2.891   1.314 -0.4897  0.3633 -0.3188
 3895TIP3    H133100   2.077   2.895   1.400  0.1596  2.2046 -0.7003
 3895TIP3    H233101   2.104   2.866   1.254 -0.6861  0.1971 -0.4757
 3896TIP3   OH233102   0.828   3.435   3.725 -0.2008  0.2746  0.1001
 3896TIP3    H133103   0.740   3.450   3.690 -0.9233  0.6391  2.0020
 3896TIP3    H233104   0.833   3.340   3.736 -0.5860  0.3049  0.5513
 3897TIP3   OH233105   0.118   3.693  14.396  0.3668  0.1806  0.9480
 3897TIP3    H133106   0.097   3.603  14.371  0.8795  0.5011 -0.7349
 3897TIP3    H233107   0.213   3.700  14.383  0.0936  1.4447 -0.6861
 3898TIP3   OH233108   4.254   2.175  15.369 -0.3722 -0.3981  0.0820
 3898TIP3    H133109   4.200   2.099  15.391 -2.0797  0.7067 -0.0646
 3898TIP3    H233110   4.227   2.242  15.431 -0.1760  0.6150 -0.9049
 3899TIP3   OH233111   5.353   1.293   4.212  0.6004 -0.5428 -0.0913
 3899TIP3    H133112   5.268   1.298   4.256 -0.0167 -1.7502 -1.0905
 3899TIP3    H233113   5.416   1.277   4.283  0.0060  0.2487  0.6419
 3900TIP3   OH233114   1.333   0.148  16.854 -0.3469  0.0141  0.5234
 3900TIP3    H133115   1.308   0.122  16.943 -0.6007  0.3214  0.5420
 3900TIP3    H233116   1.428   0.133  16.851 -0.2389  0.5667  1.0394
 3901TIP3   OH233117   1.589   0.613  15.002  0.6170  0.1997 -0.4717
 3901TIP3    H133118   1.575   0.528  14.959  0.5326 -0.9741  1.7670
 3901TIP3    H233119   1.656   0.655  14.948 -0.8897 -0.2857 -2.9299
 3902TIP3   OH233120   4.452   4.203  14.955  0.1286 -0.2406 -0.7056
 3902TIP3    H133121   4.491   4.284  14.987  0.3368 -0.7956  0.5146
 3902TIP3    H233122   4.512   4.173  14.887 -0.0041  0.6678 -1.2364
 3903TIP3   OH233123   1.938   5.456  11.140 -0.5622 -0.4596 -0.2026
 3903TIP3    H133124   1.856   5.463  11.189  0.2769 -1.6311  1.4625
 3903TIP3    H233125   1.947   5.363  11.120  1.5946 -0.8368  2.0080
 3904TIP3   OH233126   4.240   4.696   5.636  0.0903  0.5028 -0.7991
 3904TIP3    H133127   4.276   4.624   5.584 -0.1188 -0.8614  0.8839
 3904TIP3    H233128   4.177   4.655   5.694 -1.1697  2.2888 -0.8362
 3905TIP3   OH233129   4.997   1.049  13.982  0.1138  0.2427 -0.2570
 3905TIP3    H133130   5.006   1.013  14.071 -1.7903  0.9973  0.3073
 3905TIP3    H233131   4.976   0.973  13.928  0.4096 -0.1005  0.1029
 3906TIP3   OH233132   0.151   2.250   2.147  0.2201 -0.0726  0.0912
 3906TIP3    H133133   0.078   2.299   2.185  0.7735 -0.3391  1.5398
 3906TIP3    H233134   0.141   2.161   2.180  1.8237  0.1380  1.2674
 3907TIP3   OH233135   1.129   3.932   2.941  0.7160  0.3831  0.4757
 3907TIP3    H133136   1.102   4.014   2.900  0.2512  0.3420  0.6931
 3907TIP3    H233137   1.223   3.925   2.923  0.0891 -1.0897 -3.2475
 3908TIP3   OH233138   5.660   5.305  17.204  0.0832  0.4804 -0.1334
 3908TIP3    H133139   5.746   5.261  17.206  0.8069  1.8547 -0.1605
 3908TIP3    H233140   5.598   5.234  17.184  0.9474 -0.9140  1.7761
 3909TIP3   OH233141   5.743   2.108  15.117  0.2649 -0.1825  0.0376
 3909TIP3    H133142   5.717   2.049  15.046  0.8147  0.4470 -0.7018
 3909TIP3    H233143   5.672   2.101  15.181 -0.3275 -0.6287 -0.6480
 3910TIP3   OH233144   5.395   1.948  12.811 -0.2800 -0.1233 -0.1977
 3910TIP3    H133145   5.426   2.038  12.818  2.6026 -1.0347  0.2064
 3910TIP3    H233146   5.392   1.917  12.902  0.9214 -1.0217 -0.4305
 3911TIP3   OH233147   5.509   2.891  16.499 -0.2123  0.7138  0.2973
 3911TIP3    H133148   5.585   2.936  16.462 -0.6904  0.5312 -0.9363
 3911TIP3    H233149   5.506   2.807  16.453  0.0436 -0.1745  1.8277
 3912TIP3   OH233150   6.436   1.912   1.347 -0.2522 -0.2145  0.1243
 3912TIP3    H133151   6.477   1.910   1.434 -2.6539 -1.5589  1.3642
 3912TIP3    H233152   6.361   1.970   1.358 -1.0554 -1.0304 -0.7883
 3913TIP3   OH233153   6.500   5.117  16.837  0.1443 -0.6941 -0.2400
 3913TIP3    H133154   6.514   5.029  16.872 -0.7417 -0.5050  0.6185
 3913TIP3    H233155   6.588   5.148  16.815  0.5996 -1.2814  0.7158
 3914TIP3   OH233156   0.368   6.120  11.535 -0.2946  0.2587  0.0167
 3914TIP3    H133157   0.412   6.137  11.451  1.8507 -0.9688  0.8252
 3914TIP3    H233158   0.276   6.110  11.511  0.2860 -0.2869 -2.2377
 3915TIP3   OH233159   1.269   3.418   4.347  0.3107  0.5014 -0.4804
 3915TIP3    H133160   1.324   3.374   4.411 -0.3005  0.1759 -0.1645
 3915TIP3    H233161   1.237   3.496   4.391  0.0711  0.3962 -0.4674
 3916TIP3   OH233162   2.355   4.462  16.229  0.5669  0.3238  0.0878
 3916TIP3    H133163   2.381   4.553  16.216  0.2994  0.5739  1.2683
 3916TIP3    H233164   2.311   4.438  16.147 -1.0805  1.8677  0.4535
 3917TIP3   OH233165   5.708   2.050   1.252 -0.6121 -0.1078 -0.1278
 3917TIP3    H133166   5.673   2.054   1.163  1.1472 -0.7863 -0.8863
 3917TIP3    H233167   5.632   2.026   1.306 -1.3722 -1.4291 -1.6871
 3918TIP3   OH233168   6.003   6.123   4.800 -0.4512 -0.3249 -0.0061
 3918TIP3    H133169   6.079   6.119   4.859  0.6578 -1.4927 -1.4417
 3918TIP3    H233170   6.030   6.183   4.731 -1.8114  1.1655  0.6930
 3919TIP3   OH233171   2.276   3.656  13.003 -0.0002  0.3417  0.8399
 3919TIP3    H133172   2.280   3.699  13.088  0.8190 -0.8296  1.4332
 3919TIP3    H233173   2.273   3.727  12.939  1.3727  1.2746  1.7695
 3920TIP3   OH233174   4.509   4.313   4.593  0.1625  0.3391 -0.4417
 3920TIP3    H133175   4.471   4.319   4.681  0.3153  3.1933 -0.4851
 3920TIP3    H233176   4.434   4.304   4.535 -0.2165  1.9729 -0.2397
 3921TIP3   OH233177   0.591   6.560  14.564 -0.1029  0.5343  0.2432
 3921TIP3    H133178   0.606   6.467  14.548  0.0022  0.0748  2.6796
 3921TIP3    H233179   0.633   6.604  14.491  2.1956 -1.2309  0.4051
 3922TIP3   OH233180   4.728   6.212   2.794  0.4810  0.2617 -0.1642
 3922TIP3    H133181   4.765   6.300   2.788  0.3003  0.3354 -0.2026
 3922TIP3    H233182   4.798   6.159   2.831  0.5552  0.4439 -0.0426
 3923TIP3   OH233183   2.811   2.895  15.221  0.2985  0.0604 -0.5861
 3923TIP3    H133184   2.902   2.870  15.204  0.0223 -0.4451 -1.3802
 3923TIP3    H233185   2.797   2.873  15.313  1.0484  0.3740 -0.3836
 3924TIP3   OH233186   4.665   0.505   5.360 -0.1509 -0.0182 -0.5117
 3924TIP3    H133187   4.754   0.483   5.333  0.3322 -0.1774  1.0812
 3924TIP3    H233188   4.609   0.450   5.306  0.6587  0.6185 -2.0594
 3925TIP3   OH233189   5.220   6.021   0.829  0.2679  0.2184 -0.3659
 3925TIP3    H133190   5.231   6.087   0.898  0.2566 -0.6890  0.5248
 3925TIP3    H233191   5.304   5.975   0.826 -0.0565 -0.3846 -0.2755
 3926TIP3   OH233192   0.044   3.015   5.396 -0.0646  0.4671  0.2869
 3926TIP3    H133193   0.053   3.072   5.320 -1.4278 -0.4653 -0.6248
 3926TIP3    H233194   0.010   3.072   5.465 -0.8135  0.9075 -0.4258
 3927TIP3   OH233195   6.181   2.388  12.490  0.3028 -0.6165 -0.1353
 3927TIP3    H133196   6.146   2.437  12.564 -0.8801 -0.9453 -0.4540
 3927TIP3    H233197   6.268   2.361  12.518  1.1945  2.0547 -0.1385
 3928TIP3   OH233198   0.130   1.650  17.285  0.3685 -0.1869  0.3911
 3928TIP3    H133199   0.046   1.677  17.321  0.4209 -1.7612  1.8413
 3928TIP3    H233200   0.112   1.566  17.242  1.3902 -1.2507  1.9152
 3929TIP3   OH233201   6.188   6.085   5.958 -0.2982 -0.4044  0.0787
 3929TIP3    H133202   6.248   6.035   5.902 -1.8113  0.9924 -3.0471
 3929TIP3    H233203   6.228   6.172   5.965 -1.2650  0.1618 -0.9925
 3930TIP3   OH233204   2.789   5.533  12.956  0.3918  0.4699 -0.2545
 3930TIP3    H133205   2.814   5.498  13.041 -2.4505  1.9754  1.3453
 3930TIP3    H233206   2.712   5.481  12.930  0.5152  0.8081 -1.3743
 3931TIP3   OH233207   0.175   1.500  12.202 -0.4266 -0.2419  0.9536
 3931TIP3    H133208   0.108   1.432  12.214  1.6322 -2.5805  0.1394
 3931TIP3    H233209   0.258   1.454  12.217  1.0538  2.4448  1.5885
 3932TIP3   OH233210   6.539   0.464  11.420 -0.1745 -0.2763  0.2112
 3932TIP3    H133211   6.466   0.515  11.387 -0.1014 -1.0143 -1.1682
 3932TIP3    H233212   6.582   0.430  11.341  0.8962 -0.8938  1.0347
 3933TIP3   OH233213   4.321   5.163   0.135 -0.4478  0.8833  1.2558
 3933TIP3    H133214   4.409   5.179   0.169 -0.0691  3.7728 -0.7276
 3933TIP3    H233215   4.263   5.208   0.197 -0.1893  1.7465  0.9001
 3934TIP3   OH233216   3.806   5.341   6.609 -0.6567 -0.1854 -0.5312
 3934TIP3    H133217   3.844   5.331   6.697 -1.5961 -1.0238 -0.2030
 3934TIP3    H233218   3.827   5.260   6.564 -1.7203 -0.5286 -0.4531
 3935TIP3   OH233219   0.626   2.049   4.902  0.0838 -0.1461 -0.0414
 3935TIP3    H133220   0.621   1.953   4.905  1.5792 -0.2267  1.2104
 3935TIP3    H233221   0.715   2.067   4.872  0.4074  0.8195  1.4107
 3936TIP3   OH233222   2.449   3.015   2.763  0.1238 -0.8603  0.2792
 3936TIP3    H133223   2.367   2.991   2.807  0.7644 -1.0562  1.4049
 3936TIP3    H233224   2.466   3.105   2.792  1.4748 -1.5948  1.9422
 3937TIP3   OH233225   0.444   3.540  16.371  0.3540 -0.2125  0.2185
 3937TIP3    H133226   0.477   3.624  16.341 -1.1511  0.0183 -0.9461
 3937TIP3    H233227   0.472   3.478  16.304 -1.5490  0.0117 -0.8681
 3938TIP3   OH233228   1.710   6.355   1.925 -0.0489  0.4104  0.5345
 3938TIP3    H133229   1.649   6.361   1.852 -0.4541 -0.9735  0.7182
 3938TIP3    H233230   1.781   6.301   1.892  0.1726  0.4782  0.8959
 3939TIP3   OH233231   5.539   2.431   0.789 -0.5326  0.1276  0.1106
 3939TIP3    H133232   5.508   2.510   0.832  0.4944 -0.1609  1.4645
 3939TIP3    H233233   5.542   2.453   0.696 -1.6868  1.1634  0.2914
 3940TIP3   OH233234   5.391   0.896  11.059 -0.3185  0.3719 -0.3639
 3940TIP3    H133235   5.454   0.886  10.987 -0.6848  0.9623 -0.7721
 3940TIP3    H233236   5.433   0.853  11.134  0.0607 -0.2679 -0.9333
 3941TIP3   OH233237   1.482   2.855   1.237 -0.5262  0.3736  0.5446
 3941TIP3    H133238   1.545   2.856   1.165 -0.5874 -0.6155  0.4638
 3941TIP3    H233239   1.526   2.806   1.307 -0.6195  0.9947  1.0566
 3942TIP3   OH233240   1.390   3.284  16.176  0.5296 -0.1827 -0.1521
 3942TIP3    H133241   1.458   3.321  16.120 -0.4996  0.3850 -1.0777
 3942TIP3    H233242   1.384   3.192  16.150 -0.1325  0.1408 -1.2116
 3943TIP3   OH233243   1.705   6.560  17.364 -0.1819 -0.3513 -0.3268
 3943TIP3    H133244   1.683   6.516  17.446  2.0390  1.6149  1.4899
 3943TIP3    H233245   1.643   6.525  17.300 -2.5154 -1.4580  2.3281
 3944TIP3   OH233246   5.953   6.002   5.118  0.1295  0.4293 -0.1136
 3944TIP3    H133247   5.924   5.940   5.051  2.1908  2.3811 -3.0069
 3944TIP3    H233248   5.922   6.087   5.087  3.9106  1.8432 -0.4428
 3945TIP3   OH233249   0.235   3.445  11.555  0.0394 -0.3683 -0.0980
 3945TIP3    H133250   0.192   3.380  11.499 -0.3753 -0.4515  0.3055
 3945TIP3    H233251   0.225   3.527  11.508 -0.3828 -0.4230 -0.1138
 3946TIP3   OH233252   0.319   4.862  15.095  0.1532 -0.2613  0.3050
 3946TIP3    H133253   0.377   4.788  15.113 -0.6731 -0.8101  0.8120
 3946TIP3    H233254   0.243   4.823  15.051 -0.5920  0.1492  1.1684
 3947TIP3   OH233255   0.320   2.411  11.668  0.2415 -0.2974  0.1608
 3947TIP3    H133256   0.290   2.390  11.579  0.2517 -0.4330  0.1901
 3947TIP3    H233257   0.322   2.327  11.714 -1.1138 -0.0713  0.6962
 3948TIP3   OH233258   3.668   0.320   1.557 -0.3601 -0.3263  0.3075
 3948TIP3    H133259   3.725   0.278   1.621 -0.7698  0.4063  1.1745
 3948TIP3    H233260   3.721   0.327   1.478 -0.4091 -2.8778 -0.0462
 3949TIP3   OH233261   5.894   5.900  13.813 -0.7491 -0.2250 -0.4233
 3949TIP3    H133262   5.944   5.977  13.841 -0.0401 -0.5561 -0.7587
 3949TIP3    H233263   5.895   5.842  13.889 -0.3277 -0.3713 -0.5345
 3950TIP3   OH233264   5.005   3.720   6.603  0.7190 -0.2482  0.1702
 3950TIP3    H133265   4.947   3.778   6.653 -0.0076 -0.5468 -0.3044
 3950TIP3    H233266   5.088   3.768   6.596  0.6303  0.0537  1.1275
 3951TIP3   OH233267   3.264   1.456   1.242 -0.5319 -0.1366  0.3126
 3951TIP3    H133268   3.313   1.536   1.223  0.1125 -0.6116 -0.0649
 3951TIP3    H233269   3.323   1.385   1.218 -0.6490 -0.7492  1.7457
 3952TIP3   OH233270   5.548   4.910   6.099 -0.7497  0.6586  0.0717
 3952TIP3    H133271   5.589   4.996   6.102  1.7795 -0.4476 -0.3086
 3952TIP3    H233272   5.579   4.871   6.018 -3.2676 -0.0157 -0.6669
 3953TIP3   OH233273   3.954   0.553   2.842  0.1181 -0.3209  0.1986
 3953TIP3    H133274   3.984   0.625   2.898  0.7048 -0.4110  0.0149
 3953TIP3    H233275   3.951   0.477   2.901  0.7483 -0.4184  0.1138
 3954TIP3   OH233276   4.643   5.727  13.018 -0.6511  0.1686  0.9707
 3954TIP3    H133277   4.596   5.705  12.937 -0.3034 -0.2312  0.8764
 3954TIP3    H233278   4.706   5.656  13.029  0.5183  1.1192  0.6426
 3955TIP3   OH233279   5.632   4.977   1.156 -0.2539  0.4911 -0.2162
 3955TIP3    H133280   5.611   4.997   1.247  1.6922 -1.6918  0.8281
 3955TIP3    H233281   5.728   4.972   1.154 -0.0511  2.7935 -2.9757
 3956TIP3   OH233282   3.231   5.549   3.467  0.2134  0.5863 -0.3664
 3956TIP3    H133283   3.260   5.622   3.522  1.0695 -0.0255  0.0288
 3956TIP3    H233284   3.176   5.589   3.400 -0.7708  1.3569  0.8719
 3957TIP3   OH233285   5.079   2.383   2.263 -0.0112 -0.1716  0.2857
 3957TIP3    H133286   5.018   2.456   2.254 -0.7458 -0.5732  1.7376
 3957TIP3    H233287   5.162   2.416   2.229 -0.9479  0.4566 -1.5373
 3958TIP3   OH233288   3.899   5.355  13.903 -0.6881  0.3457  0.0232
 3958TIP3    H133289   3.980   5.307  13.918 -1.3853 -0.7968  0.2156
 3958TIP3    H233290   3.860   5.366  13.990 -1.5370 -0.5603 -0.2310
 3959TIP3   OH233291   3.843   5.729   3.113  0.2142 -0.2242 -0.2472
 3959TIP3    H133292   3.809   5.743   3.202  1.7107  1.5586  0.1040
 3959TIP3    H233293   3.781   5.668   3.073 -1.1304 -0.1831  1.6412
 3960TIP3   OH233294   0.336   6.662  17.240  0.1523  0.3074  0.2531
 3960TIP3    H133295   0.358   6.571  17.264 -0.3023 -0.6166 -2.5516
 3960TIP3    H233296   0.264   6.654  17.178  0.0334  2.6220  0.0205
 3961TIP3   OH233297   4.253   1.453  14.905 -0.4136 -0.0723 -0.3507
 3961TIP3    H133298   4.295   1.471  14.821 -1.9606 -0.6767 -1.2973
 3961TIP3    H233299   4.248   1.358  14.911 -0.3683 -0.0390  0.4091
 3962TIP3   OH233300   1.153   6.352   4.712  0.0022  0.0207 -0.3795
 3962TIP3    H133301   1.174   6.375   4.622 -0.7883 -1.3745 -0.9613
 3962TIP3    H233302   1.235   6.366   4.760 -0.4953  4.5083 -0.4181
 3963TIP3   OH233303   2.665   4.860   5.284 -0.2558 -0.0567 -0.0277
 3963TIP3    H133304   2.737   4.902   5.332 -0.2336 -0.8231  0.6280
 3963TIP3    H233305   2.597   4.927   5.280  1.7757  2.1472 -4.0155
 3964TIP3   OH233306   2.543   5.001   0.057  0.6237 -0.4304  0.0847
 3964TIP3    H133307   2.477   5.015   0.125  0.7263  0.7140 -0.0322
 3964TIP3    H233308   2.603   5.076   0.066  0.3984 -0.0234 -1.5292
 3965TIP3   OH233309   1.784   1.941  16.923 -0.6747 -0.4658 -0.0436
 3965TIP3    H133310   1.777   1.941  16.828  0.1894  0.8791 -0.1282
 3965TIP3    H233311   1.833   1.860  16.943 -1.7124 -1.2653 -0.6300
 3966TIP3   OH233312   1.347   6.189  11.264 -0.2559  0.2136 -0.3777
 3966TIP3    H133313   1.293   6.231  11.197  0.7074  1.1638 -0.5916
 3966TIP3    H233314   1.351   6.097  11.237  0.8351  0.7306 -2.1693
 3967TIP3   OH233315   0.147   2.153  16.363 -0.0714 -0.1708  0.3501
 3967TIP3    H133316   0.155   2.170  16.269  0.4000 -0.8532  0.2532
 3967TIP3    H233317   0.060   2.114  16.373 -0.3930  0.5289  0.2999
 3968TIP3   OH233318   4.847   4.622  16.588  0.0052  0.5256 -0.1276
 3968TIP3    H133319   4.919   4.560  16.594 -0.5442 -0.1191 -0.1072
 3968TIP3    H233320   4.876   4.698  16.638  1.0045  0.6105 -0.8064
 3969TIP3   OH233321   4.255   6.296   0.354 -0.5289  0.1402 -0.4490
 3969TIP3    H133322   4.328   6.330   0.303  1.0110 -1.4107  0.6197
 3969TIP3    H233323   4.257   6.346   0.436 -1.5316  1.0084 -0.9332
 3970TIP3   OH233324   0.051   5.435   1.561  0.1223  0.4782 -0.1742
 3970TIP3    H133325  -0.018   5.425   1.627 -0.9293  0.0943 -1.2877
 3970TIP3    H233326   0.096   5.350   1.561 -0.7717 -0.0221 -0.8855
 3971TIP3   OH233327   2.808   6.291  15.642  0.0646 -0.0322  0.2833
 3971TIP3    H133328   2.794   6.277  15.549 -1.0491 -0.4721  0.5024
 3971TIP3    H233329   2.742   6.355  15.668 -0.2812 -0.6324  0.9472
 3972TIP3   OH233330   6.673   2.750   4.752  0.7807  0.7369 -0.5752
 3972TIP3    H133331   6.697   2.839   4.777  1.4604  0.0768  1.2939
 3972TIP3    H233332   6.746   2.696   4.783 -0.4798 -0.6748  0.0440
 3973TIP3   OH233333   3.448   1.318   3.928  0.0384  0.1436 -0.1043
 3973TIP3    H133334   3.461   1.278   4.013 -1.3044 -1.6337 -0.6867
 3973TIP3    H233335   3.472   1.250   3.865 -1.0058  0.6978 -1.1392
 3974TIP3   OH233336   0.138   1.068  15.785  0.4111  0.2204  0.0200
 3974TIP3    H133337   0.148   0.991  15.841 -3.0218 -3.5534 -3.8540
 3974TIP3    H233338   0.045   1.087  15.787  0.6325  1.8156 -2.0322
 3975TIP3   OH233339   4.553   4.787   0.440  0.1344 -0.1576 -0.5140
 3975TIP3    H133340   4.481   4.851   0.446  0.6286  0.3948 -0.4063
 3975TIP3    H233341   4.628   4.838   0.411  0.5420 -0.6954 -0.4172
 3976TIP3   OH233342   2.472   4.775   6.275 -0.1366 -0.3987  0.2306
 3976TIP3    H133343   2.527   4.768   6.196  0.6357 -0.5722  0.7695
 3976TIP3    H233344   2.530   4.814   6.341 -0.6011 -0.7796  0.8744
 3977TIP3   OH233345   5.943   2.147   1.336 -0.4547 -0.5599  0.5078
 3977TIP3    H133346   6.012   2.083   1.353 -0.4756 -1.1735 -1.4075
 3977TIP3    H233347   5.877   2.098   1.287 -0.3183  0.9771 -1.3225
 3978TIP3   OH233348   0.525   1.072  15.045  0.1103 -0.7256  0.5009
 3978TIP3    H133349   0.546   1.071  15.139 -2.2702 -1.2620  1.0981
 3978TIP3    H233350   0.567   1.151  15.012  2.1414 -1.2301  1.7008
 3979TIP3   OH233351   1.631   6.551  14.188  0.4351 -0.0444  0.2456
 3979TIP3    H133352   1.544   6.511  14.191 -0.3709  1.5817 -0.3534
 3979TIP3    H233353   1.633   6.612  14.262  0.8649  0.2998 -0.0422
 3980TIP3   OH233354   1.117   6.731   5.819 -0.2764  0.2530  0.6226
 3980TIP3    H133355   1.093   6.822   5.835  1.1316  0.7610  0.0369
 3980TIP3    H233356   1.095   6.717   5.727 -0.0746  0.1372  0.5928
 3981TIP3   OH233357   4.686   1.298   1.940 -0.7045 -0.0376 -0.4670
 3981TIP3    H133358   4.720   1.343   1.863  0.9116 -0.8959 -0.2952
 3981TIP3    H233359   4.650   1.216   1.907  2.9550 -1.9893 -0.0882
 3982TIP3   OH233360   1.647   3.795  15.853 -0.3546  0.4732  0.1636
 3982TIP3    H133361   1.560   3.755  15.861 -0.0572 -0.1352  0.4689
 3982TIP3    H233362   1.701   3.727  15.812 -0.3384  1.3367 -1.3112
 3983TIP3   OH233363   3.565   1.102  10.461  0.1132 -0.0120 -0.0088
 3983TIP3    H133364   3.654   1.077  10.435  0.5597  1.3029  0.1340
 3983TIP3    H233365   3.534   1.030  10.515  0.6730 -0.9940 -0.9619
 3984TIP3   OH233366   5.479   0.960  11.542 -0.3354 -0.0753 -0.1905
 3984TIP3    H133367   5.421   0.902  11.492 -0.0945 -0.3705 -0.1290
 3984TIP3    H233368   5.419   1.015  11.593 -0.5654 -0.2914 -0.2236
 3985TIP3   OH233369   6.159   4.060  15.240 -0.2536 -0.0174 -0.2516
 3985TIP3    H133370   6.134   4.037  15.150 -1.3581 -0.6952  0.2046
 3985TIP3    H233371   6.190   4.150  15.234 -1.9405  0.5460 -1.0400
 3986TIP3   OH233372   1.231   4.718   3.489 -0.6328 -0.5064 -0.4301
 3986TIP3    H133373   1.284   4.672   3.423 -0.0381 -1.4923  0.6939
 3986TIP3    H233374   1.214   4.804   3.451  2.2739  0.0863 -0.6268
 3987TIP3   OH233375   6.053   2.963   0.043  0.7486  0.1300  0.7388
 3987TIP3    H133376   6.060   3.044   0.092 -0.5965 -0.6125  2.2579
 3987TIP3    H233377   5.981   2.978  -0.019  0.6759  0.1877  0.8373
 3988TIP3   OH233378   5.891   0.609   1.277  0.0559  0.5069 -0.3271
 3988TIP3    H133379   5.848   0.583   1.195 -0.1143  1.1696 -0.4523
 3988TIP3    H233380   5.901   0.704   1.269  1.4710  0.3824 -0.2744
 3989TIP3   OH233381   2.895   1.642   1.530  0.1651 -0.2388 -0.6188
 3989TIP3    H133382   2.842   1.702   1.478  1.8308  1.0078 -0.9890
 3989TIP3    H233383   2.930   1.580   1.466  0.1650 -0.2630 -0.5953
 3990TIP3   OH233384   2.013   2.030   2.398  0.5151  0.5964  0.2066
 3990TIP3    H133385   2.026   1.972   2.323 -1.1692 -1.7237  1.5719
 3990TIP3    H233386   1.918   2.037   2.407  0.6455  0.4113  2.3386
 3991TIP3   OH233387   6.292   4.251  13.401  0.0721  0.4218 -0.0654
 3991TIP3    H133388   6.382   4.227  13.378 -0.1731  0.4224 -1.0389
 3991TIP3    H233389   6.257   4.173  13.445  0.5718  0.4575  0.4102
 3992TIP3   OH233390   3.200   2.053   5.704 -0.1559  0.2371 -0.8743
 3992TIP3    H133391   3.158   1.968   5.693 -1.2024  0.7361 -0.8131
 3992TIP3    H233392   3.131   2.117   5.686  0.4249  1.0739 -0.2162
 3993TIP3   OH233393   5.069   2.771  12.092  0.2379 -0.2329  0.2609
 3993TIP3    H133394   5.050   2.817  12.174 -0.2453  0.7922 -0.3996
 3993TIP3    H233395   5.130   2.829  12.046  0.3445 -0.6991 -0.1913
 3994TIP3   OH233396   4.933   1.893  16.499 -0.1065  0.4530  0.7325
 3994TIP3    H133397   4.896   1.804  16.504  0.4511  0.2751  1.9004
 3994TIP3    H233398   4.975   1.906  16.584  1.0859  1.2847  0.0301
 3995TIP3   OH233399   0.166   3.472  12.071  0.3770  0.5440  0.4643
 3995TIP3    H133400   0.260   3.481  12.056  0.3253 -0.8177 -0.9346
 3995TIP3    H233401   0.155   3.381  12.101 -0.6311  0.1216 -1.0465
 3996TIP3   OH233402   5.891   5.656   3.936  0.4669 -0.1398  0.8590
 3996TIP3    H133403   5.950   5.693   3.871 -0.3520 -0.2629  0.0220
 3996TIP3    H233404   5.876   5.727   3.998 -0.8191  0.8860 -0.5427
 3997TIP3   OH233405   4.986   2.793  16.536 -0.3619  0.0249  0.4256
 3997TIP3    H133406   4.989   2.816  16.443  0.5574  0.2316  0.4980
 3997TIP3    H233407   4.915   2.729  16.542 -0.3337 -0.1037 -0.4486
 3998TIP3   OH233408   2.043   2.764   0.550  0.0535 -0.0569  0.0043
 3998TIP3    H133409   2.077   2.831   0.490  0.3255 -1.1008 -1.0575
 3998TIP3    H233410   1.950   2.784   0.558  0.2965  0.9751  0.4357
 3999TIP3   OH233411   5.931   0.873  13.032 -0.4553 -0.2369 -0.5531
 3999TIP3    H133412   5.893   0.961  13.038 -0.5055 -0.2939  0.0936
 3999TIP3    H233413   5.991   0.877  12.958 -0.4156  0.3609 -0.4919
 4000TIP3   OH233414   6.587   5.395  13.755  0.4386 -0.0130 -0.2403
 4000TIP3    H133415   6.596   5.486  13.728 -0.3472  0.1662  0.0874
 4000TIP3    H233416   6.506   5.392  13.807  0.8301 -0.7522  0.3626
 4001TIP3   OH233417   5.069   1.039   5.698 -0.4529  0.1094 -0.4307
 4001TIP3    H133418   5.023   0.998   5.625 -0.2958  1.9270 -1.6171
 4001TIP3    H233419   5.009   1.032   5.772 -0.7572 -1.4688 -0.7961
 4002TIP3   OH233420   6.337   2.540   5.655  0.4817 -0.7029 -0.2240
 4002TIP3    H133421   6.323   2.448   5.680 -0.7509 -0.0219  1.7721
 4002TIP3    H233422   6.318   2.590   5.734 -0.0365  1.3788 -1.5866
 4003TIP3   OH233423   1.094   3.397   2.105  0.2464  0.0335 -0.2988
 4003TIP3    H133424   1.111   3.367   2.016 -1.2575  0.8154 -0.8878
 4003TIP3    H233425   1.175   3.441   2.132  1.5247 -2.1094 -0.3981
 4004TIP3   OH233426   5.145   6.386  16.896  0.0066  0.3071  0.4334
 4004TIP3    H133427   5.106   6.307  16.935 -3.8802  0.9280 -1.6588
 4004TIP3    H233428   5.107   6.458  16.947  0.9452  0.9337  0.2690
 4005TIP3   OH233429   5.745   2.143   2.755  0.0186 -0.5322 -0.2425
 4005TIP3    H133430   5.830   2.114   2.788  1.2359  1.3438 -1.5234
 4005TIP3    H233431   5.765   2.221   2.702 -2.6187  0.6902  0.3774
 4006TIP3   OH233432   4.018   2.076  11.696 -0.0588  0.0225 -0.0624
 4006TIP3    H133433   3.932   2.118  11.698 -1.1093 -1.9604 -1.1886
 4006TIP3    H233434   4.027   2.035  11.782 -0.2723  0.1562  0.0229
 4007TIP3   OH233435   4.514   1.162   3.006  0.0636  0.0190 -0.2976
 4007TIP3    H133436   4.544   1.248   2.976  1.1834 -0.1944  0.1626
 4007TIP3    H233437   4.564   1.100   2.952 -0.5914 -0.3481 -0.4853
 4008TIP3   OH233438   6.318   3.025   1.488  0.2171 -0.2047  0.1876
 4008TIP3    H133439   6.401   2.997   1.447 -0.3298 -0.2261 -0.9357
 4008TIP3    H233440   6.278   3.083   1.423  0.1681  1.2399  1.4682
 4009TIP3   OH233441   0.494   5.045  12.836 -0.5569  0.1875 -0.0086
 4009TIP3    H133442   0.443   4.997  12.901 -2.4737  0.5004 -1.1781
 4009TIP3    H233443   0.461   5.135  12.840  0.4854  0.6006 -0.2644
 4010TIP3   OH233444   6.212   4.583   1.485 -0.1190  0.0583 -0.0303
 4010TIP3    H133445   6.214   4.549   1.395  0.9575 -0.6911  0.2545
 4010TIP3    H233446   6.258   4.666   1.480  1.9625 -1.0105  0.1832
 4011TIP3   OH233447   3.480   1.495   6.037 -0.2254 -0.1382  0.0473
 4011TIP3    H133448   3.444   1.434   6.102  0.3915 -0.6623 -0.0859
 4011TIP3    H233449   3.483   1.444   5.956  1.2184 -0.2693  0.1505
 4012TIP3   OH233450   5.049   1.416   4.862 -0.3391  0.8046 -0.2881
 4012TIP3    H133451   5.096   1.476   4.803 -0.8684  0.0800 -1.4969
 4012TIP3    H233452   4.962   1.407   4.821 -0.5083 -0.2074  0.2724
 4013TIP3   OH233453   1.144   2.229   2.070 -0.2048  0.3078  0.1640
 4013TIP3    H133454   1.182   2.184   2.146 -2.5129 -0.6411  0.8360
 4013TIP3    H233455   1.092   2.300   2.108  1.0620  1.7848 -0.7482
 4014TIP3   OH233456   3.685   3.097  13.576  0.1089  0.7270  0.1367
 4014TIP3    H133457   3.642   3.147  13.645  0.2393  0.2655  0.5528
 4014TIP3    H233458   3.635   3.016  13.570 -0.1685  0.9390 -0.6098
 4015TIP3   OH233459   1.291   4.815  12.840  0.4992  0.2236 -0.6101
 4015TIP3    H133460   1.293   4.833  12.746  1.1588  0.8489 -0.4881
 4015TIP3    H233461   1.382   4.797  12.863  0.5392  1.3078  0.1351
 4016TIP3   OH233462   2.356   0.378  15.737  0.1007  0.1555 -0.0204
 4016TIP3    H133463   2.324   0.457  15.694 -0.8779 -1.3495 -2.2938
 4016TIP3    H233464   2.278   0.323  15.747  0.4229  0.1085  3.1666
 4017TIP3   OH233465   0.679   0.813  12.409  0.4456  0.7866  0.1860
 4017TIP3    H133466   0.638   0.801  12.495 -0.6048 -0.9416 -0.4986
 4017TIP3    H233467   0.607   0.803  12.347  1.0855  2.5649 -0.9080
 4018TIP3   OH233468   4.588   2.559   5.133  0.3645 -0.5156 -0.2786
 4018TIP3    H133469   4.533   2.636   5.114 -0.3393 -1.2032 -1.0894
 4018TIP3    H233470   4.673   2.596   5.157 -0.9694  0.7461  3.3260
 4019TIP3   OH233471   5.687   2.338   5.341 -0.6482 -0.2999 -0.5459
 4019TIP3    H133472   5.735   2.413   5.305 -0.3123  0.9267  2.2243
 4019TIP3    H233473   5.677   2.278   5.267  3.3449  0.2732 -1.7670
 4020TIP3   OH233474   1.254   5.205  16.265 -0.2086 -0.2180 -0.0588
 4020TIP3    H133475   1.282   5.295  16.285  0.1597 -0.5821  1.1629
 4020TIP3    H233476   1.301   5.182  16.185  0.0804  0.5039 -0.1046
 4021TIP3   OH233477   5.317   5.614   0.704 -0.5243 -0.3063  0.2460
 4021TIP3    H133478   5.386   5.669   0.741  1.4654 -1.2690 -1.8224
 4021TIP3    H233479   5.359   5.528   0.692 -1.4679 -0.4649 -2.6921
 4022TIP3   OH233480   0.613   3.265  11.672 -0.4524 -0.2455 -0.1753
 4022TIP3    H133481   0.658   3.273  11.756 -0.6650  2.8280 -0.2380
 4022TIP3    H233482   0.607   3.171  11.657  0.6866 -0.8743  2.6398
 4023TIP3   OH233483   3.804   1.583   2.461  0.4134 -0.3117  0.0496
 4023TIP3    H133484   3.751   1.608   2.536  0.5584  1.0526 -0.2720
 4023TIP3    H233485   3.858   1.660   2.443  0.8904 -0.8680 -1.0155
 4024TIP3   OH233486   6.466   5.434   5.236 -0.6647  0.7905  0.0295
 4024TIP3    H133487   6.423   5.511   5.198  1.8153  2.6010  0.6581
 4024TIP3    H233488   6.500   5.385   5.161 -1.6910  0.6038 -0.3358
 4025TIP3   OH233489   1.777   2.775   0.691 -0.6162 -0.0482  0.9886
 4025TIP3    H133490   1.763   2.695   0.742 -0.9889  0.1851  1.2575
 4025TIP3    H233491   1.735   2.844   0.743  1.3168  0.6673  1.7317
 4026TIP3   OH233492   6.742   4.601  12.216 -0.2191 -0.4814 -0.4788
 4026TIP3    H133493   6.746   4.691  12.185 -2.3175 -0.3895 -0.6232
 4026TIP3    H233494   6.833   4.573  12.222  0.4412  1.4569 -0.9666
 4027TIP3   OH233495   6.162   2.251  11.926  0.2539 -0.7183  0.3772
 4027TIP3    H133496   6.215   2.326  11.949  0.1519 -0.9090  1.2910
 4027TIP3    H233497   6.221   2.176  11.932  0.2490 -0.7665 -0.1029
 4028TIP3   OH233498   6.014   3.145  16.395 -0.0476  0.1483 -0.4387
 4028TIP3    H133499   6.008   3.234  16.429 -0.2194  0.4697 -1.2654
 4028TIP3    H233500   6.107   3.131  16.379  0.0070  0.0842 -0.0661
 4029TIP3   OH233501   2.785   4.311   4.297  0.3268 -0.2932  0.1462
 4029TIP3    H133502   2.819   4.253   4.229 -2.8201 -1.3016 -0.7673
 4029TIP3    H233503   2.787   4.399   4.258  2.3242 -0.1886  0.3947
 4030TIP3   OH233504   1.178   0.675   3.997 -0.3817 -0.5325  0.1284
 4030TIP3    H133505   1.093   0.717   4.014 -0.4220  0.0056 -1.2663
 4030TIP3    H233506   1.163   0.622   3.918  0.3431 -1.1674  0.4118
 4031TIP3   OH233507   5.404   2.646   0.889 -0.0270 -0.2440 -0.4636
 4031TIP3    H133508   5.333   2.584   0.907 -0.3845 -0.2213 -1.6800
 4031TIP3    H233509   5.378   2.688   0.807  1.2361  0.0073 -0.7526
 4032TIP3   OH233510   1.989   2.571  13.916 -0.1242 -0.1526 -0.4955
 4032TIP3    H133511   1.981   2.658  13.876 -1.1429 -1.0603 -2.4232
 4032TIP3    H233512   1.957   2.582  14.005  0.3969  1.5821 -0.4922
 4033TIP3   OH233513   4.635   2.295   4.572 -0.3099 -0.0602 -0.2398
 4033TIP3    H133514   4.674   2.262   4.654 -2.3869  0.1856  0.9183
 4033TIP3    H233515   4.648   2.224   4.509 -0.6192 -1.1950  0.9321
 4034TIP3   OH233516   0.030   1.325   6.094  0.3436  0.1565 -0.0104
 4034TIP3    H133517  -0.002   1.374   6.170 -1.0335 -0.3011 -0.2649
 4034TIP3    H233518   0.102   1.377   6.060 -1.1323  2.0802 -0.3298
 4035TIP3   OH233519   4.075   0.032  12.553 -0.0462 -0.2173 -1.0511
 4035TIP3    H133520   4.037  -0.053  12.532 -1.2382  0.4693 -1.8445
 4035TIP3    H233521   4.109   0.022  12.642 -0.5358 -1.4022 -0.9744
 4036TIP3   OH233522   3.724   1.441   1.941  0.3707 -0.8817  0.6832
 4036TIP3    H133523   3.801   1.385   1.940  1.2162  0.2106  1.3898
 4036TIP3    H233524   3.757   1.527   1.967 -1.0014 -0.2445  0.4392
 4037TIP3   OH233525   5.716   4.894  14.559  0.1484  0.0552 -0.1969
 4037TIP3    H133526   5.656   4.819  14.552  1.1029 -0.8661  0.9077
 4037TIP3    H233527   5.729   4.905  14.653  1.2509  0.5891 -0.3954
 4038TIP3   OH233528   4.866   0.789  16.214 -0.2846 -0.0718 -0.3118
 4038TIP3    H133529   4.953   0.795  16.254 -0.9013 -1.1533  1.2933
 4038TIP3    H233530   4.824   0.873  16.235  0.1720  0.2386 -0.6209
 4039TIP3   OH233531   0.415   5.734   5.879 -0.1540  0.1302 -0.0572
 4039TIP3    H133532   0.501   5.729   5.837 -0.2923  0.0822 -0.3407
 4039TIP3    H233533   0.420   5.813   5.933  0.3989 -0.4103  0.6915
 4040TIP3   OH233534   5.115   6.653   2.202 -0.2351 -0.3342 -0.4481
 4040TIP3    H133535   5.189   6.713   2.196 -0.5781  0.1113 -0.2174
 4040TIP3    H233536   5.057   6.692   2.266 -0.1954 -1.2032  0.1327
 4041TIP3   OH233537   2.759   5.928   0.520  0.1417  0.1620 -0.0361
 4041TIP3    H133538   2.792   5.882   0.442  0.4450  1.3062 -0.6014
 4041TIP3    H233539   2.672   5.890   0.534 -0.1513  0.3292 -1.2827
 4042TIP3   OH233540   2.119   0.144  15.499  0.3221  0.5280  0.1713
 4042TIP3    H133541   2.187   0.169  15.437  1.1096 -0.2067  0.7117
 4042TIP3    H233542   2.100   0.224  15.548  2.2035  0.3232  1.3200
 4043TIP3   OH233543   5.417   4.815   3.886  0.6798  0.4263 -0.9953
 4043TIP3    H133544   5.491   4.794   3.942 -1.1252 -3.3583  0.2694
 4043TIP3    H233545   5.365   4.878   3.937  0.8074 -0.3162  0.0765
 4044TIP3   OH233546   6.492   5.991  11.881  0.5510 -0.0106 -0.4711
 4044TIP3    H133547   6.529   5.921  11.827  2.1165  1.0820 -0.9075
 4044TIP3    H233548   6.513   6.072  11.833  1.2226  0.9341  1.3092
 4045TIP3   OH233549   1.159   0.835   2.933 -0.0935 -0.3903 -0.1366
 4045TIP3    H133550   1.088   0.898   2.923 -0.6041 -0.5403  2.0141
 4045TIP3    H233551   1.208   0.840   2.851 -2.4708 -0.1595 -1.6219
 4046TIP3   OH233552   2.919   3.578   1.874 -0.1575 -0.0943  0.4135
 4046TIP3    H133553   2.970   3.596   1.795 -1.5936  1.9743 -0.1398
 4046TIP3    H233554   2.960   3.633   1.941  0.1575 -0.7192  0.7356
 4047TIP3   OH233555   1.677   2.897  16.985  0.4243  0.2978 -0.4134
 4047TIP3    H133556   1.736   2.948  16.930 -0.0426  0.7448 -0.5040
 4047TIP3    H233557   1.684   2.807  16.951  1.3346  0.2732 -0.1721
 4048TIP3   OH233558   4.072   4.818   0.928  0.1915 -0.2076  0.3339
 4048TIP3    H133559   4.058   4.910   0.905 -0.6543 -1.1007 -3.2643
 4048TIP3    H233560   3.984   4.782   0.939  0.5130 -0.6512  1.5843
 4049TIP3   OH233561   0.215   2.456  11.277 -0.4638 -0.3521 -0.1379
 4049TIP3    H133562   0.256   2.369  11.280  1.2236  0.3989 -0.1092
 4049TIP3    H233563   0.209   2.476  11.184  2.2103  0.8079 -0.1417
 4050TIP3   OH233564   1.416   1.484   1.079 -0.3727 -0.0394  0.3503
 4050TIP3    H133565   1.406   1.419   1.010 -1.8948 -1.1854  1.5657
 4050TIP3    H233566   1.457   1.436   1.151 -0.2930  0.7018  0.8119
 4051TIP3   OH233567   0.124   3.921  12.425 -0.4286 -0.1367 -0.1157
 4051TIP3    H133568   0.140   3.880  12.341 -0.6670  0.9621 -0.7185
 4051TIP3    H233569   0.208   3.919  12.471 -0.7136 -2.3962  0.4002
 4052TIP3   OH233570   6.691   4.618  14.187  0.3481 -0.4659 -0.2830
 4052TIP3    H133571   6.779   4.582  14.177 -0.3516 -2.2086 -0.4795
 4052TIP3    H233572   6.636   4.543  14.211 -1.4293  0.1805 -2.0069
 4053TIP3   OH233573   4.966   1.792   2.329 -0.2843  0.0582 -0.9911
 4053TIP3    H133574   4.892   1.733   2.316  1.1723 -2.3461  0.9646
 4053TIP3    H233575   4.980   1.793   2.424  0.6268  2.5361 -1.0685
 4054TIP3   OH233576   4.347   0.082  12.048  0.0583 -0.1851 -0.6905
 4054TIP3    H133577   4.431   0.062  12.007 -0.0783  0.9765 -1.5498
 4054TIP3    H233578   4.304  -0.004  12.057  1.9427 -1.0281  1.2277
 4055TIP3   OH233579   2.332   4.525   2.895  0.5725  0.3474  0.1933
 4055TIP3    H133580   2.405   4.479   2.853 -0.4556 -2.9397  1.6540
 4055TIP3    H233581   2.282   4.561   2.822  1.5114 -0.8224 -1.0803
 4056TIP3   OH233582   0.312   5.786  15.018  0.2505 -0.0254 -0.4958
 4056TIP3    H133583   0.356   5.701  15.016  0.2403 -0.0448  0.1097
 4056TIP3    H233584   0.221   5.767  14.996 -0.1270 -0.4111  1.2533
 4057TIP3   OH233585   4.635   3.221   2.607 -0.5869 -0.5088 -0.1361
 4057TIP3    H133586   4.672   3.167   2.677 -1.8190 -2.1844 -0.7208
 4057TIP3    H233587   4.681   3.192   2.528 -0.6583 -0.0906 -0.3339
 4058TIP3   OH233588   0.151   5.646  12.377  0.4720  0.1819 -0.2596
 4058TIP3    H133589   0.138   5.704  12.452  0.9714  2.4372 -1.7820
 4058TIP3    H233590   0.240   5.613  12.387  0.2896 -0.0995  0.4843
 4059TIP3   OH233591   2.103   1.223   3.705 -0.1765  0.1785 -0.5522
 4059TIP3    H133592   2.063   1.258   3.625 -0.0515 -0.7082 -1.0093
 4059TIP3    H233593   2.174   1.284   3.725 -0.1025  0.3174 -1.2106
 4060TIP3   OH233594   3.890   3.656  15.491  0.8332 -0.0668  0.0089
 4060TIP3    H133595   3.816   3.602  15.463 -0.6411  1.4386  0.8748
 4060TIP3    H233596   3.866   3.745  15.468  1.1893  0.7915  2.6321
 4061TIP3   OH233597   1.606   1.631   2.705 -0.0685 -0.4704  0.4726
 4061TIP3    H133598   1.653   1.706   2.669 -1.6546 -0.5622 -1.9950
 4061TIP3    H233599   1.528   1.669   2.745  0.0630 -0.6599  0.9141
 4062TIP3   OH233600   3.036   3.911   2.115 -0.1487 -0.1402 -0.3049
 4062TIP3    H133601   3.063   3.821   2.093  2.1476  0.2992  0.4673
 4062TIP3    H233602   3.005   3.905   2.205  0.0723 -0.1462 -0.2290
 4063TIP3   OH233603   6.648   1.103  13.153  0.4875 -0.0798 -0.4607
 4063TIP3    H133604   6.591   1.138  13.221  0.2879  2.6178 -1.8679
 4063TIP3    H233605   6.660   1.011  13.176  0.5168  0.7039  3.2112
 4064TIP3   OH233606   5.091   3.376   5.665  0.3350  0.6882  0.8254
 4064TIP3    H133607   5.109   3.409   5.577 -0.8009  0.7913  0.6235
 4064TIP3    H233608   4.996   3.385   5.676  0.2699 -0.5694  1.5451
 4065TIP3   OH233609   5.363   2.995  12.247 -0.1549 -0.2429 -0.4580
 4065TIP3    H133610   5.305   2.992  12.323  0.3318  3.0546  0.2065
 4065TIP3    H233611   5.303   2.995  12.172 -0.8263 -0.3191  0.0695
 4066TIP3   OH233612   6.169   0.432   0.757 -0.2019 -0.1559 -0.0525
 4066TIP3    H133613   6.157   0.497   0.688  0.2281 -1.7515 -1.7123
 4066TIP3    H233614   6.098   0.369   0.743 -1.2131  0.3977  2.1394
 4067TIP3   OH233615   2.432   6.441   6.698 -0.1472  0.7856  0.1308
 4067TIP3    H133616   2.450   6.498   6.623  0.9162 -2.0272 -1.9527
 4067TIP3    H233617   2.505   6.456   6.758  0.1963  1.4908 -0.4474
 4068TIP3   OH233618   2.471   0.314   2.455 -0.8834  0.1405 -0.1943
 4068TIP3    H133619   2.495   0.287   2.366 -0.9060  3.7044 -1.4496
 4068TIP3    H233620   2.554   0.344   2.493 -0.9374 -1.0540  0.9383
 4069TIP3   OH233621   2.118   0.503  12.793  0.0877 -0.0380  0.0592
 4069TIP3    H133622   2.103   0.413  12.824  0.8593  0.3546  1.6763
 4069TIP3    H233623   2.186   0.494  12.726 -1.3107 -0.8610 -1.3183
 4070TIP3   OH233624   3.349   1.678  12.635 -0.1748 -0.2987  0.1225
 4070TIP3    H133625   3.300   1.596  12.642 -0.3816 -0.2633 -0.7323
 4070TIP3    H233626   3.424   1.667  12.693 -0.9201 -0.5593  1.0553
 4071TIP3   OH233627   0.833   3.327   5.401  0.1427  0.2432  0.6187
 4071TIP3    H133628   0.915   3.280   5.417  0.9862  1.5343  0.3466
 4071TIP3    H233629   0.811   3.367   5.485  0.8357  1.4243  0.2608
 4072TIP3   OH233630   5.808   5.987   3.440 -0.7153 -0.1149 -0.0501
 4072TIP3    H133631   5.734   5.946   3.486 -0.3147  0.8616  1.5287
 4072TIP3    H233632   5.850   6.041   3.506 -0.4253  1.8065 -1.7262
 4073TIP3   OH233633   4.130   4.787   4.665 -0.2148 -0.3378  0.6920
 4073TIP3    H133634   4.200   4.731   4.698 -0.0496  0.4137  1.6585
 4073TIP3    H233635   4.162   4.817   4.579  0.8172  0.2590  1.2581
 4074TIP3   OH233636   2.238   0.948  16.570 -0.0022  0.0948  0.2147
 4074TIP3    H133637   2.303   0.985  16.629  1.3076 -1.9966  0.1764
 4074TIP3    H233638   2.289   0.894  16.509 -1.5810  0.0589 -1.1504
 4075TIP3   OH233639   2.525   2.566   6.239  0.3470 -0.6396  0.2515
 4075TIP3    H133640   2.538   2.554   6.145 -0.0540  0.5611  0.0171
 4075TIP3    H233641   2.584   2.503   6.280 -0.7837 -2.4540 -0.7873
 4076TIP3   OH233642   1.499   5.802  13.358  0.1471  0.1492 -0.1066
 4076TIP3    H133643   1.582   5.795  13.309  0.6767 -0.3513  0.8293
 4076TIP3    H233644   1.489   5.896  13.375 -0.6255  0.4781 -2.1065
 4077TIP3   OH233645   5.685   2.537  14.552  0.4196  0.0006 -0.7576
 4077TIP3    H133646   5.739   2.466  14.517  1.1629  0.6939 -1.0607
 4077TIP3    H233647   5.748   2.596  14.593 -0.1421  0.7038 -0.8947
 4078TIP3   OH233648   4.771   3.724  13.057  0.5922  0.2915 -0.6510
 4078TIP3    H133649   4.697   3.765  13.102  1.0600  0.4189  0.0175
 4078TIP3    H233650   4.756   3.744  12.965 -1.4509 -1.6930 -0.8192
 4079TIP3   OH233651   1.121   1.445   1.161  0.7073  0.1651 -0.2326
 4079TIP3    H133652   1.030   1.426   1.138  0.3354 -0.7662  1.7747
 4079TIP3    H233653   1.159   1.480   1.080 -1.0776 -0.6056 -1.4892
 4080TIP3   OH233654   1.717   6.590   0.982 -0.2170 -0.3374  0.2467
 4080TIP3    H133655   1.717   6.679   1.019  1.6872 -0.3534  0.4002
 4080TIP3    H233656   1.680   6.535   1.051 -0.5787  0.2088  0.4970
 4081TIP3   OH233657   0.052   5.761  14.924  0.4217  0.2203  0.5207
 4081TIP3    H133658  -0.023   5.701  14.926 -0.0974  0.7473 -1.3864
 4081TIP3    H233659   0.026   5.833  14.982 -0.4054  0.2205  0.1692
 4082TIP3   OH233660   0.665   0.343   0.994  0.2477  0.0486  0.2923
 4082TIP3    H133661   0.757   0.323   0.979  0.3580  0.9738 -0.3749
 4082TIP3    H233662   0.620   0.259   0.986  0.9145 -0.2528 -0.4230
 4083TIP3   OH233663   2.127   3.554   0.944 -0.2061 -0.5618  0.6064
 4083TIP3    H133664   2.156   3.630   0.895 -4.1077  0.9407  0.2143
 4083TIP3    H233665   2.121   3.484   0.879 -0.0534 -0.1472  0.1428
 4084TIP3   OH233666   5.772   6.101   4.064 -0.0698 -0.2529 -0.4743
 4084TIP3    H133667   5.802   6.072   4.150 -2.3339  1.7346  1.1264
 4084TIP3    H233668   5.834   6.170   4.039 -1.1309  1.4190  1.1769
 4085TIP3   OH233669   2.508   0.774   2.268  0.0515 -0.3437 -0.1498
 4085TIP3    H133670   2.498   0.804   2.178  2.4692 -1.2906 -0.8337
 4085TIP3    H233671   2.534   0.682   2.259  0.4782 -0.4163  1.4897
 4086TIP3   OH233672   2.547   5.240  15.418 -0.0905  0.2713  0.1280
 4086TIP3    H133673   2.615   5.299  15.450 -0.3208  0.8487 -0.4018
 4086TIP3    H233674   2.482   5.236  15.489 -0.1191  0.7399  0.1303
 4087TIP3   OH233675   5.585   5.502  15.969  0.3241  0.8027  0.1930
 4087TIP3    H133676   5.518   5.544  16.022  0.8281 -0.2667  1.7300
 4087TIP3    H233677   5.658   5.564  15.968  0.8143  0.2955  1.8998
 4088TIP3   OH233678   5.413   5.164  12.345 -0.7106 -0.1313  0.3986
 4088TIP3    H133679   5.342   5.227  12.340 -2.1264 -1.7303 -0.8228
 4088TIP3    H233680   5.493   5.217  12.340 -1.8004  1.6538  1.1601
 4089TIP3   OH233681   6.746   4.207  15.774  0.1962 -0.1988  0.4015
 4089TIP3    H133682   6.697   4.266  15.718 -1.1293 -0.6514  1.0503
 4089TIP3    H233683   6.837   4.237  15.767 -0.1677  0.6788 -0.7856
 4090TIP3   OH233684   4.978   1.743   1.598  0.2893  0.1812 -0.3392
 4090TIP3    H133685   4.898   1.794   1.606 -0.0095 -0.6246  3.4348
 4090TIP3    H233686   4.957   1.675   1.535 -0.3661  2.5914 -2.9386
 4091TIP3   OH233687   3.386   3.077  15.795  0.0895  0.1896 -0.3366
 4091TIP3    H133688   3.378   2.985  15.770 -0.7291  0.4280 -0.9799
 4091TIP3    H233689   3.329   3.086  15.872  1.7655 -0.2926  1.0241
 4092TIP3   OH233690   3.991   0.868   1.881  0.0734 -0.4683  0.7995
 4092TIP3    H133691   3.955   0.882   1.968 -0.7139 -0.2913  0.4595
 4092TIP3    H233692   3.963   0.779   1.858 -3.0564  0.7538 -0.7568
 4093TIP3   OH233693   3.974   3.430   0.316 -1.0355  0.3345 -0.3378
 4093TIP3    H133694   3.988   3.525   0.318 -1.4333  0.3934 -0.3102
 4093TIP3    H233695   3.922   3.412   0.395  0.6991 -0.1806  0.7410
 4094TIP3   OH233696   1.259   4.266  16.704  0.5586  0.0402  0.3773
 4094TIP3    H133697   1.298   4.182  16.727 -1.2827 -1.3630 -1.3016
 4094TIP3    H233698   1.176   4.268  16.751 -0.4699 -0.1780 -1.3464
 4095TIP3   OH233699   3.277   5.709  13.317 -0.5668  0.4710 -0.0217
 4095TIP3    H133700   3.242   5.636  13.266  0.3071  0.1095 -0.1254
 4095TIP3    H233701   3.371   5.692  13.321 -0.6294  0.2475  2.0558
 4096TIP3   OH233702   6.246   0.905  14.837  0.4343  0.2810  0.2537
 4096TIP3    H133703   6.227   0.820  14.878  0.1387  0.3373  0.2418
 4096TIP3    H233704   6.308   0.886  14.768 -0.7165 -0.1587 -0.6999
 4097TIP3   OH233705   0.660   0.477   4.645 -0.0637  0.2372  0.0495
 4097TIP3    H133706   0.750   0.509   4.649 -0.1467  0.4046  0.8889
 4097TIP3    H233707   0.626   0.494   4.733 -1.3697  1.5080 -0.6576
 4098TIP3   OH233708   0.046   1.867  16.887 -0.1309 -0.4501 -0.1597
 4098TIP3    H133709   0.097   1.786  16.896 -0.4913 -0.7603 -0.8164
 4098TIP3    H233710   0.111   1.937  16.898  0.0225 -0.7960  1.3896
 4099TIP3   OH233711   1.172   0.040  11.795 -0.4933 -0.3652  0.3740
 4099TIP3    H133712   1.128   0.085  11.723  1.0867 -2.1598 -1.8708
 4099TIP3    H233713   1.226  -0.027  11.752 -0.3522 -2.3319  3.2899
 4100TIP3   OH233714   3.087   2.226   5.387  0.4126 -0.2064  0.2197
 4100TIP3    H133715   3.063   2.259   5.473 -1.7793 -0.2540 -0.3293
 4100TIP3    H233716   3.173   2.184   5.400 -0.4048 -1.2868  2.6413
 4101TIP3   OH233717   2.443   6.209  15.021 -0.7909 -0.2720 -0.6203
 4101TIP3    H133718   2.531   6.240  15.045 -0.1040 -0.8892 -2.1916
 4101TIP3    H233719   2.432   6.237  14.930 -2.1557 -0.4033 -0.5199
 4102TIP3   OH233720   6.122   4.972   5.197 -0.7366  0.0175  0.1831
 4102TIP3    H133721   6.095   4.881   5.210  0.6015 -0.6786 -1.5054
 4102TIP3    H233722   6.184   4.988   5.268 -0.8319 -0.4607  0.3797
 4103TIP3   OH233723   5.582   3.846   3.264  0.4481  0.4409  0.2191
 4103TIP3    H133724   5.553   3.914   3.203  0.8275  0.0681 -0.3893
 4103TIP3    H233725   5.678   3.852   3.264  0.4990 -0.2455 -0.0314
 4104TIP3   OH233726   2.656   5.034   0.342  0.1336  0.2419  1.0307
 4104TIP3    H133727   2.704   5.115   0.328 -0.4224  0.3669 -0.2823
 4104TIP3    H233728   2.665   5.016   0.435  1.1053  1.2747  1.1466
 4105TIP3   OH233729   1.677   4.444  16.091 -0.5401 -0.4830 -0.2964
 4105TIP3    H133730   1.687   4.391  16.012 -1.6314 -0.9347 -0.1501
 4105TIP3    H233731   1.758   4.430  16.140 -1.1193 -2.6993  0.1259
 4106TIP3   OH233732   6.397   6.085  14.139  0.0636 -0.1294  0.3137
 4106TIP3    H133733   6.421   5.993  14.129 -0.0866 -0.0382 -0.9450
 4106TIP3    H233734   6.429   6.108  14.226  1.5794 -0.9076 -0.0102
 4107TIP3   OH233735   3.369   4.703  12.671  0.2779 -0.1140  0.4637
 4107TIP3    H133736   3.378   4.647  12.593  0.0670  1.4786 -0.7551
 4107TIP3    H233737   3.277   4.695  12.696  0.0860  0.2027 -0.1217
 4108TIP3   OH233738   0.933   4.244  11.941  0.3114 -0.1453 -0.0241
 4108TIP3    H133739   0.866   4.248  11.874  0.9325 -0.2284 -0.6624
 4108TIP3    H233740   1.005   4.298  11.907  0.3399  0.4349  0.9126
 4109TIP3   OH233741   6.041   6.399   5.777 -0.4848  0.6162 -0.1950
 4109TIP3    H133742   6.117   6.418   5.722 -1.0701  1.0799 -0.8680
 4109TIP3    H233743   5.985   6.344   5.722 -0.9691  0.8804  0.0247
 4110TIP3   OH233744   0.784   4.799  13.787 -0.4484 -0.2614  0.0497
 4110TIP3    H133745   0.796   4.883  13.831 -0.3523  0.0152 -0.5079
 4110TIP3    H233746   0.777   4.820  13.694  0.8685 -0.9670 -0.2360
 4111TIP3   OH233747   0.539   1.779  12.732 -0.4560  0.6596 -0.2160
 4111TIP3    H133748   0.548   1.746  12.643  1.2335 -1.4364  0.6244
 4111TIP3    H233749   0.461   1.734  12.766 -0.4908  0.6560 -0.2993
 4112TIP3   OH233750   6.271   6.539   2.068 -0.9490 -0.6392  0.0193
 4112TIP3    H133751   6.271   6.606   2.000 -0.4657  0.1517  0.7785
 4112TIP3    H233752   6.218   6.468   2.032 -1.2219  0.0246 -0.9205
 4113TIP3   OH233753   3.228   4.452   2.103 -0.2631  0.2463  0.4631
 4113TIP3    H133754   3.241   4.422   2.193  2.1312 -1.9507 -0.5034
 4113TIP3    H233755   3.141   4.419   2.080  0.0091 -1.1589  1.2995
 4114TIP3   OH233756   3.870   6.362   3.230  0.4911 -0.2912  0.3596
 4114TIP3    H133757   3.903   6.422   3.296 -0.6533 -0.2555  0.9160
 4114TIP3    H233758   3.775   6.365   3.240  0.2967 -0.3691 -1.2098
 4115TIP3   OH233759   0.420   0.859  14.354  0.4763  0.3850  0.1644
 4115TIP3    H133760   0.505   0.819  14.337 -0.2269 -1.1007  0.0119
 4115TIP3    H233761   0.393   0.824  14.438  0.1124  1.0376  0.3280
 4116TIP3   OH233762   2.603   4.666   5.610  0.2657  0.7938 -0.0494
 4116TIP3    H133763   2.614   4.595   5.547 -1.3284 -2.2301  2.7716
 4116TIP3    H233764   2.689   4.707   5.615  1.3206 -1.0276 -1.7065
 4117TIP3   OH233765   4.506   0.393  15.534  0.1179  0.0380  0.1014
 4117TIP3    H133766   4.415   0.362  15.531  0.4627 -1.1417  1.2428
 4117TIP3    H233767   4.558   0.322  15.496  0.6926  0.1564  0.6539
 4118TIP3   OH233768   0.429   5.200  12.241 -0.0971  0.1109 -0.0151
 4118TIP3    H133769   0.415   5.284  12.198 -1.6840  1.0781  2.2173
 4118TIP3    H233770   0.512   5.211  12.288  0.3661 -0.0697 -0.7715
 4119TIP3   OH233771   0.952   1.575  16.970 -0.2129  0.5313  0.0823
 4119TIP3    H133772   1.017   1.613  17.029  0.1579 -0.3316  0.2462
 4119TIP3    H233773   0.944   1.484  16.999 -3.4451  1.2333  1.7867
 4120TIP3   OH233774   0.119   1.869   4.117  0.1644  0.2527  0.0353
 4120TIP3    H133775   0.108   1.822   4.034 -0.2979 -0.2438  0.3703
 4120TIP3    H233776   0.179   1.814   4.167  1.2849  1.0790 -0.3583
 4121TIP3   OH233777   0.323   4.010  13.880  0.3987 -0.1591  0.3907
 4121TIP3    H133778   0.295   3.988  13.791  0.3573  0.3723  0.2698
 4121TIP3    H233779   0.417   3.992  13.882  0.4842  0.2446  0.1050
 4122TIP3   OH233780   4.526   4.120   5.623  0.6993 -0.2814  0.9122
 4122TIP3    H133781   4.523   4.175   5.545  1.4761 -0.8322  0.4858
 4122TIP3    H233782   4.434   4.107   5.647  0.4201 -0.7536 -0.3616
 4123TIP3   OH233783   0.854   3.760   2.712 -0.2299 -0.9096 -0.1784
 4123TIP3    H133784   0.854   3.721   2.625 -0.2272 -0.2584 -0.4733
 4123TIP3    H233785   0.762   3.776   2.731 -0.1224  0.9763 -0.9985
 4124TIP3   OH233786   0.075   6.142   3.697 -0.5986 -0.0232  0.7650
 4124TIP3    H133787   0.125   6.212   3.655 -1.2908  0.6905  1.1091
 4124TIP3    H233788   0.131   6.064   3.689  0.5624  0.7474  1.1321
 4125TIP3   OH233789   3.816   1.981  11.357 -0.6070 -0.0306 -0.1343
 4125TIP3    H133790   3.897   1.966  11.406 -0.9390 -1.2172  0.1008
 4125TIP3    H233791   3.798   1.897  11.314  0.5976  1.3846 -3.7837
 4126TIP3   OH233792   5.396   2.990  14.314  0.3213 -0.5682  0.2192
 4126TIP3    H133793   5.454   3.063  14.335 -1.6013  0.7483  1.3127
 4126TIP3    H233794   5.376   2.950  14.398  0.5759 -1.7678 -0.2687
 4127TIP3   OH233795   1.596   3.510   5.753  0.0414  0.1298  0.1640
 4127TIP3    H133796   1.550   3.434   5.789 -0.3394 -0.3757 -1.3439
 4127TIP3    H233797   1.583   3.578   5.819  2.4391 -1.6887  2.7722
 4128TIP3   OH233798   0.667   0.337   5.351  0.3832 -0.2413  0.1007
 4128TIP3    H133799   0.597   0.312   5.291  0.8275 -0.7733 -0.2057
 4128TIP3    H233800   0.675   0.432   5.340 -0.6556 -0.0874  0.5547
 4129TIP3   OH233801   6.229   5.919  13.532 -0.3615 -0.0059  0.0759
 4129TIP3    H133802   6.178   5.838  13.537 -0.4597  0.1198  1.7691
 4129TIP3    H233803   6.266   5.919  13.444 -0.5656 -1.7575 -0.0424
 4130TIP3   OH233804   4.927   3.952   1.136  0.0108 -0.4211 -0.0246
 4130TIP3    H133805   4.876   3.937   1.215  1.3958 -0.3159  0.9366
 4130TIP3    H233806   4.974   3.870   1.121  1.5340  0.2831  0.6512
 4131TIP3   OH233807   0.931   5.227  17.264  0.0983  0.3583 -0.2053
 4131TIP3    H133808   0.945   5.188  17.178  1.4081  0.9009 -0.2468
 4131TIP3    H233809   0.955   5.319  17.254  0.7529  0.3188  0.8598
 4132TIP3   OH233810   5.967   1.779  15.023  0.2076 -0.0540 -0.4324
 4132TIP3    H133811   6.039   1.738  14.976  0.7559 -0.3580  0.6252
 4132TIP3    H233812   5.889   1.733  14.994  0.5602 -0.3898 -0.8587
 4133TIP3   OH233813   3.842   6.087  11.736  0.2731  0.3040  0.2409
 4133TIP3    H133814   3.897   6.086  11.815 -0.1710 -2.1023  0.6108
 4133TIP3    H233815   3.754   6.071  11.769  0.0490 -0.4916 -0.6917
 4134TIP3   OH233816   5.469   5.859  17.107  0.2230 -0.1996  0.2800
 4134TIP3    H133817   5.451   5.768  17.130  0.8816 -0.8634 -1.6422
 4134TIP3    H233818   5.389   5.889  17.063  0.5817 -0.4061 -0.5477
 4135TIP3   OH233819   4.030   1.786   3.842  0.2553  0.2194 -0.2897
 4135TIP3    H133820   4.058   1.877   3.830 -0.0415  0.3335 -0.1244
 4135TIP3    H233821   3.946   1.780   3.796 -1.5230  0.9840  2.5812
 4136TIP3   OH233822   5.725   0.743  10.675  0.4703  0.0394  0.1258
 4136TIP3    H133823   5.721   0.837  10.659  0.5325 -0.0209 -0.2684
 4136TIP3    H233824   5.775   0.708  10.600  0.9818 -0.2309  0.5843
 4137TIP3   OH233825   3.193   5.680  14.367  0.5080  0.8632 -0.0292
 4137TIP3    H133826   3.184   5.624  14.444 -2.3837  2.4728  0.9295
 4137TIP3    H233827   3.248   5.753  14.396  2.3394 -0.1987 -0.6156
 4138TIP3   OH233828   2.064   1.062  10.533 -0.3285 -0.5402  0.1278
 4138TIP3    H133829   2.096   0.972  10.527  0.3275 -0.3796  1.1391
 4138TIP3    H233830   2.011   1.073  10.454  0.7965 -1.3297 -0.7701
 4139TIP3   OH233831   6.649   6.581   2.857 -0.3048 -0.1162 -0.1756
 4139TIP3    H133832   6.699   6.602   2.778  2.7096 -0.8241  1.3496
 4139TIP3    H233833   6.586   6.515   2.829  1.5639 -1.3272 -1.8106
 4140TIP3   OH233834   1.888   3.761   0.849  0.3754  0.7597 -0.1479
 4140TIP3    H133835   1.850   3.717   0.774  0.0892 -0.0675  0.4686
 4140TIP3    H233836   1.951   3.823   0.812  2.2487 -1.5049 -0.9838
 4141TIP3   OH233837   1.530   5.137   2.042  0.4355 -0.2217 -0.9330
 4141TIP3    H133838   1.473   5.199   2.087  0.0880 -1.2083  0.0492
 4141TIP3    H233839   1.618   5.165   2.063  0.2878 -1.2288  1.2668
 4142TIP3   OH233840   2.334   2.142  11.676 -0.2285 -0.2690 -0.1062
 4142TIP3    H133841   2.420   2.101  11.668  0.3374  0.4751  1.7069
 4142TIP3    H233842   2.346   2.229  11.638  0.0005  0.0682  0.7373
 4143TIP3   OH233843   2.475   5.303  12.092  0.2053  0.2784 -0.4908
 4143TIP3    H133844   2.445   5.223  12.137  2.2640 -0.3530 -0.0962
 4143TIP3    H233845   2.537   5.342  12.154 -0.9080  2.3248 -0.6137
 4144TIP3   OH233846   4.495   5.919   0.314  0.1075  0.0836  0.5073
 4144TIP3    H133847   4.404   5.948   0.317 -0.3574 -1.3057  0.7853
 4144TIP3    H233848   4.518   5.902   0.406  0.9259  1.2133  0.5234
 4145TIP3   OH233849   4.410   1.331  14.495 -0.6172 -0.2365 -0.7832
 4145TIP3    H133850   4.410   1.236  14.507 -1.4693 -0.1768 -0.3021
 4145TIP3    H233851   4.449   1.366  14.575 -1.5260 -0.1127 -0.3903
 4146TIP3   OH233852   5.671   6.452   5.540  0.4513 -0.3039  0.3036
 4146TIP3    H133853   5.764   6.471   5.550  0.6518 -0.2571 -1.3501
 4146TIP3    H233854   5.627   6.507   5.605  1.5131  0.3332  0.4951
 4147TIP3   OH233855   3.371   3.938  11.224  0.0591 -0.1224 -0.0797
 4147TIP3    H133856   3.350   4.012  11.168 -1.4398 -0.2280  0.2890
 4147TIP3    H233857   3.352   3.861  11.171 -0.3296 -0.2250  0.2032
 4148TIP3   OH233858   1.507   1.482  11.817  0.4267 -0.2772  0.7966
 4148TIP3    H133859   1.467   1.407  11.861 -0.8161  0.7767  1.5373
 4148TIP3    H233860   1.485   1.557  11.873  0.6377  0.8084 -0.5256
 4149TIP3   OH233861   2.448   1.183   4.455 -0.1253  0.5691 -0.1988
 4149TIP3    H133862   2.447   1.224   4.369 -2.3820  1.4148  0.1525
 4149TIP3    H233863   2.396   1.242   4.511 -0.7093 -1.1211  1.1409
 4150TIP3   OH233864   4.521   5.268   4.993 -0.0916 -0.0454  0.2323
 4150TIP3    H133865   4.608   5.229   4.989  0.7047  1.7457 -1.9214
 4150TIP3    H233866   4.530   5.340   5.055  0.1208  0.4881 -0.4157
 4151TIP3   OH233867   4.620   2.122   2.689 -0.2084  0.5649  0.6414
 4151TIP3    H133868   4.683   2.146   2.621 -3.4643  1.3700 -2.3386
 4151TIP3    H233869   4.651   2.037   2.721  1.2419 -0.0790 -2.1687
 4152TIP3   OH233870   6.457   2.022  11.500 -0.9004 -0.3584 -0.0214
 4152TIP3    H133871   6.510   2.036  11.421 -2.3525 -1.8922 -1.3673
 4152TIP3    H233872   6.521   2.008  11.570  0.4530 -0.1416 -1.1693
 4153TIP3   OH233873   1.707   3.704   3.071 -0.9112  0.4770 -0.2737
 4153TIP3    H133874   1.636   3.707   3.135 -0.7298  0.7518 -0.0892
 4153TIP3    H233875   1.732   3.795   3.058  1.1731  0.2465  1.6209
 4154TIP3   OH233876   3.465   5.069  11.782  0.2299 -0.0243 -0.2207
 4154TIP3    H133877   3.421   5.064  11.698 -1.3451 -0.8428  0.6006
 4154TIP3    H233878   3.538   5.130  11.768 -0.3198  0.2664 -2.0083
 4155TIP3   OH233879   0.729   3.886   4.657 -0.1571 -0.0206 -0.0108
 4155TIP3    H133880   0.752   3.832   4.581  0.6661  0.1313  0.1201
 4155TIP3    H233881   0.634   3.898   4.650 -0.2488 -0.9082 -0.4208
 4156TIP3   OH233882   2.903   0.335   0.084  0.1091  0.2863 -0.9318
 4156TIP3    H133883   2.808   0.348   0.084  0.1832  0.9444 -1.6556
 4156TIP3    H233884   2.915   0.240   0.087 -0.5476  0.2224  0.4503
 4157TIP3   OH233885   2.796   2.359  14.408 -0.3215  0.1775  0.8626
 4157TIP3    H133886   2.765   2.301  14.477 -0.3204  0.8450  1.4271
 4157TIP3    H233887   2.824   2.438  14.453  0.1933  0.4113  0.1487
 4158TIP3   OH233888   4.318   3.836   6.021  0.2034 -0.5958  0.2108
 4158TIP3    H133889   4.387   3.853   6.084  0.2538  3.4235 -0.6849
 4158TIP3    H233890   4.359   3.780   5.955  0.8644 -2.7835  2.3615
 4159TIP3   OH233891   5.165   0.459  14.337  0.1784 -0.1302 -0.2068
 4159TIP3    H133892   5.095   0.501  14.386  1.2296 -0.4636  1.6886
 4159TIP3    H233893   5.138   0.367  14.331  0.8186 -0.4663  1.3727
 4160TIP3   OH233894   5.907   0.581   1.936  0.1388  0.4154  0.9428
 4160TIP3    H133895   5.856   0.622   2.007 -1.8566 -0.9047  0.3505
 4160TIP3    H233896   5.969   0.524   1.981 -0.8351 -0.1057  1.6547
 4161TIP3   OH233897   4.683   3.603   4.182 -0.1210  0.0130 -0.5396
 4161TIP3    H133898   4.754   3.578   4.242 -0.0196  0.3180 -0.5353
 4161TIP3    H233899   4.618   3.646   4.238  0.3690  1.0966 -0.7889
 4162TIP3   OH233900   4.236   0.139  15.428 -0.4927 -0.8277 -0.4610
 4162TIP3    H133901   4.218   0.093  15.511  0.2977 -1.0795 -0.4212
 4162TIP3    H233902   4.324   0.109  15.403 -0.6667 -0.6305 -1.3131
 4163TIP3   OH233903   6.088   5.402  12.758 -0.5296  0.4985 -0.8270
 4163TIP3    H133904   6.118   5.339  12.823  0.2074  1.8738  0.1963
 4163TIP3    H233905   5.999   5.424  12.786 -1.9017 -2.0822 -2.7456
 4164TIP3   OH233906   6.641   4.986  14.806  0.9307 -0.1999 -0.2231
 4164TIP3    H133907   6.688   4.902  14.802  0.2050 -0.7368  1.5165
 4164TIP3    H233908   6.667   5.023  14.890 -0.9227 -0.0266  0.3085
 4165TIP3   OH233909   4.964   1.783   0.273  0.1721  0.4320  0.1431
 4165TIP3    H133910   5.029   1.781   0.343 -2.5433  0.8979  2.8560
 4165TIP3    H233911   4.881   1.762   0.315 -1.7072  1.1058 -2.8704
 4166TIP3   OH233912   2.149   1.677  12.389 -0.0525  0.1862  0.2482
 4166TIP3    H133913   2.101   1.595  12.399  1.1985 -0.4654  1.1252
 4166TIP3    H233914   2.110   1.717  12.311 -0.6138 -1.2851 -0.2782
 4167TIP3   OH233915   1.156   1.564  11.855 -0.5478  0.3436 -0.7197
 4167TIP3    H133916   1.251   1.550  11.856 -0.7830 -1.3538 -0.1312
 4167TIP3    H233917   1.139   1.618  11.932 -0.0746  0.6364 -0.8168
 4168TIP3   OH233918   3.019   3.512   4.672  0.3718 -0.0056  0.4609
 4168TIP3    H133919   2.994   3.605   4.673  0.3251  0.0303  3.2392
 4168TIP3    H233920   2.936   3.465   4.663  0.3970  0.1796 -0.9702
 4169TIP3   OH233921   1.063   6.286  15.242 -0.1500  0.0507 -0.4349
 4169TIP3    H133922   0.976   6.284  15.201 -0.8011 -1.0496  0.9327
 4169TIP3    H233923   1.064   6.367  15.293  0.0438  0.5905 -1.2696
 4170TIP3   OH233924   3.519   2.965  12.568  0.2510  0.1162 -0.3459
 4170TIP3    H133925   3.608   2.998  12.557 -0.1498  1.5700  0.5807
 4170TIP3    H233926   3.463   3.034  12.534 -0.5840  0.1139  0.9419
 4171TIP3   OH233927   4.567   2.250  14.385 -0.3172  0.0221  0.0983
 4171TIP3    H133928   4.528   2.257  14.473 -1.1743 -1.3372 -0.1502
 4171TIP3    H233929   4.660   2.232  14.402 -0.2782  0.7250  0.7103
 4172TIP3   OH233930   2.204   5.457   3.985  0.1466  0.3035  0.2119
 4172TIP3    H133931   2.250   5.531   4.024  0.6837 -0.2720  0.7032
 4172TIP3    H233932   2.121   5.493   3.953  0.0007  0.9240  1.2711
 4173TIP3   OH233933   5.346   2.168  15.540 -0.1957  0.1837 -0.1593
 4173TIP3    H133934   5.388   2.161  15.626  0.9717 -0.0542 -0.7238
 4173TIP3    H233935   5.302   2.084  15.528  0.0446  0.0291  0.0122
 4174TIP3   OH233936   3.880   5.263  15.415  0.4058  0.2274  0.6978
 4174TIP3    H133937   3.861   5.204  15.488 -0.0549 -0.5638 -0.0394
 4174TIP3    H233938   3.797   5.268  15.366  0.8540  0.2826 -0.0835
 4175TIP3   OH233939   6.435   1.487  17.207 -0.0822  0.7349 -0.1145
 4175TIP3    H133940   6.424   1.425  17.135 -2.6863  2.8758 -1.7837
 4175TIP3    H233941   6.525   1.518  17.198  0.2736 -0.5242 -1.2026
 4176TIP3   OH233942   0.932   2.440   5.468  0.2448 -0.5655 -0.1504
 4176TIP3    H133943   1.014   2.406   5.433  0.3167 -1.7488  1.0969
 4176TIP3    H233944   0.871   2.366   5.463 -0.2501 -0.2157  0.5271
 4177TIP3   OH233945   3.357   2.061  12.588  0.1927  0.5883 -0.2865
 4177TIP3    H133946   3.423   2.002  12.625 -0.1229  0.9686  0.9123
 4177TIP3    H233947   3.358   2.041  12.494  2.5933  1.1352 -0.4588
 4178TIP3   OH233948   2.232   1.663  16.796 -0.2628 -0.1901 -0.4041
 4178TIP3    H133949   2.223   1.754  16.770  0.0387 -0.4704 -1.5623
 4178TIP3    H233950   2.227   1.614  16.714  1.3730 -1.0864 -0.0112
 4179TIP3   OH233951   1.714   5.627   0.842  0.7776 -0.9281  0.0149
 4179TIP3    H133952   1.740   5.711   0.804  0.4785 -0.6076  0.5039
 4179TIP3    H233953   1.791   5.598   0.891 -0.0364  0.4940  2.2751
 4180TIP3   OH233954   0.269   0.989   3.172  0.0327  0.2003  0.3405
 4180TIP3    H133955   0.327   0.917   3.197  1.2201  0.5063 -1.3401
 4180TIP3    H233956   0.303   1.018   3.087 -1.1503  1.9652  0.4283
 4181TIP3   OH233957   4.079   0.837  11.193  0.7008  0.0113  0.2931
 4181TIP3    H133958   4.067   0.828  11.288  1.7742  0.7031  0.5174
 4181TIP3    H233959   4.153   0.779  11.173  0.2509 -0.3971 -0.1820
 4182TIP3   OH233960   6.471   0.437  17.111 -0.1056  0.6692 -0.1676
 4182TIP3    H133961   6.465   0.530  17.134 -0.2833  0.4147  0.8560
 4182TIP3    H233962   6.543   0.404  17.165 -0.7873 -0.0302  0.3368
 4183TIP3   OH233963   4.195   0.243  11.310 -0.0352  0.1052 -0.9324
 4183TIP3    H133964   4.290   0.237  11.306  0.2236  2.9920 -1.7975
 4183TIP3    H233965   4.174   0.239  11.403  1.0293  0.2183 -0.6812
 4184TIP3   OH233966   0.225   3.646   4.518 -0.2838 -0.3292  0.8695
 4184TIP3    H133967   0.175   3.607   4.446 -0.7577 -0.6487  1.3725
 4184TIP3    H233968   0.290   3.579   4.540 -1.0856 -0.8523  1.7204
 4185TIP3   OH233969   0.143   4.359   5.446  0.1570 -0.4922 -0.2644
 4185TIP3    H133970   0.216   4.412   5.477  0.3381 -1.0356  0.2697
 4185TIP3    H233971   0.109   4.406   5.370  0.4589  0.2574  0.0566
 4186TIP3   OH233972   1.251   0.448  15.421  0.5725 -0.4087 -0.3405
 4186TIP3    H133973   1.200   0.367  15.425 -0.0610  0.0480  1.1492
 4186TIP3    H233974   1.342   0.418  15.409  0.5028 -1.4091  1.3958
 4187TIP3   OH233975   6.506   0.589   6.285 -0.2927  0.1275  0.2241
 4187TIP3    H133976   6.456   0.514   6.317 -0.5988  0.3556  0.2835
 4187TIP3    H233977   6.446   0.634   6.226  0.5644 -0.7975 -1.4128
 4188TIP3   OH233978   0.059   6.008   1.938  0.3194  0.7211 -0.1107
 4188TIP3    H133979   0.063   6.099   1.907  2.3116  0.9363  0.5833
 4188TIP3    H233980   0.151   5.984   1.952 -0.0865 -1.7709 -1.2219
 4189TIP3   OH233981   0.148   3.815   2.268  0.6013  0.3752 -0.1727
 4189TIP3    H133982   0.243   3.807   2.259  0.8288  1.9171  0.5350
 4189TIP3    H233983   0.134   3.840   2.359 -0.3339  1.8568 -0.6693
 4190TIP3   OH233984   2.900   5.310   5.346  0.1863 -0.0390 -0.2972
 4190TIP3    H133985   2.922   5.257   5.270 -1.8340 -2.5031  0.6665
 4190TIP3    H233986   2.874   5.395   5.310  0.8472 -0.5908 -2.1809
 4191TIP3   OH233987   1.630   1.334  11.578  0.3545 -1.0749  0.1894
 4191TIP3    H133988   1.584   1.263  11.535 -0.8421 -0.2327  0.0334
 4191TIP3    H233989   1.602   1.331  11.670 -0.2149 -0.4188  0.0464
 4192TIP3   OH233990   5.443   2.666  12.813  0.0149  0.0539 -0.3685
 4192TIP3    H133991   5.434   2.625  12.727  1.3406 -1.3343  0.1051
 4192TIP3    H233992   5.502   2.740  12.798  0.7109 -0.5321 -0.5588
 4193TIP3   OH233993   6.331   3.768   1.908  0.4921  0.0353 -0.6569
 4193TIP3    H133994   6.378   3.737   1.986  0.6882 -0.2627 -0.8955
 4193TIP3    H233995   6.270   3.697   1.887 -2.4146  1.6362  1.5492
 4194TIP3   OH233996   2.679   6.303   4.625  0.2718 -0.2635 -0.4242
 4194TIP3    H133997   2.766   6.283   4.662  0.5245 -0.2093 -0.9767
 4194TIP3    H233998   2.654   6.221   4.582  0.0265 -0.2894 -0.2337
 4195TIP3   OH233999   0.372   1.214   0.356  0.1050 -0.7630 -0.1312
 4195TIP3    H134000   0.330   1.299   0.340  3.1904  1.5858  2.5988
 4195TIP3    H234001   0.411   1.190   0.272  2.5703  2.7968 -0.2258
 4196TIP3   OH234002   3.964   3.269   2.708 -0.4937 -0.2042 -0.1083
 4196TIP3    H134003   3.970   3.358   2.673  0.9628 -0.8046 -1.5160
 4196TIP3    H234004   3.968   3.280   2.803  1.5273  1.1601 -0.2892
 4197TIP3   OH234005   3.349   3.992   5.011 -0.2129 -0.1415  0.0948
 4197TIP3    H134006   3.260   3.958   5.008  0.0728 -1.0662  1.3182
 4197TIP3    H234007   3.404   3.919   4.982  0.2583 -0.1054  0.8629
 4198TIP3   OH234008   5.966   2.817  13.967 -0.1056  0.3700  0.1047
 4198TIP3    H134009   5.994   2.899  14.008 -0.1303  0.4111  0.0388
 4198TIP3    H234010   5.873   2.811  13.989  0.1200 -0.1413  0.9618
 4199TIP3   OH234011   6.431   6.090  14.418 -0.0070  0.2631 -0.3398
 4199TIP3    H134012   6.507   6.037  14.392  0.5919  1.0908 -0.3145
 4199TIP3    H234013   6.462   6.140  14.494 -0.9319 -0.2050  0.3627
 4200TIP3   OH234014   0.030   6.607   4.968  0.2759  0.1017 -0.5027
 4200TIP3    H134015  -0.027   6.666   4.920 -0.2522 -0.9537 -1.2160
 4200TIP3    H234016   0.034   6.643   5.057 -0.7413  0.7064 -0.6915
 4201TIP3   OH234017   6.201   1.035   5.497  0.2956 -0.4694 -0.3923
 4201TIP3    H134018   6.141   0.963   5.514 -1.5766  1.2895  0.9888
 4201TIP3    H234019   6.187   1.056   5.404  1.3421 -2.2274 -0.9818
 4202TIP3   OH234020   1.767   2.464   2.753 -0.5747  0.0150  0.0944
 4202TIP3    H134021   1.819   2.384   2.746 -0.2489  0.1047  1.3363
 4202TIP3    H234022   1.686   2.436   2.795  0.7058  0.7593  3.3716
 4203TIP3   OH234023   5.842   1.636  13.589 -0.2414  0.0790  0.1016
 4203TIP3    H134024   5.781   1.640  13.515 -0.2254 -1.1119  0.0002
 4203TIP3    H234025   5.896   1.559  13.571 -1.4301 -1.3823  2.2308
 4204TIP3   OH234026   4.859   0.638   3.283 -0.4884  0.2628  0.0524
 4204TIP3    H134027   4.778   0.588   3.297  0.0360 -0.3969  0.8506
 4204TIP3    H234028   4.917   0.610   3.354  0.6362  0.3118 -0.8170
 4205TIP3   OH234029   1.057   6.695  12.765  0.3107  0.6877  0.1870
 4205TIP3    H134030   1.125   6.658  12.822 -1.3732 -0.5415  1.5146
 4205TIP3    H234031   1.089   6.679  12.676  1.2342 -0.9473  0.7681
 4206TIP3   OH234032   1.502   2.100  15.356  0.3912  0.1171  0.0163
 4206TIP3    H134033   1.452   2.084  15.276 -0.0403  0.2234  0.2572
 4206TIP3    H234034   1.574   2.036  15.353 -0.2225 -0.5959  0.0502
 4207TIP3   OH234035   3.297   2.229  14.385 -0.3067  0.8114  0.1188
 4207TIP3    H134036   3.239   2.219  14.460 -0.7183  2.2015  0.0074
 4207TIP3    H234037   3.376   2.268  14.420  0.0515  0.1655  0.0473
 4208TIP3   OH234038   1.584   0.292   5.738  0.3911 -0.2782 -0.3577
 4208TIP3    H134039   1.551   0.315   5.825  2.3518 -0.3219  0.4543
 4208TIP3    H234040   1.679   0.287   5.750  0.8809  1.3787 -2.8832
 4209TIP3   OH234041   0.522   4.970  12.124  0.2323 -0.6439  0.9245
 4209TIP3    H134042   0.583   4.966  12.198  1.0387 -0.4062  0.2924
 4209TIP3    H234043   0.461   5.039  12.148  1.1150  0.1633  0.9261
 4210TIP3   OH234044   3.827   5.681  12.686  0.4669  0.0999  0.8824
 4210TIP3    H134045   3.884   5.604  12.682 -0.3154 -0.4747  0.2268
 4210TIP3    H234046   3.867   5.737  12.751  1.0272 -0.9014  1.4326
 4211TIP3   OH234047   4.354   4.278   5.278  0.0359  0.8757  0.0901
 4211TIP3    H134048   4.446   4.260   5.295 -0.2682 -1.2948 -0.2746
 4211TIP3    H234049   4.307   4.203   5.314 -1.5372  1.5489 -0.4279
 4212TIP3   OH234050   1.833   6.508  15.031 -0.0717 -0.3577  0.1582
 4212TIP3    H134051   1.849   6.574  14.964  0.7360  0.5863  1.2471
 4212TIP3    H234052   1.908   6.515  15.090 -0.3155 -1.7894  0.6685
 4213TIP3   OH234053   3.410   1.117  10.899  0.3164  0.2247 -0.2051
 4213TIP3    H134054   3.502   1.106  10.921  0.2120 -1.9773 -0.6749
 4213TIP3    H234055   3.385   1.035  10.857 -1.3619  1.4887 -1.8871
 4214TIP3   OH234056   0.608   1.332  16.454 -0.1364  0.2825 -0.6719
 4214TIP3    H134057   0.630   1.243  16.480  1.7054  1.2900  1.6235
 4214TIP3    H234058   0.529   1.354  16.504 -1.8014 -0.6367 -2.7515
 4215TIP3   OH234059   5.123   3.745  12.071 -0.0908 -0.2117 -0.1318
 4215TIP3    H134060   5.052   3.707  12.122 -0.1000  0.6805  0.5395
 4215TIP3    H234061   5.079   3.794  12.001 -0.1932  1.1193  0.8313
 4216TIP3   OH234062   3.908   0.213   4.028 -0.3919  0.0336  0.3623
 4216TIP3    H134063   3.879   0.187   4.115  2.4191 -1.1553  1.0479
 4216TIP3    H234064   3.857   0.158   3.968 -0.9486 -0.5761  1.3761
 4217TIP3   OH234065   5.003   6.137   0.124  0.4065  0.2044  0.3707
 4217TIP3    H134066   5.071   6.195   0.090  0.3858  0.4825  0.8010
 4217TIP3    H234067   4.962   6.100   0.045  1.4447 -0.4335  0.1093
 4218TIP3   OH234068   5.494   2.065  16.788  0.4669  0.3192  0.5368
 4218TIP3    H134069   5.491   2.145  16.842  3.3514  1.5550 -0.9080
 4218TIP3    H234070   5.546   2.090  16.711 -3.2755 -1.3949 -2.8834
 4219TIP3   OH234071   6.112   2.509  13.726  0.4851  0.1674  0.1740
 4219TIP3    H134072   6.175   2.480  13.661  0.3871  1.2934 -0.4595
 4219TIP3    H234073   6.132   2.458  13.805  0.2558 -1.6229 -0.8767
 4220TIP3   OH234074   4.286   1.647  16.673  0.1238 -0.0696  0.7680
 4220TIP3    H134075   4.303   1.611  16.586  1.4676 -0.4704  1.1826
 4220TIP3    H234076   4.252   1.573  16.723  0.8929 -0.2575  1.0272
 4221TIP3   OH234077   2.015   2.778   0.100  0.0808 -0.4740  0.3144
 4221TIP3    H134078   1.964   2.745   0.027  0.7657 -1.0080  0.0625
 4221TIP3    H234079   2.083   2.712   0.114  3.2269  1.9111 -1.9457
 4222TIP3   OH234080   3.310   5.310  13.897  0.0212 -0.3341 -0.2705
 4222TIP3    H134081   3.400   5.343  13.892  0.1222 -0.3580  1.0451
 4222TIP3    H234082   3.303   5.273  13.985 -0.7779 -1.8458 -0.9317
 4223TIP3   OH234083   3.497   4.839   3.134 -0.4020  0.1983  0.4383
 4223TIP3    H134084   3.427   4.805   3.079 -1.1703 -0.1546  1.5976
 4223TIP3    H234085   3.492   4.934   3.123 -1.5741  0.2282  1.0975
 4224TIP3   OH234086   6.566   3.333   5.356  0.3575 -0.1038 -0.1051
 4224TIP3    H134087   6.654   3.365   5.337  2.0636 -3.3778  1.4479
 4224TIP3    H234088   6.523   3.405   5.402  2.9848  0.8771  0.9807
 4225TIP3   OH234089   3.542   2.624   1.620 -0.0466  0.1366  1.1627
 4225TIP3    H134090   3.633   2.599   1.640  0.6280  2.2653  1.0945
 4225TIP3    H234091   3.550   2.683   1.544 -1.4998  0.2903  1.1046
 4226TIP3   OH234092   5.142   2.287  15.233  0.6377  0.5475  0.8447
 4226TIP3    H134093   5.134   2.319  15.323  2.0675  1.7135  0.5853
 4226TIP3    H234094   5.098   2.353  15.181  0.3948  0.2034  0.6061
 4227TIP3   OH234095   1.527   5.446   3.347  0.3174 -0.2645 -0.2614
 4227TIP3    H134096   1.432   5.451   3.340  0.1511 -0.3929  1.4843
 4227TIP3    H234097   1.557   5.426   3.258 -1.3149 -0.8204 -0.7195
 4228TIP3   OH234098   5.012   4.278   4.980 -0.1051 -0.0396 -0.0472
 4228TIP3    H134099   5.049   4.357   5.018  0.4150  0.0899 -0.8210
 4228TIP3    H234100   4.985   4.303   4.892 -1.3813 -0.3176  0.2332
 4229TIP3   OH234101   2.264   5.089  12.936  0.5887  0.0593 -0.7507
 4229TIP3    H134102   2.299   5.047  13.014  2.5342 -2.0303 -2.5851
 4229TIP3    H234103   2.203   5.026  12.899  0.1470  0.7591 -1.2538
 4230TIP3   OH234104   1.954   3.250  12.172 -0.4629 -0.2164  0.0686
 4230TIP3    H134105   1.984   3.299  12.249  1.3595 -0.5387 -0.3921
 4230TIP3    H234106   2.022   3.185  12.157 -1.8872 -1.6387 -0.5076
 4231TIP3   OH234107   0.027   1.211   3.783  0.5385  0.3011 -1.1335
 4231TIP3    H134108  -0.036   1.165   3.727  0.2789 -0.5441 -0.1886
 4231TIP3    H234109   0.113   1.190   3.745  0.2815  1.3757 -2.3702
 4232TIP3   OH234110   3.752   4.525   0.390  0.5487  0.1408  0.2541
 4232TIP3    H134111   3.816   4.454   0.384  1.7171  0.9245  2.4879
 4232TIP3    H234112   3.716   4.517   0.478 -0.5915  1.2745 -0.0898
 4233TIP3   OH234113   6.590   1.357   3.896  0.3359 -0.0165 -0.4999
 4233TIP3    H134114   6.594   1.431   3.835  2.3292  0.9069  0.6382
 4233TIP3    H234115   6.678   1.320   3.895  0.8023  0.7207  2.5344
 4234TIP3   OH234116   2.473   2.511   5.003  0.0350 -0.2076  0.2805
 4234TIP3    H134117   2.485   2.594   4.957  0.2292 -1.0640 -1.2950
 4234TIP3    H234118   2.462   2.536   5.095 -0.2449  1.5740 -0.1902
 4235TIP3   OH234119   3.539   6.055   1.780  0.4608  0.5533  0.0290
 4235TIP3    H134120   3.543   6.150   1.771  0.9955  0.4474 -1.0544
 4235TIP3    H234121   3.507   6.040   1.869  3.3884  1.7469  1.4044
 4236TIP3   OH234122   3.680   4.598  11.557  0.0041  0.5958 -0.1973
 4236TIP3    H134123   3.670   4.636  11.470  1.5364  0.9830 -0.2488
 4236TIP3    H234124   3.591   4.588  11.591 -0.6228  0.2712 -1.8656
 4237TIP3   OH234125   5.651   6.484   4.741  0.6175 -0.0762 -0.1527
 4237TIP3    H134126   5.701   6.406   4.715  0.0193  0.3916 -3.0350
 4237TIP3    H234127   5.560   6.462   4.722  0.1982  0.6593  0.8783
 4238TIP3   OH234128   3.920   1.120  16.165 -0.3763  0.2060  0.0908
 4238TIP3    H134129   3.837   1.153  16.201 -0.1859  2.0208 -0.9807
 4238TIP3    H234130   3.917   1.145  16.073  0.5545 -1.4178 -0.4061
 4239TIP3   OH234131   1.923   1.987  16.649  0.4554 -0.4719  0.4192
 4239TIP3    H134132   1.898   2.068  16.606  1.8865 -0.1603  0.1578
 4239TIP3    H234133   1.890   1.918  16.591  1.3467 -0.0630 -0.5973
 4240TIP3   OH234134   4.573   4.328  15.323  0.4767 -0.2508  0.3185
 4240TIP3    H134135   4.594   4.376  15.403  0.5194 -0.9640  0.7418
 4240TIP3    H234136   4.616   4.244  15.334 -1.2945 -1.1754  0.5228
 4241TIP3   OH234137   0.471   0.466   0.756 -0.0956 -0.3031  0.3127
 4241TIP3    H134138   0.458   0.473   0.850 -1.4915 -1.6390  0.2455
 4241TIP3    H234139   0.566   0.472   0.745 -0.0168  1.5549  1.6142
 4242TIP3   OH234140   6.222   4.964   4.535 -0.0238  0.7331  0.1336
 4242TIP3    H134141   6.298   5.007   4.574 -0.7013  1.4245  0.7201
 4242TIP3    H234142   6.226   4.988   4.442  0.2003  1.1756  0.2551
 4243TIP3   OH234143   4.051   5.706  13.468  0.4583  0.1599  0.2475
 4243TIP3    H134144   4.093   5.641  13.525  0.1928 -0.8299 -0.6501
 4243TIP3    H234145   4.004   5.654  13.403  0.2088  1.2628 -0.4821
 4244TIP3   OH234146   5.191   2.671   2.274  0.4889  0.3416 -0.4863
 4244TIP3    H134147   5.169   2.696   2.184 -0.7351  1.6211  0.1299
 4244TIP3    H234148   5.209   2.754   2.318  2.9241 -0.3766  0.0424
 4245TIP3   OH234149   1.826   4.951   4.991 -0.2413 -0.1251 -0.5093
 4245TIP3    H134150   1.760   4.886   4.965 -0.2435 -0.2784 -0.1167
 4245TIP3    H234151   1.789   4.994   5.068 -0.4596  0.6841 -1.0560
 4246TIP3   OH234152   0.435   0.400   5.148  0.0116 -0.4906  0.5896
 4246TIP3    H134153   0.389   0.476   5.184 -2.7559 -0.6732 -2.1537
 4246TIP3    H234154   0.370   0.330   5.151  0.6731 -1.2694 -1.7799
 4247TIP3   OH234155   4.618   3.272   4.282 -0.3253  0.1437  0.7283
 4247TIP3    H134156   4.629   3.208   4.352 -2.4228 -0.0435  0.9375
 4247TIP3    H234157   4.664   3.350   4.312  0.1911 -0.4660  1.5524
 4248TIP3   OH234158   2.731   6.082  13.702  0.9182 -0.2290  0.0759
 4248TIP3    H134159   2.789   6.095  13.776  0.6380 -1.6647  0.5881
 4248TIP3    H234160   2.649   6.123  13.728  0.6922 -1.0825  0.7629
 4249TIP3   OH234161   4.547   4.805  15.547 -0.4093 -0.3892 -0.2564
 4249TIP3    H134162   4.614   4.873  15.546  0.3618 -1.1420 -0.7653
 4249TIP3    H234163   4.534   4.785  15.639 -1.2982  1.0477 -0.0201
 4250TIP3   OH234164   4.352   1.448  13.378 -0.5525  0.5875  0.3379
 4250TIP3    H134165   4.436   1.410  13.404 -1.0844 -0.5218  0.5124
 4250TIP3    H234166   4.287   1.390  13.417 -1.3916  0.9712 -0.4614
 4251TIP3   OH234167   0.197   5.283  16.655 -0.1696 -0.3484 -1.1298
 4251TIP3    H134168   0.178   5.295  16.562 -0.7203  0.1711 -0.9584
 4251TIP3    H234169   0.292   5.274  16.659 -0.2640 -2.2962 -1.9417
 4252TIP3   OH234170   5.877   4.366   1.732 -0.2565 -0.3857  0.3789
 4252TIP3    H134171   5.864   4.451   1.690 -0.8102 -0.3196  0.6751
 4252TIP3    H234172   5.953   4.328   1.688  0.8501  0.8458  1.1676
 4253TIP3   OH234173   4.900   4.727  15.649 -0.3423  1.1208  0.2744
 4253TIP3    H134174   4.915   4.822  15.640 -0.2684  1.0610 -0.2808
 4253TIP3    H234175   4.939   4.705  15.733  1.4466  1.2348 -0.4736
 4254TIP3   OH234176   5.076   0.780  16.632 -0.0915  0.3637  0.2767
 4254TIP3    H134177   5.013   0.842  16.595  1.5814  1.5876 -0.7096
 4254TIP3    H234178   5.145   0.836  16.669  0.2242 -0.9162  1.7035
 4255TIP3   OH234179   5.244   6.083  14.273 -0.4590  0.1030  0.2370
 4255TIP3    H134180   5.164   6.133  14.256 -0.0044  0.6817 -0.2116
 4255TIP3    H234181   5.315   6.143  14.252  0.1096 -0.1256  1.4338
 4256TIP3   OH234182   2.210   3.445  14.740  0.3649 -0.2234 -0.2498
 4256TIP3    H134183   2.178   3.519  14.689  0.7589  0.2267  0.1448
 4256TIP3    H234184   2.209   3.476  14.831  0.8947 -0.5682 -0.1207
 4257TIP3   OH234185   0.121   5.777  16.409  0.1877  0.3005  0.1599
 4257TIP3    H134186   0.060   5.736  16.470  1.7438 -2.7058 -0.1571
 4257TIP3    H234187   0.190   5.813  16.465  0.5499 -0.5743  0.2764
 4258TIP3   OH234188   2.365   3.895  13.672  0.3790 -0.1279 -0.7179
 4258TIP3    H134189   2.405   3.811  13.694 -2.5218 -1.6066 -0.5416
 4258TIP3    H234190   2.384   3.908  13.579  1.2591 -0.7343 -0.6306
 4259TIP3   OH234191   5.311   5.360   3.512 -0.2092 -0.6572 -0.3399
 4259TIP3    H134192   5.252   5.433   3.527  0.7568 -0.1768  1.4281
 4259TIP3    H234193   5.399   5.396   3.524  0.4799 -1.4465 -2.4878
 4260TIP3   OH234194   2.209   1.458   2.917 -0.8922  0.2334 -0.0336
 4260TIP3    H134195   2.249   1.390   2.971 -0.4337  1.4441  1.1975
 4260TIP3    H234196   2.257   1.455   2.834  1.7705  1.6085  1.3709
 4261TIP3   OH234197   5.929   4.440   0.008  0.5008  0.0026  0.4418
 4261TIP3    H134198   5.869   4.375  -0.029  0.1055 -0.0915  1.2249
 4261TIP3    H234199   5.902   4.523  -0.032  0.1756 -0.1198  0.4026
 4262TIP3   OH234200   1.677   3.018   0.470 -0.5372 -0.4600  0.1353
 4262TIP3    H134201   1.722   2.943   0.431  0.2626 -0.4348  0.9748
 4262TIP3    H234202   1.598   2.980   0.509 -0.3045 -0.8084  0.2755
 4263TIP3   OH234203   1.610   1.889   1.446 -0.4316 -0.4338  0.3405
 4263TIP3    H134204   1.578   1.979   1.447 -3.3215 -1.3824  1.2661
 4263TIP3    H234205   1.589   1.857   1.359  0.3569 -0.3306  0.1016
 4264TIP3   OH234206   3.973   3.761  13.252 -0.0328 -0.2281 -0.0951
 4264TIP3    H134207   4.047   3.712  13.216 -0.4644 -0.8539 -0.1454
 4264TIP3    H234208   3.929   3.799  13.176 -1.4679 -2.2852 -0.3687
 4265TIP3   OH234209   4.664   4.871  11.675  0.3777 -0.7992 -0.0437
 4265TIP3    H134210   4.604   4.887  11.748  0.1387 -1.5683 -0.0627
 4265TIP3    H234211   4.607   4.869  11.597  0.6996  0.5970 -0.3438
 4266TIP3   OH234212   0.967   5.590  16.437 -0.5379  0.4108  1.0315
 4266TIP3    H134213   0.997   5.501  16.453 -0.6655 -0.1965 -1.6344
 4266TIP3    H234214   1.039   5.645  16.467  0.7682 -0.7461  0.1504
 4267TIP3   OH234215   5.248   6.044   4.532  0.2306  0.1706  0.2504
 4267TIP3    H134216   5.334   6.067   4.499  0.2154  2.2222  1.4630
 4267TIP3    H234217   5.248   5.948   4.534  2.2549  0.1132 -0.2999
 4268TIP3   OH234218   6.446   0.534  11.138  0.2593  0.4029  0.4990
 4268TIP3    H134219   6.436   0.627  11.158 -1.1209  0.6893 -1.2324
 4268TIP3    H234220   6.415   0.526  11.048 -0.0392 -1.8150  0.7472
 4269TIP3   OH234221   4.395   6.059   1.952 -0.4709  0.1000 -0.8795
 4269TIP3    H134222   4.415   6.052   2.045  0.0401  1.3989 -0.8793
 4269TIP3    H234223   4.304   6.029   1.945 -0.1713 -1.0696 -0.1494
 4270TIP3   OH234224   5.538   6.210   5.417 -0.2013  0.3408 -0.3385
 4270TIP3    H134225   5.588   6.262   5.480 -0.2094  0.7297 -0.6505
 4270TIP3    H234226   5.448   6.241   5.426  0.1714  2.1194 -2.2349
 4271TIP3   OH234227   0.234   1.731   1.567  0.3751  0.2566  0.3009
 4271TIP3    H134228   0.275   1.798   1.513  0.4857 -1.0312 -1.3316
 4271TIP3    H234229   0.295   1.716   1.639  1.5423  0.2149 -0.6575
 4272TIP3   OH234230   0.110   1.991   2.246  0.1351 -0.5898  0.1993
 4272TIP3    H134231   0.062   1.931   2.190  1.4942 -2.5098  0.9679
 4272TIP3    H234232   0.120   1.944   2.329  2.1347  0.2491  0.4930
 4273TIP3   OH234233   1.372   3.362   3.488  0.1075  0.3595  0.0300
 4273TIP3    H134234   1.336   3.354   3.577  0.6507 -0.4924  0.1940
 4273TIP3    H234235   1.324   3.434   3.448 -2.1385 -1.0535  0.0488
 4274TIP3   OH234236   3.452   0.914   2.213  0.0066  0.2376 -0.1831
 4274TIP3    H134237   3.494   0.905   2.127 -0.0814  0.7324 -0.2789
 4274TIP3    H234238   3.521   0.892   2.276 -0.5601 -2.6210 -0.4067
 4275TIP3   OH234239   3.791   2.774  16.599  0.0990 -0.0438  0.0620
 4275TIP3    H134240   3.756   2.863  16.603 -1.1645 -0.5664  1.4549
 4275TIP3    H234241   3.883   2.783  16.625  0.3523  0.9965 -1.0679
 4276TIP3   OH234242   6.520   2.877  13.194  0.1453 -0.1949  0.2250
 4276TIP3    H134243   6.591   2.863  13.131 -1.3073  0.0481 -1.5544
 4276TIP3    H234244   6.557   2.936  13.259  0.9636  1.6705 -1.8246
 4277TIP3   OH234245   3.441   0.867   5.183 -0.5206  0.5090  0.2696
 4277TIP3    H134246   3.495   0.941   5.158 -0.8371  0.6467 -0.0121
 4277TIP3    H234247   3.389   0.848   5.105 -0.9444  0.4410  0.5668
 4278TIP3   OH234248   0.261   1.146   0.576 -0.4577 -0.6914 -0.0649
 4278TIP3    H134249   0.173   1.148   0.538 -0.5163  1.7230  0.0601
 4278TIP3    H234250   0.318   1.178   0.505  0.1923 -1.2730  0.1815
 4279TIP3   OH234251   5.044   1.453   4.452  0.1329 -0.1647  0.4620
 4279TIP3    H134252   5.079   1.477   4.538 -0.0272 -1.1487  0.8078
 4279TIP3    H234253   5.065   1.528   4.396 -0.5722  0.8917  1.5633
 4280TIP3   OH234254   1.007   4.875  15.041  0.2003 -0.3624 -0.2026
 4280TIP3    H134255   0.942   4.870  14.971 -2.4612  4.5544  1.4071
 4280TIP3    H234256   0.977   4.811  15.106 -0.5400 -1.0796 -1.2091
 4281TIP3   OH234257   5.096   5.757   0.892 -0.1010 -0.1546 -0.6822
 4281TIP3    H134258   5.158   5.687   0.914 -1.0151 -0.5402  0.8266
 4281TIP3    H234259   5.149   5.821   0.843  1.1990 -1.0143 -0.4584
 4282TIP3   OH234260   2.316   3.433   4.933  0.0441 -0.0431  0.1440
 4282TIP3    H134261   2.258   3.386   4.992 -0.0476 -1.4866 -1.0243
 4282TIP3    H234262   2.262   3.504   4.898 -0.2125  0.1866  0.9777
 4283TIP3   OH234263   2.460   3.271   5.110  0.1416  0.2305 -0.3197
 4283TIP3    H134264   2.443   3.340   5.174  0.2034 -0.3656  0.3515
 4283TIP3    H234265   2.437   3.310   5.026  1.4698  1.5409 -0.1226
 4284TIP3   OH234266   2.832   4.583  14.374  0.3839  0.5380  0.2493
 4284TIP3    H134267   2.922   4.603  14.350  0.1808 -0.7479 -1.8966
 4284TIP3    H234268   2.807   4.652  14.435  2.5025  1.4562  0.1616
 4285TIP3   OH234269   1.943   4.759  13.214 -0.4122  0.2286 -0.3785
 4285TIP3    H134270   1.851   4.779  13.230 -0.7787 -0.1567 -1.8739
 4285TIP3    H234271   1.970   4.821  13.146  0.4260  0.2815 -0.0217
 4286TIP3   OH234272   3.724   4.063  17.265 -0.9652 -0.2590 -0.3402
 4286TIP3    H134273   3.690   4.151  17.246  1.5880  0.8132 -0.4462
 4286TIP3    H234274   3.737   4.062  17.360  2.2891  0.9400 -0.6352
 4287TIP3   OH234275   4.945   3.313   4.476  0.3011  0.3530  0.0303
 4287TIP3    H134276   4.862   3.317   4.525  0.7752  1.2123  0.7955
 4287TIP3    H234277   5.011   3.344   4.538  0.9678  1.1842 -1.0644
 4288TIP3   OH234278   5.045   2.571  10.836  0.0983  0.4757 -0.1672
 4288TIP3    H134279   5.126   2.606  10.873  0.6020 -0.4921 -0.3103
 4288TIP3    H234280   5.002   2.647  10.797  0.5567  1.1396  0.5901
 4289TIP3   OH234281   5.643   4.622   1.773  0.0526 -0.3603  0.3766
 4289TIP3    H134282   5.553   4.640   1.796 -0.2298  0.8063 -1.4288
 4289TIP3    H234283   5.637   4.575   1.689  1.1281  0.3999 -0.1472
 4290TIP3   OH234284   5.123   5.822  17.386  0.0605  0.0301 -0.0078
 4290TIP3    H134285   5.057   5.802  17.451 -0.6113  0.4247 -0.5598
 4290TIP3    H234286   5.188   5.875  17.433 -0.4855  0.4281  0.3103
 4291TIP3   OH234287   6.399   2.272   6.734 -0.6025 -0.1979 -0.3522
 4291TIP3    H134288   6.366   2.224   6.658 -0.5260 -0.3230 -0.3066
 4291TIP3    H234289   6.473   2.324   6.700  0.0737 -1.0143 -0.1651
 4292TIP3   OH234290   4.627   1.392  16.175  0.2993 -0.4772  0.5318
 4292TIP3    H134291   4.650   1.439  16.255  1.5460  0.2444 -0.2209
 4292TIP3    H234292   4.709   1.351  16.147  0.5900  1.4483 -1.7729
 4293TIP3   OH234293   2.122   0.657  13.088 -0.1736  0.1610 -0.3911
 4293TIP3    H134294   2.206   0.633  13.126 -0.7335  1.0120  1.5245
 4293TIP3    H234295   2.125   0.624  12.998  2.8925  1.7355 -0.9870
 4294TIP3   OH234296   2.043   1.106  17.008  0.2442  0.6414  0.1234
 4294TIP3    H134297   2.085   1.020  17.009 -2.9054 -1.0949 -0.9960
 4294TIP3    H234298   2.113   1.167  16.984  2.5996 -1.5670  0.8925
 4295TIP3   OH234299   6.410   2.355  13.393  0.8487 -0.2257 -0.0053
 4295TIP3    H134300   6.490   2.310  13.420  0.7641 -1.6647 -1.9965
 4295TIP3    H234301   6.418   2.364  13.298 -1.2993 -0.3026 -0.2362
 4296TIP3   OH234302   2.765   1.837   1.355  0.1295  0.0653  0.6359
 4296TIP3    H134303   2.694   1.844   1.419  2.0967  2.9424  2.7822
 4296TIP3    H234304   2.733   1.884   1.278 -2.7520 -4.4635 -1.3618
 4297TIP3   OH234305   4.689   2.472  16.280 -0.1053 -0.3780 -0.6281
 4297TIP3    H134306   4.665   2.383  16.306 -2.3316 -0.6582 -3.1419
 4297TIP3    H234307   4.605   2.517  16.266  0.9526  1.8939 -0.2300
 4298TIP3   OH234308   0.187   0.612   4.210 -0.0703  0.0462  0.2327
 4298TIP3    H134309   0.180   0.690   4.155 -2.6551  0.0120  0.4163
 4298TIP3    H234310   0.219   0.544   4.150 -0.5389  0.5740 -0.6290
 4299TIP3   OH234311   3.183   0.019  12.561  0.3985  0.0641 -0.9810
 4299TIP3    H134312   3.169  -0.035  12.639  0.4157  0.7866 -0.4672
 4299TIP3    H234313   3.166  -0.040  12.488 -0.8959 -0.2954 -0.4268
 4300TIP3   OH234314   3.092   3.789  11.353 -0.0356 -0.3989 -0.0257
 4300TIP3    H134315   3.063   3.698  11.341 -1.0406 -0.0709 -0.1237
 4300TIP3    H234316   3.083   3.828  11.266  0.0953 -0.1187  0.0870
 4301TIP3   OH234317   2.638   1.953   3.383  0.1463  0.7381 -0.9221
 4301TIP3    H134318   2.649   1.981   3.474  0.6647  0.9287 -1.0376
 4301TIP3    H234319   2.637   1.858   3.386 -1.4216  0.7345 -0.5463
 4302TIP3   OH234320   6.295   1.153  15.407 -0.1551  0.3428 -0.3161
 4302TIP3    H134321   6.290   1.117  15.495  0.3397  1.3786  0.1464
 4302TIP3    H234322   6.381   1.127  15.375  0.1488  0.9978 -0.0329
 4303TIP3   OH234323   5.664   4.297   5.189  0.4708 -0.2420  0.3739
 4303TIP3    H134324   5.734   4.348   5.147 -0.7266  1.5361  0.4091
 4303TIP3    H234325   5.659   4.217   5.137  0.1285  1.1723 -1.9591
 4304TIP3   OH234326   5.026   1.487   2.132  0.0448 -0.0179  0.0811
 4304TIP3    H134327   5.064   1.568   2.166  0.5520 -0.0275 -0.4681
 4304TIP3    H234328   5.044   1.489   2.039 -1.9887  0.3622 -0.3614
 4305TIP3   OH234329   2.715   0.137  16.533  0.2555  0.0726 -0.4202
 4305TIP3    H134330   2.767   0.118  16.455  0.4691 -0.6241 -0.1217
 4305TIP3    H234331   2.775   0.121  16.606  0.3836  1.7589 -0.1243
 4306TIP3   OH234332   3.338   6.035   0.910  0.4642  0.2633  0.1293
 4306TIP3    H134333   3.258   5.984   0.924 -1.1717  2.7398  0.4392
 4306TIP3    H234334   3.408   5.980   0.946 -1.1965 -1.5939  0.7022
 4307TIP3   OH234335   5.886   2.375   3.679  0.0131 -0.6387 -0.1406
 4307TIP3    H134336   5.844   2.461   3.670 -0.6959 -0.9877 -0.2907
 4307TIP3    H234337   5.893   2.342   3.589  1.7173 -0.0911 -0.2375
 4308TIP3   OH234338   6.146   4.429   0.190  0.5622  0.0836 -0.5710
 4308TIP3    H134339   6.131   4.509   0.239  0.6033 -0.2601  0.0179
 4308TIP3    H234340   6.074   4.424   0.128 -0.3452 -0.2396  0.4817
 4309TIP3   OH234341   6.155   4.672  13.869  0.3823  0.1742  0.3441
 4309TIP3    H134342   6.216   4.712  13.931 -0.8305  1.7052  0.5881
 4309TIP3    H234343   6.095   4.621  13.923  0.2506  0.2641  0.2834
 4310TIP3   OH234344   3.024   6.727  13.755  0.0460 -0.1739  0.0348
 4310TIP3    H134345   3.081   6.801  13.736 -0.0786  0.4064  1.7506
 4310TIP3    H234346   3.079   6.666  13.805 -0.6581  0.1583  1.2593
 4311TIP3   OH234347   4.504   0.408   1.219  0.5733  0.7152  1.0010
 4311TIP3    H134348   4.517   0.355   1.141  1.1361 -0.2524  1.7347
 4311TIP3    H234349   4.467   0.490   1.186  0.3634  0.1487 -0.2209
 4312TIP3   OH234350   0.340   2.721  16.850  0.3133 -0.0455  0.7599
 4312TIP3    H134351   0.289   2.641  16.865  0.8742 -0.6139 -0.2919
 4312TIP3    H234352   0.368   2.747  16.938  0.6700 -1.3692  1.0678
 4313TIP3   OH234353   4.164   5.456  12.905  0.0054  0.0247  0.5979
 4313TIP3    H134354   4.216   5.456  12.985  0.2683  1.3426  0.4447
 4313TIP3    H234355   4.189   5.536  12.859 -0.4828 -0.4654 -0.5860
 4314TIP3   OH234356   2.865   5.157   3.635  0.1965  0.0922  0.1188
 4314TIP3    H134357   2.897   5.247   3.625  0.4621  0.1083  1.0409
 4314TIP3    H234358   2.937   5.111   3.677 -0.8434  0.0539  1.9852
 4315TIP3   OH234359   2.083   5.069  11.681  0.2086  0.1831  0.0341
 4315TIP3    H134360   2.149   5.098  11.743  1.0433  0.0957 -0.7816
 4315TIP3    H234361   2.083   4.974  11.688  1.2464  0.0890 -1.0069
 4316TIP3   OH234362   1.540   0.304  16.430 -0.4396 -0.2358 -0.1673
 4316TIP3    H134363   1.484   0.297  16.507  0.3551 -0.9559  0.3623
 4316TIP3    H234364   1.479   0.321  16.357 -1.4948 -2.3044  0.1595
 4317TIP3   OH234365   2.742   1.404   1.262 -0.4224 -0.1429 -0.1811
 4317TIP3    H134366   2.829   1.436   1.286  0.4942 -2.2403 -0.4965
 4317TIP3    H234367   2.714   1.351   1.337 -0.0086 -2.0420 -1.2908
 4318TIP3   OH234368   0.577   0.504   0.460  0.2851 -0.7436 -0.1353
 4318TIP3    H134369   0.628   0.526   0.382  0.1063 -2.9483 -0.9287
 4318TIP3    H234370   0.629   0.537   0.533  0.3834  1.4960 -1.1433
 4319TIP3   OH234371   1.019   2.569  12.073  1.1397  0.0708  0.0127
 4319TIP3    H134372   1.036   2.660  12.048  1.5553  0.5693  1.9583
 4319TIP3    H234373   0.943   2.574  12.130 -0.3025 -1.1249 -1.7235
 4320TIP3   OH234374   6.163   1.942  11.667  0.4313  0.7491 -0.1445
 4320TIP3    H134375   6.172   2.011  11.601 -0.5943 -0.6194 -1.7666
 4320TIP3    H234376   6.234   1.881  11.648  0.4001  0.5701  0.3032
 4321TIP3   OH234377   0.019   1.601  15.209 -0.4643  0.0182 -0.1100
 4321TIP3    H134378  -0.017   1.687  15.186  0.6327  0.7735  0.8279
 4321TIP3    H234379   0.023   1.602  15.305  0.9757 -0.4453 -0.1365
 4322TIP3   OH234380   6.124   6.372  11.015 -0.5706  0.1828 -0.1254
 4322TIP3    H134381   6.043   6.341  10.975 -0.2946 -0.3264 -0.2996
 4322TIP3    H234382   6.181   6.394  10.941 -0.2192 -0.3361 -0.0129
 4323TIP3   OH234383   1.102   3.720   2.324  0.5827 -0.1944 -0.0261
 4323TIP3    H134384   1.097   3.750   2.233  0.5020  1.6752  0.5597
 4323TIP3    H234385   1.195   3.699   2.336  0.7938  0.5473 -0.2590
 4324TIP3   OH234386   5.801   3.448  14.555 -0.4591 -0.0312 -0.2919
 4324TIP3    H134387   5.895   3.461  14.559 -0.5764  0.6181  0.7271
 4324TIP3    H234388   5.781   3.394  14.631 -0.7299 -1.4758 -1.3454
 4325TIP3   OH234389   5.313   0.991  14.003  0.4924  0.0809  0.5203
 4325TIP3    H134390   5.240   0.973  14.062 -1.0774  0.0965 -1.3165
 4325TIP3    H234391   5.304   1.084  13.983  0.9941  0.0707  0.2381
 4326TIP3   OH234392   2.476   6.154  12.926 -0.1056  0.4938  0.6397
 4326TIP3    H134393   2.411   6.152  12.856  0.5103 -0.1608  0.0670
 4326TIP3    H234394   2.508   6.064  12.932  2.7023  1.2438 -0.9957
 4327TIP3   OH234395   3.494   1.208  13.246 -0.3163  0.1379  0.3372
 4327TIP3    H134396   3.452   1.285  13.285 -1.6325 -0.7521  0.7356
 4327TIP3    H234397   3.577   1.241  13.213 -0.2784  1.4711  1.6436
 4328TIP3   OH234398   1.645   0.847  13.450  0.3301  0.7934 -0.2142
 4328TIP3    H134399   1.659   0.781  13.382 -0.1688 -0.8254  1.1897
 4328TIP3    H234400   1.734   0.876  13.473  0.6292 -0.0115 -0.2959
 4329TIP3   OH234401   5.162   5.577  16.737 -0.0444  0.1725 -0.5230
 4329TIP3    H134402   5.191   5.531  16.817  0.1268 -0.2438 -0.8215
 4329TIP3    H234403   5.091   5.634  16.767 -0.4405 -0.4766 -0.1824
 4330TIP3   OH234404   3.919   3.700   1.361  0.3970 -0.5356 -0.0316
 4330TIP3    H134405   3.846   3.726   1.416  0.5603  1.7768 -0.8026
 4330TIP3    H234406   3.963   3.782   1.338  2.3618 -1.7231 -0.7993
 4331TIP3   OH234407   4.691   3.692  15.404  0.3306 -0.4304  0.3371
 4331TIP3    H134408   4.628   3.621  15.389 -1.6944  1.2515  0.4527
 4331TIP3    H234409   4.745   3.693  15.325 -0.4213 -1.2977 -0.2073
 4332TIP3   OH234410   3.613   4.626   3.578  0.0451  0.2047 -0.2073
 4332TIP3    H134411   3.518   4.636   3.587  0.0382 -0.3737  0.5192
 4332TIP3    H234412   3.638   4.687   3.509 -0.6196  1.6644  0.7909
 4333TIP3   OH234413   1.422   6.560  14.637  0.1374 -0.4138  0.2234
 4333TIP3    H134414   1.360   6.588  14.570 -0.7089 -1.1474  0.6793
 4333TIP3    H234415   1.451   6.640  14.679  1.1276  0.1232 -1.3758
 4334TIP3   OH234416   5.052   0.841   0.972 -0.0515  0.1484  0.5973
 4334TIP3    H134417   5.122   0.809   1.029  0.1111  0.3974  0.5367
 4334TIP3    H234418   5.056   0.936   0.979  0.2027  0.1952 -0.1108
 4335TIP3   OH234419   0.231   5.983  16.891  0.9889  0.1068 -0.0891
 4335TIP3    H134420   0.166   5.978  16.960  0.7724 -0.6955 -0.3365
 4335TIP3    H234421   0.310   5.946  16.930  0.5566 -1.4422 -0.5980
 4336TIP3   OH234422   1.485   3.718  13.545  0.2007 -0.2370  0.2934
 4336TIP3    H134423   1.393   3.743  13.552 -0.7790 -2.9951 -0.9913
 4336TIP3    H234424   1.508   3.737  13.454  1.0803  0.8707  0.7295
 4337TIP3   OH234425   5.107   5.730   4.919 -0.4932 -0.0614 -0.0776
 4337TIP3    H134426   5.199   5.725   4.944  0.1109  1.4096 -1.7808
 4337TIP3    H234427   5.080   5.639   4.906  0.5316 -0.5420  1.0365
 4338TIP3   OH234428   1.919   4.343   3.297  0.6430  0.4095 -0.1960
 4338TIP3    H134429   1.973   4.266   3.281 -0.6644 -0.7299  0.6041
 4338TIP3    H234430   1.978   4.405   3.339  1.4406 -0.6286  0.2795
 4339TIP3   OH234431   3.195   0.259   0.841 -0.3137  0.1212  0.1230
 4339TIP3    H134432   3.154   0.233   0.924  0.8384 -1.0110  0.3623
 4339TIP3    H234433   3.121   0.279   0.784 -1.1582 -0.0819  1.1053
 4340TIP3   OH234434   3.103   3.888  14.514 -0.7005 -0.6420 -0.2114
 4340TIP3    H134435   3.106   3.917  14.605  0.9357 -1.7389  0.1324
 4340TIP3    H234436   3.055   3.957  14.468  1.6449  1.8913  0.8170
 4341TIP3   OH234437   1.565   1.761  14.607 -0.1606  0.4779 -0.6147
 4341TIP3    H134438   1.555   1.855  14.591  2.2304  0.7939 -0.6469
 4341TIP3    H234439   1.660   1.748  14.614 -0.5100 -1.6196  1.3910
 4342TIP3   OH234440   4.185   4.534  15.103  0.4877 -0.3696 -0.0495
 4342TIP3    H134441   4.263   4.575  15.065  0.8120 -2.2032 -1.5016
 4342TIP3    H234442   4.205   4.525  15.196  1.6078  0.0681 -0.2365
 4343TIP3   OH234443   1.361   4.209  17.034 -0.0198 -0.1958 -0.4140
 4343TIP3    H134444   1.379   4.149  16.962  1.7661 -1.4074  0.9421
 4343TIP3    H234445   1.379   4.158  17.113  2.0697  2.2365  0.8229
 4344TIP3   OH234446   5.623   6.655  16.871 -0.7852 -0.2706 -0.0823
 4344TIP3    H134447   5.559   6.694  16.930  1.0527  2.6315  0.1908
 4344TIP3    H234448   5.675   6.729  16.840  4.0488 -2.5304  1.6330
 4345TIP3   OH234449   0.093   1.096   5.211  0.0821 -0.2523 -0.1727
 4345TIP3    H134450   0.093   1.112   5.305  0.8714 -0.5710 -0.1081
 4345TIP3    H234451   0.161   1.154   5.177  0.7252 -1.0848 -0.3585
 4346TIP3   OH234452   4.479   2.038   5.179 -0.2474 -0.1338 -0.1823
 4346TIP3    H134453   4.531   2.071   5.252 -1.3426 -0.6710  0.8729
 4346TIP3    H234454   4.516   2.081   5.102  1.5333 -0.2493  0.5607
 4347TIP3   OH234455   6.017   3.005  15.703  0.3373  0.1918  0.1161
 4347TIP3    H134456   5.974   2.920  15.716 -0.3941 -0.0631 -3.0280
 4347TIP3    H234457   5.948   3.069  15.716 -0.1892 -0.0074 -1.4528
 4348TIP3   OH234458   4.877   0.472   4.871  0.4582  0.1224  0.0198
 4348TIP3    H134459   4.893   0.418   4.795  0.2120 -1.1527  0.8422
 4348TIP3    H234460   4.943   0.541   4.867 -0.2014  0.6854 -1.8757
 4349TIP3   OH234461   0.590   1.284   3.556 -0.1438 -0.3024  0.3615
 4349TIP3    H134462   0.559   1.194   3.562 -1.4267  0.0862 -0.1858
 4349TIP3    H234463   0.622   1.304   3.644 -0.8040 -0.9568  0.7573
 4350TIP3   OH234464   0.786   6.322   3.869  0.1842  0.1498 -0.5544
 4350TIP3    H134465   0.860   6.272   3.904  0.8210  0.2062 -1.7620
 4350TIP3    H234466   0.810   6.340   3.778 -1.5445 -0.2635 -1.1282
 4351TIP3   OH234467   5.559   3.097  15.028  0.1586 -0.2822 -0.0549
 4351TIP3    H134468   5.514   3.083  15.111  0.0912 -0.9606 -0.2005
 4351TIP3    H234469   5.535   3.186  15.003  0.2341 -0.0492  0.6849
 4352TIP3   OH234470   1.485   4.947  14.030 -0.1328 -0.6920 -0.2784
 4352TIP3    H134471   1.475   4.873  13.969  1.6910 -0.3301 -1.0958
 4352TIP3    H234472   1.530   4.909  14.105  0.1606 -0.5818 -0.3937
 4353TIP3   OH234473   2.497   1.544   1.999  0.4362 -0.1306  0.6897
 4353TIP3    H134474   2.403   1.563   1.997  0.5555  0.5502 -1.4997
 4353TIP3    H234475   2.505   1.460   1.954  0.9889  0.8521 -1.2032
 4354TIP3   OH234476   1.370   1.034  13.996  0.1654 -0.3741  0.3830
 4354TIP3    H134477   1.402   1.014  14.084  1.8041 -2.4776 -0.5740
 4354TIP3    H234478   1.423   1.108  13.968 -0.0886  0.0535  1.0190
 4355TIP3   OH234479   6.387   0.763  16.693  0.0922 -0.1334  0.6308
 4355TIP3    H134480   6.387   0.855  16.720  1.8848 -0.3906  1.5968
 4355TIP3    H234481   6.307   0.727  16.732  1.2274  0.1676  3.4105
 4356TIP3   OH234482   3.835   1.920   1.857 -0.0553 -0.6574 -0.0454
 4356TIP3    H134483   3.918   1.875   1.873 -0.4355 -1.3162  0.1067
 4356TIP3    H234484   3.794   1.870   1.787  0.1662  0.3242 -0.9020
 4357TIP3   OH234485   3.872   6.619  16.973  0.1652 -0.3163  0.2531
 4357TIP3    H134486   3.884   6.586  17.062  1.1955 -0.9400 -0.0989
 4357TIP3    H234487   3.879   6.541  16.918 -1.3148 -0.0734 -0.3305
 4358TIP3   OH234488   4.370   4.513  14.480 -0.1637  0.1767  0.1719
 4358TIP3    H134489   4.373   4.465  14.397  2.1217  0.9798 -0.2945
 4358TIP3    H234490   4.336   4.599  14.457 -1.7461 -0.3339  0.5243
 4359TIP3   OH234491   1.960   6.555   2.005  0.1841 -0.6533  0.2349
 4359TIP3    H134492   1.907   6.547   2.084  0.1015 -0.8602  0.1593
 4359TIP3    H234493   1.901   6.531   1.933 -0.1322  0.8580 -0.0251
 4360TIP3   OH234494   3.164   5.930  13.480  0.0446  0.1599 -0.1594
 4360TIP3    H134495   3.072   5.918  13.500 -0.4167  0.0903 -2.0705
 4360TIP3    H234496   3.174   5.897  13.390  1.7281  0.9821 -0.3331
 4361TIP3   OH234497   4.523   0.025   4.713  0.2595  0.1450 -0.4731
 4361TIP3    H134498   4.597  -0.033   4.696  0.8073  0.7808 -0.3103
 4361TIP3    H234499   4.563   0.104   4.750 -0.6245 -0.1004  1.1208
 4362TIP3   OH234500   1.105   3.709   6.144 -0.0869  0.2175 -0.1548
 4362TIP3    H134501   1.087   3.716   6.237  0.0042  2.1421 -0.2436
 4362TIP3    H234502   1.067   3.788   6.106 -0.6786 -0.8242 -1.8550
 4363TIP3   OH234503   4.327   0.856  13.782 -0.0076 -0.0065  0.2037
 4363TIP3    H134504   4.319   0.827  13.873  1.3818  0.5291  0.5136
 4363TIP3    H234505   4.267   0.799  13.733  0.4740 -1.4205  1.2167
 4364TIP3   OH234506   0.519   5.361   2.194  0.1330 -0.3794 -0.7633
 4364TIP3    H134507   0.577   5.317   2.131  1.9748  2.0545 -0.8994
 4364TIP3    H234508   0.570   5.364   2.275 -0.4928  0.3184 -0.3849
 4365TIP3   OH234509   2.951   2.453   4.636  0.2275  0.1875 -0.0466
 4365TIP3    H134510   3.023   2.509   4.665  0.2277  0.1059  0.1086
 4365TIP3    H234511   2.926   2.489   4.550 -0.2089  0.8373  0.3474
 4366TIP3   OH234512   5.188   0.601   4.047  0.1420 -0.5574 -0.2455
 4366TIP3    H134513   5.257   0.543   4.080  1.0516  0.9013  0.5181
 4366TIP3    H234514   5.226   0.642   3.969  0.3983  0.7139  0.5271
 4367TIP3   OH234515   2.371   0.580  13.299 -0.2618  0.2022  0.2947
 4367TIP3    H134516   2.391   0.490  13.323  2.3326  0.9613  1.3421
 4367TIP3    H234517   2.275   0.583  13.293 -0.4998 -2.2384  1.6306
 4368TIP3   OH234518   6.058   5.008  16.128  0.0579 -0.0182  0.6812
 4368TIP3    H134519   6.119   5.082  16.138  1.3295 -1.0068  0.4448
 4368TIP3    H234520   6.015   5.025  16.045 -0.4638  1.0161  1.1393
 4369TIP3   OH234521   6.693   0.669  15.246  0.2507 -0.7763  0.5917
 4369TIP3    H134522   6.687   0.760  15.216 -0.0134 -0.6024  1.1583
 4369TIP3    H234523   6.602   0.638  15.243  0.3747 -1.0964  0.1678
 4370TIP3   OH234524   2.756   3.113  11.940 -0.1526  0.5664  0.0605
 4370TIP3    H134525   2.786   3.058  11.869 -2.2709  0.7755 -1.0719
 4370TIP3    H234526   2.813   3.092  12.013  1.3162 -0.5238 -1.3510
 4371TIP3   OH234527   1.884   5.768  11.413  0.1095  0.1479 -0.1782
 4371TIP3    H134528   1.890   5.793  11.506 -0.2932 -0.2423 -0.0378
 4371TIP3    H234529   1.963   5.718  11.397 -0.0845 -0.2665  0.1180
 4372TIP3   OH234530   2.607   3.362   4.047 -0.1633  0.2063 -0.6834
 4372TIP3    H134531   2.655   3.417   3.984 -0.0046 -0.7304 -1.4031
 4372TIP3    H234532   2.643   3.274   4.035 -1.3295 -0.3192 -0.4960
 4373TIP3   OH234533   5.417   2.597   6.505  0.3449 -0.3495  0.0987
 4373TIP3    H134534   5.478   2.585   6.432  1.7909 -3.3916  1.6223
 4373TIP3    H234535   5.331   2.607   6.463  1.3879  0.3683 -2.0154
 4374TIP3   OH234536   5.209   4.649   0.204  0.3162 -0.2212  0.4220
 4374TIP3    H134537   5.210   4.708   0.128  0.3667 -1.1267 -0.2880
 4374TIP3    H234538   5.117   4.629   0.218  0.3258 -0.2315  0.4714
 4375TIP3   OH234539   0.953   3.181  12.674 -0.1057 -0.0654 -0.6890
 4375TIP3    H134540   0.934   3.223  12.590 -1.5319  3.0020  1.0067
 4375TIP3    H234541   1.027   3.231  12.709  1.2449 -2.0590 -0.5285
 4376TIP3   OH234542   5.524   5.596   5.317  0.3893  0.0690 -0.3095
 4376TIP3    H134543   5.464   5.572   5.246  0.6823 -0.5686 -0.3420
 4376TIP3    H234544   5.593   5.647   5.273  1.3471 -1.5302 -0.7562
 4377TIP3   OH234545   3.368   6.268  14.161  0.2634  0.2611  0.3823
 4377TIP3    H134546   3.445   6.280  14.217  0.2443  0.0161  0.4614
 4377TIP3    H234547   3.400   6.213  14.089  0.0129 -0.3438  0.7303
 4378TIP3   OH234548   3.392   1.222  15.357  0.5897 -0.8096  0.1438
 4378TIP3    H134549   3.360   1.155  15.418 -0.2057  1.5861  2.5883
 4378TIP3    H234550   3.320   1.236  15.296 -1.2577  1.0307  2.5542
 4379TIP3   OH234551   3.376   4.129  13.021 -0.3297  0.8819 -0.0335
 4379TIP3    H134552   3.296   4.177  13.000 -0.4317  0.3783 -0.8393
 4379TIP3    H234553   3.354   4.037  13.006 -0.0085  0.6097  1.0697
 4380TIP3   OH234554   2.325   5.976   1.430 -0.4503  0.5565  0.4211
 4380TIP3    H134555   2.407   6.024   1.442 -0.7466  0.9491  0.8894
 4380TIP3    H234556   2.352   5.884   1.423 -0.0656  0.5381  1.8801
 4381TIP3   OH234557   4.294   2.778  13.653  0.2626 -0.4067  0.1129
 4381TIP3    H134558   4.242   2.774  13.573  0.4815 -0.4287 -0.0294
 4381TIP3    H234559   4.244   2.729  13.718 -0.2394  0.1693  0.1690
 4382TIP3   OH234560   2.407   1.776  14.653  0.8277 -1.0203  0.2014
 4382TIP3    H134561   2.418   1.872  14.654 -1.9019 -0.6213 -0.3130
 4382TIP3    H234562   2.448   1.749  14.571  0.4253 -0.0796 -0.3365
 4383TIP3   OH234563   6.736   0.538  14.616 -0.4884  0.1843 -0.4134
 4383TIP3    H134564   6.697   0.451  14.604 -0.3770  0.0851 -0.0695
 4383TIP3    H234565   6.746   0.547  14.711 -0.4695  0.5608 -0.4507
 4384TIP3   OH234566   2.291   0.633   3.147 -0.5831 -0.4907 -0.6555
 4384TIP3    H134567   2.257   0.719   3.170  1.7425  0.7237 -1.4687
 4384TIP3    H234568   2.286   0.583   3.229  1.5647  1.6859  0.9462
 4385TIP3   OH234569   0.425   5.106   1.828 -0.1683  0.0370  0.0634
 4385TIP3    H134570   0.437   5.016   1.799 -0.0481  0.7794 -2.3551
 4385TIP3    H234571   0.430   5.101   1.924  1.1742 -2.3061 -0.0630
 4386TIP3   OH234572   1.164   3.175   4.684  0.0922  0.1743 -0.2377
 4386TIP3    H134573   1.122   3.114   4.623 -0.9781 -0.5349  1.1456
 4386TIP3    H234574   1.092   3.225   4.721  0.6971  0.4769  0.5661
 4387TIP3   OH234575   3.090   4.538   1.766  0.1327 -0.7044 -0.2302
 4387TIP3    H134576   3.040   4.531   1.685 -1.3490  1.2730  0.4339
 4387TIP3    H234577   3.100   4.447   1.796 -0.4316 -1.3641 -1.9367
 4388TIP3   OH234578   6.489   0.019  15.257  0.0936 -0.3784  0.1795
 4388TIP3    H134579   6.545  -0.035  15.313  0.8198 -1.3869 -1.4338
 4388TIP3    H234580   6.415  -0.038  15.235  0.6670 -0.6306 -1.2173
 4389TIP3   OH234581   5.593   0.812   5.425  0.5401 -0.0296 -0.4522
 4389TIP3    H134582   5.516   0.855   5.390 -0.8585 -2.8233 -1.1230
 4389TIP3    H234583   5.663   0.831   5.362  0.3971  2.2801  0.0083
 4390TIP3   OH234584   5.537   4.725   3.636  0.2351  0.5687 -0.3108
 4390TIP3    H134585   5.486   4.754   3.712 -0.3210  0.0100 -0.4616
 4390TIP3    H234586   5.475   4.675   3.584  1.2292 -1.1729  0.1112
 4391TIP3   OH234587   6.658   0.590  12.080  0.5789  0.2197 -0.3046
 4391TIP3    H134588   6.696   0.560  11.998  1.0142  0.1903 -0.0967
 4391TIP3    H234589   6.570   0.621  12.057  0.9505  0.8519 -0.8983
 4392TIP3   OH234590   5.911   0.386   2.264 -0.2777  0.0771 -0.2367
 4392TIP3    H134591   5.965   0.424   2.194  1.7514 -0.7451  0.8003
 4392TIP3    H234592   5.875   0.306   2.225 -1.0444  0.7866 -1.0370
 4393TIP3   OH234593   3.840   4.999   2.922  0.0983  0.5346  0.2573
 4393TIP3    H134594   3.935   4.984   2.914  0.1322  1.2499 -0.8641
 4393TIP3    H234595   3.833   5.092   2.947 -0.3111  0.5873 -0.0463
 4394TIP3   OH234596   0.798   4.583   2.321 -0.4161 -0.0822  0.0694
 4394TIP3    H134597   0.872   4.643   2.315 -0.7528  0.2644 -0.8374
 4394TIP3    H234598   0.748   4.613   2.396  0.0756  0.0036  0.3686
 4395TIP3   OH234599   4.348   0.074   5.216 -0.0353 -0.0825 -0.6510
 4395TIP3    H134600   4.376   0.007   5.154  0.2733  0.2869 -0.9159
 4395TIP3    H234601   4.263   0.103   5.183  1.1181  1.7050 -2.2135
 4396TIP3   OH234602   2.224   6.187  17.260 -0.3993  0.3897  0.3840
 4396TIP3    H134603   2.165   6.219  17.329 -2.0660  1.2580 -1.3394
 4396TIP3    H234604   2.231   6.093  17.276 -1.3941  0.4516  1.2868
 4397TIP3   OH234605   1.124   0.527  13.606  0.0583  0.6699  0.0929
 4397TIP3    H134606   1.057   0.459  13.612  0.4734  0.2734  0.2915
 4397TIP3    H234607   1.131   0.546  13.513 -0.9496  1.3460  0.1332
 4398TIP3   OH234608   0.982   4.845   3.909 -0.3133  0.4071  0.4968
 4398TIP3    H134609   1.053   4.785   3.932 -1.2994 -0.8177  0.4535
 4398TIP3    H234610   0.980   4.908   3.981 -0.7002 -0.9563  1.7340
 4399TIP3   OH234611   4.668   0.212  13.335 -0.0449 -0.0212  0.9148
 4399TIP3    H134612   4.616   0.258  13.401  0.3390  1.8429 -0.0019
 4399TIP3    H234613   4.695   0.281  13.274  2.5274 -1.0781  0.7215
 4400TIP3   OH234614   6.125   3.408  14.793  0.3846  0.2839  0.0364
 4400TIP3    H134615   6.132   3.405  14.698  0.7730 -1.2719  0.0851
 4400TIP3    H234616   6.048   3.354  14.813 -0.4268  1.5799  0.5659
 4401TIP3   OH234617   4.155   2.081  11.246 -0.3126  0.2231  0.0730
 4401TIP3    H134618   4.137   2.170  11.277  0.6303  0.7368 -0.7851
 4401TIP3    H234619   4.249   2.069  11.260 -0.0154  0.1609 -1.7157
 4402TIP3   OH234620   5.498   0.031  13.472 -0.2508  0.0471 -0.2971
 4402TIP3    H134621   5.499  -0.064  13.483 -3.8575 -0.2183 -0.9109
 4402TIP3    H234622   5.445   0.063  13.545 -2.0538  1.1395 -1.9910
 4403TIP3   OH234623   5.057   6.177   4.087 -0.5109  0.0719 -0.0225
 4403TIP3    H134624   4.991   6.116   4.055  0.3266 -0.7760 -0.1606
 4403TIP3    H234625   5.029   6.262   4.052 -0.3497 -0.6110 -1.9310
 4404TIP3   OH234626   5.122   5.882  10.769  0.2721  0.1756  0.0227
 4404TIP3    H134627   5.179   5.846  10.702 -0.3336 -0.5331 -0.1214
 4404TIP3    H234628   5.061   5.812  10.790 -1.4025  1.3144 -0.7830
 4405TIP3   OH234629   3.137   2.814   0.690 -0.7262 -0.4322  0.0333
 4405TIP3    H134630   3.066   2.823   0.753 -0.2791 -1.4007  0.7002
 4405TIP3    H234631   3.188   2.739   0.721 -0.7945 -1.2947 -1.7778
 4406TIP3   OH234632   1.333   2.746  13.221  0.1551  0.1311  0.2619
 4406TIP3    H134633   1.405   2.795  13.261  1.0723 -0.9143 -0.0687
 4406TIP3    H234634   1.324   2.668  13.276  1.1544 -1.1279 -1.2642
 4407TIP3   OH234635   5.791   2.844   1.032  0.0181 -0.0341 -0.2610
 4407TIP3    H134636   5.846   2.921   1.040  0.7389 -0.5987  0.4066
 4407TIP3    H234637   5.840   2.785   0.975  0.3982 -0.7554  0.7636
 4408TIP3   OH234638   5.160   2.166   3.665  0.1786  0.2270 -0.3833
 4408TIP3    H134639   5.226   2.186   3.598 -1.0604  2.6457 -0.9910
 4408TIP3    H234640   5.141   2.073   3.653  0.5698  0.3994 -2.8891
 4409TIP3   OH234641   0.616   2.514   1.870 -0.6679 -0.0249  0.4478
 4409TIP3    H134642   0.525   2.489   1.889 -0.8699 -0.0047 -0.4366
 4409TIP3    H234643   0.652   2.538   1.955 -1.4044 -0.3132  0.8578
 4410TIP3   OH234644   0.447   0.197  16.432  0.1278 -0.0556 -0.4740
 4410TIP3    H134645   0.489   0.269  16.384  0.5171 -0.4723 -0.7720
 4410TIP3    H234646   0.400   0.240  16.504  0.3667  0.4921 -0.6361
 4411TIP3   OH234647   1.684   5.000   1.559  0.2511  0.5973  0.2226
 4411TIP3    H134648   1.685   4.955   1.474 -2.2117  0.4632  0.1832
 4411TIP3    H234649   1.721   5.087   1.541  0.8991  0.1533 -0.6867
 4412TIP3   OH234650   1.201   2.330   5.413 -0.1575  0.3360  0.5239
 4412TIP3    H134651   1.198   2.270   5.488 -0.4470 -1.1688 -0.6432
 4412TIP3    H234652   1.291   2.327   5.383 -0.4122 -0.4059 -0.2058
 4413TIP3   OH234653   2.582   3.421   3.630  0.2948 -0.7718 -0.4716
 4413TIP3    H134654   2.675   3.445   3.634  0.3245 -1.0171  1.4841
 4413TIP3    H234655   2.537   3.490   3.678 -0.3021 -1.5394  0.1086
 4414TIP3   OH234656   5.940   2.702   5.771  0.3660 -0.0932  0.3853
 4414TIP3    H134657   5.935   2.722   5.864  0.9341  0.7907  0.2375
 4414TIP3    H234658   5.995   2.624   5.766  2.2990  1.1821  0.6633
 4415TIP3   OH234659   5.516   0.916  15.138 -0.2191 -0.0606  0.2296
 4415TIP3    H134660   5.584   0.915  15.206 -0.5029 -2.5440  0.5745
 4415TIP3    H234661   5.553   0.969  15.068  1.8724 -0.8914  0.6215
 4416TIP3   OH234662   4.183   6.120   1.685 -0.2927  0.1525 -0.0053
 4416TIP3    H134663   4.231   6.051   1.640 -0.1308 -0.9294  1.7243
 4416TIP3    H234664   4.156   6.081   1.768 -1.8077  1.5965  0.2542
 4417TIP3   OH234665   6.476   4.123  14.835 -0.0331 -0.2280  0.8562
 4417TIP3    H134666   6.389   4.087  14.819 -0.6833  1.1419  1.1640
 4417TIP3    H234667   6.506   4.152  14.749  0.3266 -1.1334  0.6722
 4418TIP3   OH234668   4.786   5.275   0.599 -0.5410  0.4464 -0.2103
 4418TIP3    H134669   4.804   5.248   0.509 -2.1832 -0.2202 -0.3635
 4418TIP3    H234670   4.726   5.208   0.633  0.8071  0.1277  1.7204
 4419TIP3   OH234671   0.627   2.449  14.363 -0.7358 -0.3748 -0.1472
 4419TIP3    H134672   0.634   2.511  14.436 -0.5103  0.6724 -1.0236
 4419TIP3    H234673   0.677   2.372  14.391 -0.3538  0.1555  0.6606
 4420TIP3   OH234674   0.581   2.964   1.187 -0.5161  0.1679 -0.1568
 4420TIP3    H134675   0.558   3.056   1.175 -2.6078 -0.5199 -2.0082
 4420TIP3    H234676   0.502   2.924   1.221  0.6093 -0.8719  1.3806
 4421TIP3   OH234677   3.417   0.380   2.704 -0.1532 -0.7511  0.1550
 4421TIP3    H134678   3.458   0.458   2.741  0.5926 -1.8256  1.6870
 4421TIP3    H234679   3.489   0.330   2.665 -0.8160 -0.0362 -2.1325
 4422TIP3   OH234680   4.724   3.063   1.024  0.5566 -0.2287 -0.3439
 4422TIP3    H134681   4.679   3.148   1.026  1.2880  0.1654 -0.4765
 4422TIP3    H234682   4.658   3.002   0.990 -0.2325  0.1229  0.5176
 4423TIP3   OH234683   4.965   4.589  12.348  0.8955 -0.6231 -0.4911
 4423TIP3    H134684   5.037   4.643  12.380 -0.8589  0.5349  1.7890
 4423TIP3    H234685   4.979   4.583  12.254  2.7912  1.3422 -0.4020
 4424TIP3   OH234686   4.271   2.871  12.270 -0.3383  0.0685 -0.4349
 4424TIP3    H134687   4.176   2.875  12.273 -0.3870 -1.0479 -0.1040
 4424TIP3    H234688   4.296   2.834  12.355  0.2280 -1.9567 -1.4217
 4425TIP3   OH234689   4.061   6.429  11.608  0.4711  0.5636  0.6204
 4425TIP3    H134690   4.087   6.484  11.535  1.1605 -0.8265 -0.2111
 4425TIP3    H234691   3.969   6.453  11.624  0.5507  1.4412 -0.1558
 4426TIP3   OH234692   5.363   2.425   2.185 -0.4835 -0.1104  0.2349
 4426TIP3    H134693   5.345   2.477   2.107  1.2055 -0.3366 -0.3313
 4426TIP3    H234694   5.378   2.489   2.254  2.0058  0.2431 -0.5523
 4427TIP3   OH234695   3.845   6.325  11.118  0.2176  0.7949  0.0351
 4427TIP3    H134696   3.851   6.370  11.202 -0.5138 -0.8897  1.0528
 4427TIP3    H234697   3.926   6.347  11.072  0.8367  1.3799  1.3814
 4428TIP3   OH234698   5.921   5.435   4.151  0.0523  0.1131  0.0061
 4428TIP3    H134699   5.932   5.491   4.075 -0.9992  0.0292 -0.2226
 4428TIP3    H234700   5.836   5.459   4.187  0.8311  0.6397  1.5765
 4429TIP3   OH234701   6.345   3.124  14.329 -0.1370 -0.2133  0.0217
 4429TIP3    H134702   6.348   3.036  14.290  1.6957 -0.6885  1.1095
 4429TIP3    H234703   6.382   3.182  14.262  0.8998 -0.6720  0.1751
 4430TIP3   OH234704   5.395   5.579  13.737 -0.5026  0.4306 -0.4851
 4430TIP3    H134705   5.430   5.494  13.709 -1.3627  0.0475 -0.4252
 4430TIP3    H234706   5.312   5.557  13.781 -0.0385  1.1665  0.8015
 4431TIP3   OH234707   0.641   5.908   0.973  0.1296 -0.6921  0.0383
 4431TIP3    H134708   0.731   5.934   0.995 -0.0273  0.0479 -0.1657
 4431TIP3    H234709   0.609   5.978   0.916 -1.1180 -0.0808  1.4102
 4432TIP3   OH234710   4.422   3.516   4.017  0.6807 -0.1945 -0.7429
 4432TIP3    H134711   4.518   3.524   4.014  0.6276  0.5638 -0.4803
 4432TIP3    H234712   4.391   3.571   3.945  0.4280 -0.1292 -0.5847
 4433TIP3   OH234713   2.438   5.711   0.028  0.5851 -0.1128  0.0832
 4433TIP3    H134714   2.383   5.633   0.021  0.5310 -0.1614  0.9691
 4433TIP3    H234715   2.394   5.777  -0.024 -0.3163 -0.1502  0.7824
 4434TIP3   OH234716   3.024   1.869  12.625  0.1970  0.0348 -0.4884
 4434TIP3    H134717   3.111   1.908  12.610  0.8764 -1.8123 -1.7449
 4434TIP3    H234718   2.986   1.861  12.538 -0.5387 -0.7229 -0.1065
 4435TIP3   OH234719   2.983   6.581  15.971 -0.0448 -0.1914  0.0759
 4435TIP3    H134720   2.987   6.641  16.046 -1.5828 -0.0789  0.1088
 4435TIP3    H234721   3.073   6.554  15.957  0.5098  1.1240  0.8898
 4436TIP3   OH234722   3.611   6.118  14.905  1.0780  0.2063  0.2733
 4436TIP3    H134723   3.587   6.141  14.816  0.5162  1.1952  0.6640
 4436TIP3    H234724   3.707   6.125  14.907  1.1922 -0.8174 -0.4976
 4437TIP3   OH234725   3.098   4.998  12.163  0.1198 -0.6155 -0.3408
 4437TIP3    H134726   3.157   4.986  12.088 -0.4627  0.5282 -1.0070
 4437TIP3    H234727   3.128   5.080  12.204 -0.1375 -0.7611  0.1460
 4438TIP3   OH234728   3.637   0.514  13.149  0.7100  0.5189 -0.0119
 4438TIP3    H134729   3.714   0.463  13.174 -0.2073 -0.9726 -0.1136
 4438TIP3    H234730   3.594   0.462  13.082 -0.7202  1.0038  0.4789
 4439TIP3   OH234731   3.955   0.654   2.337 -0.1028 -0.3110  0.4737
 4439TIP3    H134732   4.037   0.702   2.323  1.2494 -3.0759 -2.3863
 4439TIP3    H234733   3.960   0.625   2.428  0.9512  1.5134  1.0485
 4440TIP3   OH234734   2.275   1.077  16.193 -0.2522  0.4654 -0.1971
 4440TIP3    H134735   2.223   1.019  16.249 -0.8491  1.0597 -0.1248
 4440TIP3    H234736   2.361   1.079  16.233 -0.2869 -0.1932 -0.0725
 4441TIP3   OH234737   3.440   6.218   3.409  0.6155 -0.1200 -0.3705
 4441TIP3    H134738   3.506   6.274   3.368  0.9083  0.0507  0.3243
 4441TIP3    H234739   3.357   6.254   3.379  0.8271 -0.2638 -1.1573
 4442TIP3   OH234740   3.687   0.714  12.853  0.1922 -0.6111 -0.4143
 4442TIP3    H134741   3.621   0.676  12.796 -0.3506  0.6960 -0.6936
 4442TIP3    H234742   3.764   0.658  12.842  0.1481 -0.3236 -2.5280
 4443TIP3   OH234743   5.195   5.278  13.741  0.0124  0.0636  0.0293
 4443TIP3    H134744   5.260   5.297  13.674  0.4711 -0.2610  0.3753
 4443TIP3    H234745   5.236   5.212  13.797 -0.6230 -0.1682  0.2373
 4444TIP3   OH234746   0.255   3.969  11.981  0.1453 -0.5585  0.3369
 4444TIP3    H134747   0.203   3.903  11.936 -0.7107  0.2858  0.0368
 4444TIP3    H234748   0.269   3.934  12.069  0.8473 -1.7141 -0.2092
 4445TIP3   OH234749   2.131   6.201   6.547  0.2950  0.2493 -0.5050
 4445TIP3    H134750   2.060   6.197   6.482 -0.1637 -2.2606  0.0500
 4445TIP3    H234751   2.106   6.273   6.605 -2.5765 -1.3396  0.4300
 4446TIP3   OH234752   5.495   5.720   0.448  0.1168 -0.3404 -0.2534
 4446TIP3    H134753   5.565   5.760   0.500  0.1799  0.9311 -1.2427
 4446TIP3    H234754   5.415   5.740   0.496  0.3478 -1.2218  0.5382
 4447TIP3   OH234755   3.222   3.426  14.740 -0.5227  0.5005  0.0399
 4447TIP3    H134756   3.258   3.515  14.741  1.9337 -0.4114  1.6659
 4447TIP3    H234757   3.149   3.429  14.802 -0.3386  1.3239  0.2315
 4448TIP3   OH234758   5.736   0.154  14.800 -0.4523 -0.5137 -0.9455
 4448TIP3    H134759   5.813   0.100  14.780  0.0725 -0.4860  0.8209
 4448TIP3    H234760   5.670   0.091  14.830  0.6319 -0.2080  2.5320
 4449TIP3   OH234761   4.259   2.165   3.516  0.6665 -0.2367  0.2881
 4449TIP3    H134762   4.300   2.167   3.429  0.9985 -2.6407  0.3190
 4449TIP3    H234763   4.303   2.235   3.565  0.9286  0.7342 -1.2624
 4450TIP3   OH234764   0.561   1.391   1.040 -0.6772  0.3007  0.7403
 4450TIP3    H134765   0.565   1.298   1.062 -1.7133 -0.1828 -0.9297
 4450TIP3    H234766   0.589   1.436   1.119  0.4002 -1.4463  1.4014
 4451TIP3   OH234767   1.297   1.540   4.327  0.4570 -0.0437 -0.4372
 4451TIP3    H134768   1.204   1.564   4.327  0.3768 -0.2149  1.3652
 4451TIP3    H234769   1.343   1.624   4.335  0.4510  0.0125 -0.9623
 4452TIP3   OH234770   1.586   1.027   3.079 -0.1240  0.2008 -0.0367
 4452TIP3    H134771   1.678   1.029   3.053 -0.5665 -0.6053 -1.7742
 4452TIP3    H234772   1.584   0.973   3.158  0.7967 -0.3820 -0.4039
 4453TIP3   OH234773   4.666   3.868   5.753 -0.0430 -0.3283  0.5260
 4453TIP3    H134774   4.640   3.814   5.678  0.7280 -0.4624  0.3520
 4453TIP3    H234775   4.583   3.902   5.788 -0.3356  1.2593 -1.5029
 4454TIP3   OH234776   6.157   5.954  12.248 -0.1132  1.0629  0.6832
 4454TIP3    H134777   6.092   5.991  12.188  0.5012 -0.0754 -0.7845
 4454TIP3    H234778   6.239   5.955  12.197  0.7306  1.2800  2.0128
 4455TIP3   OH234779   1.068   3.540   0.779  0.3890 -0.2978  0.7224
 4455TIP3    H134780   1.155   3.510   0.750 -0.2550 -0.1848 -1.4798
 4455TIP3    H234781   1.016   3.460   0.783  0.4438 -0.3034  1.6021
 4456TIP3   OH234782   3.262   3.831  15.774  0.6103 -1.1438  0.0763
 4456TIP3    H134783   3.282   3.741  15.747 -0.7905 -0.4350 -4.0096
 4456TIP3    H234784   3.172   3.826  15.808  0.9308 -1.3975  0.9266
 4457TIP3   OH234785   0.206   5.465   0.947  0.1134 -0.3667 -0.1263
 4457TIP3    H134786   0.112   5.449   0.954  0.2376 -1.1207 -0.0795
 4457TIP3    H234787   0.237   5.398   0.887  0.5000  0.3904 -0.7841
 4458TIP3   OH234788   2.099   4.086   2.359 -0.5942 -0.0042  0.0239
 4458TIP3    H134789   2.037   4.141   2.407  0.7198 -0.2022  2.0578
 4458TIP3    H234790   2.119   4.135   2.279 -1.4934  1.1806  0.5057
 4459TIP3   OH234791   6.582   2.557  12.952 -0.5004  0.4125  0.6002
 4459TIP3    H134792   6.630   2.638  12.939 -2.1793  1.2629 -0.7936
 4459TIP3    H234793   6.564   2.526  12.863 -2.6538  0.2659  1.0299
 4460TIP3   OH234794   5.070   3.715   0.657  0.4058 -0.4718  0.0317
 4460TIP3    H134795   5.018   3.657   0.712  0.2362 -0.9716 -0.6434
 4460TIP3    H234796   5.069   3.799   0.702 -1.2192 -0.3892 -0.1132
 4461TIP3   OH234797   0.859   3.241  13.422 -0.7584 -0.6979  0.2098
 4461TIP3    H134798   0.897   3.270  13.505  0.5269  2.0772 -1.1981
 4461TIP3    H234799   0.899   3.156  13.405  0.4077 -0.4440  1.5543
 4462TIP3   OH234800   0.340   1.757  13.897  0.2850  0.4236  0.4538
 4462TIP3    H134801   0.247   1.741  13.912  0.4582 -0.2568  0.8591
 4462TIP3    H234802   0.380   1.753  13.984  0.6343  1.1494  0.3360
 4463TIP3   OH234803   2.114   0.188  11.382 -0.0919 -0.2524 -0.2081
 4463TIP3    H134804   2.025   0.158  11.402  0.1843 -0.8680  0.1234
 4463TIP3    H234805   2.136   0.144  11.299 -0.9618  1.7308 -1.5715
 4464TIP3   OH234806   3.243   4.047   4.188  0.2400  0.1594  0.0195
 4464TIP3    H134807   3.202   4.131   4.167  2.6162  1.3422 -0.2575
 4464TIP3    H234808   3.232   4.038   4.283 -0.4555  0.5345 -0.0165
 4465TIP3   OH234809   2.994   2.037  15.207  0.2970 -0.1048  0.3442
 4465TIP3    H134810   2.927   2.008  15.268  1.4153  1.5363  2.4867
 4465TIP3    H234811   2.946   2.060  15.127 -1.5237 -0.1350  1.3855
 4466TIP3   OH234812   3.186   6.114  13.703 -0.4881 -0.2241 -0.1512
 4466TIP3    H134813   3.273   6.148  13.685 -0.4650 -0.1121  0.1574
 4466TIP3    H234814   3.169   6.051  13.633 -0.6030  0.5410 -0.8278
 4467TIP3   OH234815   0.148   6.752   0.136  0.6592 -0.2355  0.1953
 4467TIP3    H134816   0.086   6.679   0.134  3.2841 -2.6083 -0.8988
 4467TIP3    H234817   0.141   6.793   0.050  0.7641 -0.6731 -0.0251
 4468TIP3   OH234818   0.323   1.307  11.372 -0.3621 -0.2884 -0.4793
 4468TIP3    H134819   0.392   1.364  11.339  0.5162 -0.7266  0.5261
 4468TIP3    H234820   0.259   1.366  11.411  0.6276  0.0317  0.7243
 4469TIP3   OH234821   4.095   6.325  15.292  0.0295  0.4321  0.4218
 4469TIP3    H134822   4.013   6.368  15.316 -0.5338 -0.8868  0.9541
 4469TIP3    H234823   4.068   6.247  15.244  1.0783  1.4416 -1.9469
 4470TIP3   OH234824   5.415   4.761   1.555  0.5116  0.5278  0.1373
 4470TIP3    H134825   5.479   4.695   1.527 -1.0405 -0.4835 -1.1765
 4470TIP3    H234826   5.334   4.736   1.512 -0.9041  1.5607  2.0635
 4471TIP3   OH234827   3.761   4.206   1.563  0.0213 -0.2165 -0.4762
 4471TIP3    H134828   3.745   4.112   1.571 -1.4284 -0.1628 -2.0981
 4471TIP3    H234829   3.728   4.243   1.645 -0.4379 -1.0143 -0.2943
 4472TIP3   OH234830   3.052   6.383  11.937  0.3197 -0.2556 -0.5716
 4472TIP3    H134831   2.963   6.358  11.961  0.0963 -0.2079 -1.3258
 4472TIP3    H234832   3.106   6.307  11.960  0.0221 -0.4545 -0.5337
 4473TIP3   OH234833   3.052   0.772  14.909 -0.2846  0.7875 -0.2865
 4473TIP3    H134834   3.085   0.692  14.949  0.1321  1.2731  0.3847
 4473TIP3    H234835   2.958   0.772  14.929 -0.2815  0.4677 -0.2787
 4474TIP3   OH234836   0.998   2.699   5.336  0.9444  0.3044  0.0805
 4474TIP3    H134837   1.085   2.688   5.373  1.7092 -1.8742 -2.1449
 4474TIP3    H234838   0.961   2.611   5.334  0.3359  0.5321 -2.6588
 4475TIP3   OH234839   1.219   6.324  13.103 -0.1100  0.0195  0.2539
 4475TIP3    H134840   1.250   6.391  13.042  2.0105 -0.9174  0.2091
 4475TIP3    H234841   1.238   6.359  13.190 -1.0048  0.3854  0.3040
 4476TIP3   OH234842   2.659   3.914   4.657  0.0866 -0.4954  0.4342
 4476TIP3    H134843   2.629   3.833   4.699  1.8136 -0.4404  1.8793
 4476TIP3    H234844   2.629   3.984   4.715 -0.7419 -0.1068 -0.4205
 4477TIP3   OH234845   6.688   2.098   6.261  0.5401  0.3102  0.1450
 4477TIP3    H134846   6.736   2.150   6.325  0.1588  0.1241  0.5806
 4477TIP3    H234847   6.597   2.105   6.287  0.5117 -0.8972  0.4412
 4478TIP3   OH234848   3.697   1.508   1.052 -0.3194 -0.1954 -0.7619
 4478TIP3    H134849   3.769   1.492   1.113 -0.7301 -0.7269 -0.4076
 4478TIP3    H234850   3.674   1.600   1.064 -1.4159 -0.6594  1.0171
 4479TIP3   OH234851   6.380   2.827   3.741  0.0836  0.1498 -0.4069
 4479TIP3    H134852   6.372   2.899   3.805  1.6380  1.5764 -1.7186
 4479TIP3    H234853   6.291   2.814   3.709 -0.3524  1.0030  0.3941
 4480TIP3   OH234854   0.833   3.060  12.051 -0.6291  0.2412 -0.3912
 4480TIP3    H134855   0.807   3.018  11.969  0.5919  0.1033 -0.7146
 4480TIP3    H234856   0.871   3.143  12.024  1.6492 -0.6688 -0.1544
 4481TIP3   OH234857   2.086   2.322  14.512 -0.8149  0.1181  0.0452
 4481TIP3    H134858   2.043   2.236  14.512 -0.2774 -0.1617  0.4969
 4481TIP3    H234859   2.097   2.343  14.605  0.8988 -0.2919 -0.0297
 4482TIP3   OH234860   2.323   1.269   3.063 -0.5450 -0.6167 -0.0600
 4482TIP3    H134861   2.361   1.181   3.063 -0.3862 -0.5510  0.4460
 4482TIP3    H234862   2.323   1.296   3.155  1.9482  0.9986 -0.4409
 4483TIP3   OH234863   5.854   5.910  16.048 -0.0032 -0.1636 -0.5506
 4483TIP3    H134864   5.946   5.932  16.031  0.6870 -1.3707  1.3049
 4483TIP3    H234865   5.809   5.994  16.051  1.9476  0.9474  3.2161
 4484TIP3   OH234866   5.379   3.615  16.330 -0.6582 -0.4530 -0.7680
 4484TIP3    H134867   5.388   3.710  16.340  4.1095 -0.8608  1.1683
 4484TIP3    H234868   5.418   3.596  16.245  2.3178 -0.8454  0.5572
 4485TIP3   OH234869   3.761   2.625   6.313  0.3759  0.3056 -0.0362
 4485TIP3    H134870   3.718   2.688   6.255  0.8896  1.0111  0.3273
 4485TIP3    H234871   3.739   2.655   6.401  0.2336 -0.3087  0.1398
 4486TIP3   OH234872   0.962   4.423  16.703 -0.4804 -0.2365 -0.2784
 4486TIP3    H134873   0.883   4.378  16.735 -0.0873  0.4906  1.8755
 4486TIP3    H234874   1.009   4.449  16.782  1.9433 -0.6059 -1.4986
 4487TIP3   OH234875   4.548   6.098  15.178 -0.0955 -0.3645  0.5443
 4487TIP3    H134876   4.566   6.035  15.109 -1.7529 -2.0148  1.5416
 4487TIP3    H234877   4.452   6.106  15.179  0.0039  1.0818  1.3968
 4488TIP3   OH234878   4.859   3.845   6.005 -0.0515  0.8297  0.3378
 4488TIP3    H134879   4.771   3.808   5.999  0.4091 -0.2547 -0.1211
 4488TIP3    H234880   4.907   3.781   6.057  1.2557 -0.2301 -2.0243
 4489TIP3   OH234881   0.580   5.252  14.667 -0.8521 -0.1648 -0.0119
 4489TIP3    H134882   0.596   5.180  14.729 -2.5113 -0.9319 -0.4445
 4489TIP3    H234883   0.668   5.275  14.636 -0.2328 -1.6771  0.4859
 4490TIP3   OH234884   6.435   4.751   4.431 -0.6075 -0.4940 -0.5996
 4490TIP3    H134885   6.467   4.666   4.461 -0.4872 -0.5214 -0.7989
 4490TIP3    H234886   6.359   4.769   4.486 -0.4447 -0.5827 -0.3454
 4491TIP3   OH234887   0.265   0.016   0.393 -0.1095  0.2993  0.0290
 4491TIP3    H134888   0.321   0.091   0.375 -0.0072  0.4124  0.8031
 4491TIP3    H234889   0.224  -0.004   0.309 -0.4689  1.4908 -0.0901
 4492TIP3   OH234890   2.870   2.902   5.919 -0.1889  0.0449  0.5965
 4492TIP3    H134891   2.948   2.894   5.864 -0.5010 -0.4816  0.2212
 4492TIP3    H234892   2.850   2.996   5.919 -0.0928  0.0697 -0.0688
 4493TIP3   OH234893   2.265   5.913  17.333  0.3890 -0.4004 -0.4741
 4493TIP3    H134894   2.226   5.859  17.402 -0.3065 -1.0425 -1.3522
 4493TIP3    H234895   2.227   5.880  17.252  1.6448 -0.0502 -1.2284
 4494TIP3   OH234896   2.781   3.862   1.969  0.2190 -0.1410 -0.1109
 4494TIP3    H134897   2.864   3.908   1.981  0.0856 -0.1891  1.0882
 4494TIP3    H234898   2.756   3.881   1.878  2.4270 -1.5825 -1.1166
 4495TIP3   OH234899   5.944   1.960   2.147  0.0849  0.2339 -0.4887
 4495TIP3    H134900   5.912   1.896   2.084 -1.5708 -1.1057  1.5843
 4495TIP3    H234901   6.007   1.912   2.200  1.3684  1.3096 -0.9895
 4496TIP3   OH234902   6.100   4.990  15.139 -0.1102  0.3818  0.0318
 4496TIP3    H134903   6.175   4.960  15.087  0.2886 -0.3126  0.9703
 4496TIP3    H234904   6.059   4.910  15.171  0.1738  0.7788  1.4824
 4497TIP3   OH234905   5.616   3.445  15.218  0.2457 -0.0461 -0.3716
 4497TIP3    H134906   5.602   3.360  15.260  0.0808  0.0263 -0.2781
 4497TIP3    H234907   5.702   3.437  15.177  1.4966  0.6730  1.9516
 4498TIP3   OH234908   2.774   6.559  16.709  0.1716  0.9050  0.8733
 4498TIP3    H134909   2.815   6.646  16.711 -0.3198  1.2042 -0.6574
 4498TIP3    H234910   2.681   6.577  16.717  0.1296  0.4551  1.3896
 4499TIP3   OH234911   0.453   1.096  13.217 -0.8268 -0.3102  0.2993
 4499TIP3    H134912   0.474   1.118  13.308  0.8214  1.0212 -0.3639
 4499TIP3    H234913   0.462   1.179  13.169 -1.0196 -1.1143 -1.1935
 4500TIP3   OH234914   0.955   2.190  16.812 -0.1194  0.3534 -0.2595
 4500TIP3    H134915   0.964   2.283  16.836 -1.3507  0.5913 -0.6415
 4500TIP3    H234916   0.888   2.157  16.872 -1.2372  0.2657 -1.5210
 4501TIP3   OH234917   0.624   4.024   1.984  0.0090 -0.1704  0.7846
 4501TIP3    H134918   0.687   4.030   2.056  0.5681  2.5254  0.1638
 4501TIP3    H234919   0.540   4.010   2.028  0.4044  0.8725  1.9491
 4502TIP3   OH234920   3.485   6.008   2.068 -0.5554  0.5661 -0.1411
 4502TIP3    H134921   3.409   6.057   2.099 -0.3261  1.4661 -0.9545
 4502TIP3    H234922   3.470   5.919   2.099 -0.3370  1.3702  2.5458
 4503TIP3   OH234923   1.587   0.901   3.323 -0.0040  0.1910 -0.4457
 4503TIP3    H134924   1.553   0.947   3.400  1.5430  1.9629 -0.7595
 4503TIP3    H234925   1.655   0.844   3.358 -1.1931 -1.1604 -0.2020
 4504TIP3   OH234926   4.465   5.564  11.910 -0.2423 -0.3959  0.0197
 4504TIP3    H134927   4.479   5.535  11.820  2.4330 -2.7153  1.0453
 4504TIP3    H234928   4.444   5.658  11.902 -2.3118 -0.9633 -3.0655
 4505TIP3   OH234929   1.803   0.385  16.458  0.8122 -0.4077 -0.0601
 4505TIP3    H134930   1.712   0.355  16.450  0.0814  1.3944  0.9728
 4505TIP3    H234931   1.831   0.398  16.367 -1.1207  2.1399 -0.4147
 4506TIP3   OH234932   4.822   1.498   5.930  0.0017  0.4344 -0.2139
 4506TIP3    H134933   4.876   1.460   5.860 -2.0063 -0.3302 -1.4475
 4506TIP3    H234934   4.883   1.514   6.001  1.8960 -0.1003 -1.6281
 4507TIP3   OH234935   5.131   3.718  16.129 -0.1743  0.3755 -0.0742
 4507TIP3    H134936   5.183   3.796  16.108  1.6259 -1.2137 -1.8934
 4507TIP3    H234937   5.167   3.686  16.212  0.3678  0.4161 -0.2927
 4508TIP3   OH234938   5.458   5.929   0.754 -0.7747 -0.2647 -0.0894
 4508TIP3    H134939   5.495   6.016   0.748 -1.7000  0.3063  1.6433
 4508TIP3    H234940   5.511   5.885   0.822 -1.8209 -0.1832  0.8103
 4509TIP3   OH234941   1.006   1.299  15.402 -0.6475 -0.1099 -0.2065
 4509TIP3    H134942   0.969   1.355  15.470 -2.2380 -1.1637 -0.1674
 4509TIP3    H234943   0.962   1.326  15.321 -0.3940 -0.3519 -0.4301
 4510TIP3   OH234944   5.438   2.543  13.038  0.8220 -0.4872  0.0844
 4510TIP3    H134945   5.431   2.624  12.987  0.9385  1.4582  2.9260
 4510TIP3    H234946   5.522   2.506  13.011  1.0126  0.5846 -0.9254
 4511TIP3   OH234947   2.233   3.603   5.529  0.1158  0.2224 -0.6357
 4511TIP3    H134948   2.221   3.679   5.586 -0.4926 -0.3339 -0.0005
 4511TIP3    H234949   2.281   3.540   5.582  1.0733  0.3313 -1.3302
 4512TIP3   OH234950   1.518   5.249   1.786 -0.5410  0.0869 -0.3472
 4512TIP3    H134951   1.484   5.197   1.859 -1.0636 -1.0331 -1.3663
 4512TIP3    H234952   1.448   5.247   1.720  0.6692 -0.5052 -1.6473
 4513TIP3   OH234953   2.074   0.546   0.287 -0.4804 -0.0781  0.2623
 4513TIP3    H134954   1.988   0.564   0.324  0.2381  3.0009  0.7530
 4513TIP3    H234955   2.057   0.523   0.196 -1.8614 -0.3485  0.5724
 4514TIP3   OH234956   5.028   4.939  13.908  0.2613 -0.5078 -1.0857
 4514TIP3    H134957   5.072   4.868  13.861  2.0013 -0.1707 -0.0504
 4514TIP3    H234958   5.094   5.008  13.913 -0.4269  0.0833  0.4021
 4515TIP3   OH234959   1.949   4.845  16.405  0.3534 -0.0623 -0.2431
 4515TIP3    H134960   1.965   4.828  16.498  0.4239 -0.6648 -0.3624
 4515TIP3    H234961   1.934   4.940  16.400  0.2399 -0.0446  0.3972
 4516TIP3   OH234962   3.530   4.823   1.619 -0.0297 -0.7054 -0.7950
 4516TIP3    H134963   3.517   4.733   1.650 -0.9660 -0.0982  0.6711
 4516TIP3    H234964   3.549   4.873   1.698 -0.0481  0.4894 -1.5283
 4517TIP3   OH234965   0.911   1.211  15.825  0.0937  0.4732 -0.0591
 4517TIP3    H134966   0.914   1.190  15.918 -2.2013  2.5557  0.6124
 4517TIP3    H234967   0.842   1.278  15.818 -0.2399 -0.0488 -3.3491
 4518TIP3   OH234968   1.295   4.040  11.764 -0.2826 -0.0966  0.0371
 4518TIP3    H134969   1.339   3.968  11.718 -0.1059  1.0322 -1.6618
 4518TIP3    H234970   1.346   4.051  11.844  2.1754  0.6780 -1.5071
 4519TIP3   OH234971   5.414   4.998   2.336  0.2615 -1.0147  0.4802
 4519TIP3    H134972   5.505   4.969   2.348  0.6361 -0.6909 -1.2902
 4519TIP3    H234973   5.376   4.933   2.276 -0.0014  0.0501 -0.5391
 4520TIP3   OH234974   0.857   4.869  14.619 -0.6647  0.0390 -0.8238
 4520TIP3    H134975   0.844   4.964  14.616  0.3337  0.4296  2.5603
 4520TIP3    H234976   0.951   4.858  14.602 -0.8200 -0.4021 -1.4300
 4521TIP3   OH234977   2.526   0.167   3.561  0.5507 -0.5004  0.1159
 4521TIP3    H134978   2.608   0.119   3.568  1.5603  0.9207 -1.4434
 4521TIP3    H234979   2.545   0.253   3.596  0.0394  0.1696 -1.1887
 4522TIP3   OH234980   5.474   2.381  15.034  0.4864 -0.1615 -0.2207
 4522TIP3    H134981   5.514   2.463  15.004 -0.9909  0.6330 -0.0909
 4522TIP3    H234982   5.509   2.369  15.122  0.9128  0.1864 -0.3357
 4523TIP3   OH234983   0.202   2.829   2.793  0.3438  0.1096 -0.0953
 4523TIP3    H134984   0.172   2.846   2.704  1.4607 -0.0824 -0.5206
 4523TIP3    H234985   0.234   2.738   2.791  3.8655  1.2208 -0.5316
 4524TIP3   OH234986   2.338   4.053  12.610  0.0326 -0.6422 -0.5381
 4524TIP3    H134987   2.332   4.141  12.648  2.3900 -0.3194 -0.7240
 4524TIP3    H234988   2.422   4.019  12.643 -0.7567 -2.7765 -0.5896
 4525TIP3   OH234989   2.405   6.629  10.643  0.2272 -0.2163  0.3774
 4525TIP3    H134990   2.492   6.598  10.615 -0.1876 -0.4573 -0.7204
 4525TIP3    H234991   2.421   6.717  10.676  0.7676  0.1310 -0.7394
 4526TIP3   OH234992   4.465   4.675   0.865 -0.2065 -0.2097 -0.5953
 4526TIP3    H134993   4.451   4.746   0.802 -1.1768  0.5706  0.4564
 4526TIP3    H234994   4.396   4.612   0.846  0.3712 -0.6547 -1.2285
 4527TIP3   OH234995   2.453   3.268  16.155 -0.0496  0.5872  0.1911
 4527TIP3    H134996   2.362   3.240  16.156 -0.3969  1.6803  0.1159
 4527TIP3    H234997   2.499   3.200  16.105 -0.3555 -1.2841  2.2847
 4528TIP3   OH234998   3.004   1.475  12.102  0.0067  0.6181 -0.0389
 4528TIP3    H134999   3.029   1.519  12.183 -1.2962  1.0028  0.1712
 4528TIP3    H235000   2.912   1.495  12.090  0.3328  1.2202 -2.0439
 4529TIP3   OH235001   3.103   4.047   0.775  0.1841 -0.2196  0.5397
 4529TIP3    H135002   3.096   4.050   0.871  0.0157 -0.3357  0.5315
 4529TIP3    H235003   3.024   4.002   0.747 -0.7312  1.5085  0.2204
 4530TIP3   OH235004   6.007   5.764  13.132 -0.3227  0.2101  0.1820
 4530TIP3    H135005   6.002   5.669  13.144 -1.1139  0.2651  0.3442
 4530TIP3    H235006   5.972   5.800  13.213 -1.3410  0.6207 -0.4218
 4531TIP3   OH235007   6.107   0.823   2.159 -0.7560  0.3814 -0.3247
 4531TIP3    H135008   6.129   0.752   2.099 -0.5155 -0.5994  0.8896
 4531TIP3    H235009   6.191   0.866   2.176 -0.4859 -0.5246  0.7547
 4532TIP3   OH235010   3.594   1.571   5.566  0.3272 -0.2857 -0.1598
 4532TIP3    H135011   3.684   1.602   5.579  0.3036 -0.6505  1.0105
 4532TIP3    H235012   3.547   1.600   5.644 -0.4678 -0.4895 -0.5552
 4533TIP3   OH235013   1.336   4.361  12.527 -0.2725 -0.1328 -0.6098
 4533TIP3    H135014   1.266   4.310  12.485  1.0657 -1.5241 -1.2553
 4533TIP3    H235015   1.417   4.318  12.499  1.0130  2.6570 -1.6533
 4534TIP3   OH235016   3.517   6.307   5.880  0.0209 -0.2089  0.2541
 4534TIP3    H135017   3.538   6.217   5.905  1.7634  0.6712  2.2080
 4534TIP3    H235018   3.432   6.324   5.921  0.2719 -0.5834  0.9517
 4535TIP3   OH235019   3.165   1.803   3.437 -0.5402  0.2452 -0.7468
 4535TIP3    H135020   3.197   1.893   3.431  0.4475 -0.1057 -1.0108
 4535TIP3    H235021   3.213   1.757   3.368 -0.9794 -0.5023 -0.5577
 4536TIP3   OH235022   2.650   5.987   5.915  0.7304 -0.0722 -0.5235
 4536TIP3    H135023   2.714   6.054   5.938 -0.2349  0.8976 -0.6059
 4536TIP3    H235024   2.576   6.035   5.877 -0.7331 -0.9820  1.0128
 4537TIP3   OH235025   5.778   2.227  11.896 -0.2525 -0.2941 -0.1971
 4537TIP3    H135026   5.707   2.190  11.949 -1.3316  0.6092 -0.9666
 4537TIP3    H235027   5.825   2.151  11.863  0.6971 -0.9059  2.2922
 4538TIP3   OH235028   1.792   1.789   0.136  0.1140 -0.6974 -0.3260
 4538TIP3    H135029   1.841   1.753   0.063 -0.7789 -1.4102 -0.5867
 4538TIP3    H235030   1.713   1.734   0.142 -0.8171  0.6072 -0.1360
 4539TIP3   OH235031   4.036   5.470  11.953 -0.5529  0.1472  0.0614
 4539TIP3    H135032   4.087   5.412  11.897 -0.9366 -1.1546  1.0130
 4539TIP3    H235033   4.100   5.510  12.011 -0.2173  1.1344 -0.9458
 4540TIP3   OH235034   5.311   3.272  12.350  0.0644 -0.2033  0.0956
 4540TIP3    H135035   5.245   3.318  12.298 -0.0070  0.4215  0.7273
 4540TIP3    H235036   5.364   3.226  12.285  0.1528  0.7980 -0.5625
 4541TIP3   OH235037   2.779   4.047  17.208 -0.3434  0.3233  0.1929
 4541TIP3    H135038   2.700   4.097  17.230  0.5620  0.9168  2.2880
 4541TIP3    H235039   2.789   3.986  17.281 -0.0832 -1.3179 -1.1604
 4542TIP3   OH235040   1.595   4.942  13.667  0.4511  0.3157  0.4127
 4542TIP3    H135041   1.604   4.890  13.587  0.6562  0.5764  0.2647
 4542TIP3    H235042   1.524   4.900  13.715  0.7432 -0.2132  0.3816
 4543TIP3   OH235043   5.473   6.699   3.837  0.5858  0.2834 -0.0234
 4543TIP3    H135044   5.449   6.750   3.915  2.1407  1.3019 -0.1806
 4543TIP3    H235045   5.505   6.764   3.774 -0.0662 -0.5876 -1.3187
 4544TIP3   OH235046   2.982   5.614  12.789  0.0084  0.6044  0.4171
 4544TIP3    H135047   3.033   5.676  12.843  1.8727 -2.3185  2.2884
 4544TIP3    H235048   2.900   5.604  12.837  0.3095  0.5458  0.9368
 4545TIP3   OH235049   3.235   3.928   0.144 -0.0639 -0.4672 -0.5057
 4545TIP3    H135050   3.252   3.883   0.062 -0.6233 -0.5863 -0.5580
 4545TIP3    H235051   3.149   3.970   0.132  0.7450  1.2170 -0.7279
 4546TIP3   OH235052   2.712   6.671  13.317  0.4604 -0.5844  0.4122
 4546TIP3    H135053   2.749   6.689  13.231 -1.5298  0.9696 -0.2048
 4546TIP3    H235054   2.756   6.732  13.376 -0.3615  0.5644 -0.1291
 4547TIP3   OH235055   3.545   5.766  14.583  0.2617  0.3873  0.0159
 4547TIP3    H135056   3.539   5.800  14.672 -0.4734 -0.0996  0.1587
 4547TIP3    H235057   3.480   5.817  14.534  1.3641  1.3669 -0.4915
 4548TIP3   OH235058   1.849   1.017   2.974 -0.0724  0.4388  0.4497
 4548TIP3    H135059   1.901   1.090   3.007  1.0595 -0.2315  0.1954
 4548TIP3    H235060   1.910   0.966   2.921 -1.3664  0.4329 -1.0962
 4549TIP3   OH235061   3.236   0.776   3.141  0.3500 -0.1720 -0.0370
 4549TIP3    H135062   3.286   0.852   3.169  0.6301  0.5948 -2.4451
 4549TIP3    H235063   3.157   0.778   3.196  1.0729  0.9058  1.0136
 4550TIP3   OH235064   3.237   4.801   1.788 -0.2170 -0.2309  0.3353
 4550TIP3    H135065   3.215   4.823   1.879  0.7979 -0.9680  0.7718
 4550TIP3    H235066   3.232   4.706   1.785  1.5611 -0.3459  0.1210
 4551TIP3   OH235067   1.510   3.041   4.469  0.4773 -0.0724 -0.2339
 4551TIP3    H135068   1.504   2.954   4.508  1.2720 -0.4082 -0.8042
 4551TIP3    H235069   1.582   3.033   4.406  1.7278  1.4697  0.9296
 4552TIP3   OH235070   6.749   4.074   0.876 -0.1404  0.2897 -0.1499
 4552TIP3    H135071   6.666   4.104   0.840 -1.0502 -0.8445  0.9400
 4552TIP3    H235072   6.812   4.087   0.805 -1.5058 -0.1299 -1.4813
 4553TIP3   OH235073   5.611   3.857   2.272 -0.3380  0.2092  0.3096
 4553TIP3    H135074   5.667   3.805   2.213  1.3229 -0.8167  2.6259
 4553TIP3    H235075   5.639   3.947   2.258  1.7594 -0.2410  1.1186
 4554TIP3   OH235076   0.457   1.825  14.169 -0.5732  1.1284 -0.0472
 4554TIP3    H135077   0.420   1.790  14.250 -0.7195  0.6660 -0.3122
 4554TIP3    H235078   0.528   1.882  14.198  0.3395 -0.1748  0.3487
 4555TIP3   OH235079   3.714   1.585   3.556 -0.5842  0.0605  0.4758
 4555TIP3    H135080   3.649   1.574   3.625  0.1904  1.5923  1.5107
 4555TIP3    H235081   3.759   1.667   3.578  1.6230 -0.8749 -0.2280
 4556TIP3   OH235082   4.046   0.213   0.842 -0.8182  0.4881 -0.2153
 4556TIP3    H135083   4.058   0.289   0.785  0.8672 -0.0435 -0.6230
 4556TIP3    H235084   4.096   0.233   0.920 -0.3624 -0.1954 -0.3231
 4557TIP3   OH235085   4.797   3.438  13.054  0.3028  0.4292  0.3332
 4557TIP3    H135086   4.824   3.529  13.042  1.7538 -0.0066  0.0527
 4557TIP3    H235087   4.840   3.410  13.134 -2.6944  0.8765  2.2465
 4558TIP3   OH235088   4.241   0.471  12.914 -0.0201  0.1722 -0.2362
 4558TIP3    H135089   4.253   0.507  12.826  0.4986 -0.8895 -0.6173
 4558TIP3    H235090   4.244   0.548  12.971  1.0426  0.7523 -1.0185
 4559TIP3   OH235091   0.456   4.785   2.463 -0.2398 -0.3879  0.6956
 4559TIP3    H135092   0.405   4.801   2.384 -0.7218 -0.8212  0.9120
 4559TIP3    H235093   0.398   4.810   2.535  0.1499 -0.1106  0.9195
 4560TIP3   OH235094   2.441   0.542   1.109 -0.0849  0.3444  0.1556
 4560TIP3    H135095   2.347   0.561   1.109  0.2187  2.0787 -0.2514
 4560TIP3    H235096   2.455   0.486   1.032 -0.6207  1.1806 -0.5764
 4561TIP3   OH235097   2.382   4.864  15.439 -0.0964  0.5111 -0.4388
 4561TIP3    H135098   2.446   4.801  15.473 -1.4047 -1.3388 -1.1712
 4561TIP3    H235099   2.298   4.819  15.450 -1.0979  2.2101 -0.9191
 4562TIP3   OH235100   2.045   5.889   5.706  0.0351  0.2637 -0.0155
 4562TIP3    H135101   2.028   5.975   5.746 -1.0310 -0.5913  1.4973
 4562TIP3    H235102   1.984   5.884   5.633  0.2983  0.8977 -0.2844
 4563TIP3   OH235103   6.372   3.074  16.953  0.0073  0.3311 -0.1917
 4563TIP3    H135104   6.435   3.145  16.962  2.0269 -1.4727  0.4229
 4563TIP3    H235105   6.363   3.037  17.040  0.2832 -1.2340 -0.7947
 4564TIP3   OH235106   2.812   3.671   1.284 -0.1136  0.2932  0.1561
 4564TIP3    H135107   2.875   3.744   1.276 -1.5589  1.5248 -0.3679
 4564TIP3    H235108   2.762   3.692   1.363 -1.2533  0.4360 -0.5978
 4565TIP3   OH235109   3.763   5.814  13.482  0.0379  0.2820 -0.4688
 4565TIP3    H135110   3.764   5.784  13.573 -0.3706 -1.4972 -1.0035
 4565TIP3    H235111   3.852   5.801  13.451  0.6165  2.4623  0.0999
 4566TIP3   OH235112   4.871   5.008  14.430 -0.6254  0.5560  0.0018
 4566TIP3    H135113   4.874   5.042  14.519 -1.2949  1.0065 -0.1392
 4566TIP3    H235114   4.867   4.913  14.441 -0.0746  0.5812  0.4349
 4567TIP3   OH235115   1.722   0.255   3.738  0.3821  0.0062  0.6910
 4567TIP3    H135116   1.652   0.215   3.686  2.5069 -2.6168 -0.4043
 4567TIP3    H235117   1.717   0.210   3.822  1.3976 -1.0606  0.2121
 4568TIP3   OH235118   0.660   1.085   3.140 -0.1486 -0.2918  0.5588
 4568TIP3    H135119   0.597   1.019   3.168  0.0265  0.5607  3.2506
 4568TIP3    H235120   0.701   1.115   3.221  0.8296  2.0797 -0.7113
 4569TIP3   OH235121   6.474   0.731  14.382 -0.0270 -0.6773  0.0955
 4569TIP3    H135122   6.380   0.741  14.367  0.2456  1.7804 -0.3605
 4569TIP3    H235123   6.510   0.714  14.295  0.2547  1.6680 -0.3028
 4570TIP3   OH235124   1.317   0.240   2.321  0.4443  0.6065 -0.2491
 4570TIP3    H135125   1.345   0.172   2.259 -1.5306  1.7964 -2.5919
 4570TIP3    H235126   1.399   0.272   2.360  1.5227 -2.1458 -0.0308
 4571TIP3   OH235127   3.617   2.688  13.858  0.0222 -0.2022  0.3559
 4571TIP3    H135128   3.529   2.669  13.826  0.3342 -0.4500 -0.3966
 4571TIP3    H235129   3.624   2.784  13.853  0.2110 -0.2545 -0.7885
 4572TIP3   OH235130   6.023   2.694  15.485  0.1058  0.2406 -0.1326
 4572TIP3    H135131   6.081   2.649  15.424 -1.1500 -0.7738 -0.6444
 4572TIP3    H235132   6.044   2.787  15.475  1.8931 -0.1244  0.0193
 4573TIP3   OH235133   6.582   2.316  16.137  0.0786  1.4973  0.2260
 4573TIP3    H135134   6.562   2.339  16.227 -0.2432  1.4638  0.1675
 4573TIP3    H235135   6.542   2.230  16.125  2.0039  0.4941  0.6956
 4574TIP3   OH235136   0.590   4.298  16.497  1.1307 -0.8392 -0.1403
 4574TIP3    H135137   0.675   4.278  16.459  1.1532  2.0318 -1.9300
 4574TIP3    H235138   0.607   4.371  16.557 -0.0061 -0.2843 -0.4579
 4575TIP3   OH235139   2.525   4.282  16.820 -0.1887  0.0849 -0.3160
 4575TIP3    H135140   2.436   4.310  16.799 -0.4171 -0.2557  0.1984
 4575TIP3    H235141   2.549   4.222  16.750 -0.5758 -0.2646 -0.1529
 4576TIP3   OH235142   5.877   6.199  12.029 -0.2339  0.1253  0.0794
 4576TIP3    H135143   5.906   6.116  11.992  0.2224  0.2831  0.0643
 4576TIP3    H235144   5.823   6.239  11.961 -0.8775 -0.3828  0.2830
 4577TIP3   OH235145   4.336   0.266   2.195  0.2280 -0.6383  0.3544
 4577TIP3    H135146   4.408   0.261   2.132  0.2458 -0.7512  0.3848
 4577TIP3    H235147   4.278   0.195   2.171 -0.2895 -0.0493 -0.1855
 4578TIP3   OH235148   2.689   4.623  10.575  0.1631 -0.3726 -0.1658
 4578TIP3    H135149   2.663   4.690  10.512 -1.7390 -0.2955  0.6239
 4578TIP3    H235150   2.613   4.614  10.633  0.8998 -2.2292  0.5865
 4579TIP3   OH235151   2.931   3.080  17.249  0.0670 -0.0508  0.0369
 4579TIP3    H135152   2.898   3.169  17.240  0.2889 -0.0794 -1.3429
 4579TIP3    H235153   2.876   3.028  17.190  1.0674 -0.5115 -0.5159
 4580TIP3   OH235154   6.602   5.290  13.457 -0.0984  0.2353 -0.0852
 4580TIP3    H135155   6.545   5.266  13.384 -0.0067  0.5615 -0.2658
 4580TIP3    H235156   6.558   5.364  13.500  0.1207  0.4018 -0.1446
 4581TIP3   OH235157   3.375   3.939  12.485 -0.7100  0.1702  0.3586
 4581TIP3    H135158   3.444   3.951  12.420 -0.9475  0.7969  0.2175
 4581TIP3    H235159   3.381   3.847  12.510  0.2163  0.2376  0.3937
 4582TIP3   OH235160   3.395   3.081  15.054  0.0013 -0.1552  0.0009
 4582TIP3    H135161   3.479   3.033  15.051 -0.1105 -0.3122 -0.9320
 4582TIP3    H235162   3.418   3.170  15.027  0.2850  0.4642  2.1627
 4583TIP3   OH235163   5.052   5.552   0.604  0.0158 -0.4801  0.4057
 4583TIP3    H135164   5.030   5.478   0.660  0.3041 -0.9490 -0.0970
 4583TIP3    H235165   5.101   5.611   0.661 -0.5594 -0.4827  0.9182
 4584TIP3   OH235166   4.666   4.739  10.876  0.2907  0.2772  0.2026
 4584TIP3    H135167   4.647   4.663  10.822 -1.9016  1.0631 -0.2283
 4584TIP3    H235168   4.716   4.798  10.818 -0.4876  0.3521 -0.4152
 4585TIP3   OH235169   4.819   5.831   4.317 -0.3508  0.2155 -0.6676
 4585TIP3    H135170   4.753   5.765   4.296  0.1883 -0.4486 -0.3003
 4585TIP3    H235171   4.849   5.862   4.231 -0.6320  0.0088 -0.8426
 4586TIP3   OH235172   2.681   6.239   6.056 -0.5283  0.0169 -0.5063
 4586TIP3    H135173   2.587   6.240   6.073 -0.3180  0.2309  0.8063
 4586TIP3    H235174   2.720   6.256   6.142  0.7323 -1.3253 -0.7866
 4587TIP3   OH235175   5.186   0.798   5.382 -0.1777  0.2689 -0.1487
 4587TIP3    H135176   5.222   0.716   5.347 -0.0462 -0.2978  1.2619
 4587TIP3    H235177   5.216   0.865   5.320  1.7621 -0.4235 -0.0235
 4588TIP3   OH235178   0.783   6.732   0.071  0.4112 -0.4275  0.8834
 4588TIP3    H135179   0.688   6.743   0.075  0.1699 -0.3410 -2.5681
 4588TIP3    H235180   0.809   6.715   0.162 -3.1177 -2.3785  1.7043
 4589TIP3   OH235181   3.435   6.607   3.963 -0.0309 -0.2791 -0.1433
 4589TIP3    H135182   3.379   6.538   3.999  2.7448 -3.1148 -0.8463
 4589TIP3    H235183   3.397   6.688   3.996 -1.9838 -2.2550  2.9669
 4590TIP3   OH235184   4.196   0.089   2.525  0.1434  0.2327 -0.2526
 4590TIP3    H135185   4.192  -0.007   2.529  1.7157  0.1293 -0.2345
 4590TIP3    H235186   4.288   0.107   2.503  0.0075  1.7590  0.3572
 4591TIP3   OH235187   3.299   5.341  16.145 -0.3270  0.2862 -0.2003
 4591TIP3    H135188   3.368   5.400  16.114 -0.7771  0.0449 -1.7718
 4591TIP3    H235189   3.256   5.310  16.065  0.3475 -2.7666  0.4961
 4592TIP3   OH235190   0.856   3.178   3.759 -0.7934  0.2980  0.8978
 4592TIP3    H135191   0.900   3.108   3.807 -0.1478  1.2374  1.7131
 4592TIP3    H235192   0.785   3.134   3.712  2.1646 -1.7251 -2.2088
 4593TIP3   OH235193   3.435   4.029  17.271  0.5691  0.3564 -0.1431
 4593TIP3    H135194   3.478   3.947  17.294 -1.2124 -0.5106  0.3284
 4593TIP3    H235195   3.469   4.051  17.185  1.0891 -0.8919 -0.2793
 4594TIP3   OH235196   2.006   1.355   3.951 -0.1999 -0.3267  0.0865
 4594TIP3    H135197   2.058   1.333   4.028 -1.4320 -3.1799  0.2257
 4594TIP3    H235198   2.049   1.308   3.879 -0.6204  0.0896 -0.4441
 4595TIP3   OH235199   2.391   6.493  12.202 -0.1261 -0.0404 -0.0677
 4595TIP3    H135200   2.309   6.468  12.160 -0.0870  0.9386 -0.7578
 4595TIP3    H235201   2.457   6.437  12.162  0.0174  1.3324 -1.8565
 4596TIP3   OH235202   3.625   4.287  16.024 -0.1018 -0.2188  0.3171
 4596TIP3    H135203   3.652   4.201  16.056  1.2692  0.1460  0.2229
 4596TIP3    H235204   3.628   4.344  16.102  0.8905  0.1417  0.0379
 4597TIP3   OH235205   4.423   2.492  15.147 -0.2261  0.1933 -0.2067
 4597TIP3    H135206   4.510   2.513  15.114 -0.1495  1.4906  0.7500
 4597TIP3    H235207   4.427   2.510  15.241 -0.8449 -2.0407  0.3269
 4598TIP3   OH235208   4.522   5.337  15.755  0.4494 -0.0281  0.0550
 4598TIP3    H135209   4.453   5.337  15.822 -0.0917  1.9542 -0.4460
 4598TIP3    H235210   4.599   5.373  15.800  0.5791 -0.3135  0.0635
 4599TIP3   OH235211   3.347   0.972   6.656 -0.3944 -0.0655  0.1714
 4599TIP3    H135212   3.380   1.003   6.740  0.5780  0.5710 -0.4196
 4599TIP3    H235213   3.407   0.903   6.630 -0.3054  0.1780 -0.2903
 4600TIP3   OH235214   3.349   1.819   3.770 -0.0082  0.6886 -0.3813
 4600TIP3    H135215   3.309   1.883   3.711 -1.6684  0.5055  0.4873
 4600TIP3    H235216   3.275   1.769   3.805  1.1609 -1.0777 -0.2923
 4601TIP3   OH235217   1.042   5.748  12.798 -0.2125  0.0161 -0.2189
 4601TIP3    H135218   1.082   5.747  12.712  0.1880 -1.7931 -0.0534
 4601TIP3    H235219   1.042   5.840  12.824 -0.7856  0.6634 -2.3213
 4602TIP3   OH235220   1.333   0.085  11.356 -0.4052  0.0104 -0.2087
 4602TIP3    H135221   1.422   0.089  11.320 -0.1389 -0.5715  0.3719
 4602TIP3    H235222   1.293   0.009  11.314 -0.9404  0.8010 -1.1520
 4603TIP3   OH235223   5.184   3.456   6.362 -0.6313 -0.1291  0.2507
 4603TIP3    H135224   5.264   3.503   6.385  0.1040 -0.5014 -1.3728
 4603TIP3    H235225   5.199   3.366   6.392 -0.8664  0.0270  0.8426
 4604TIP3   OH235226   0.705   4.535   2.832 -0.7212  0.0351  0.6100
 4604TIP3    H135227   0.687   4.528   2.739 -1.0182  1.2509  0.5606
 4604TIP3    H235228   0.800   4.545   2.837 -0.6457 -0.5653  0.4860
 4605TIP3   OH235229   5.519   6.015  17.316 -0.0165  0.2041  1.0194
 4605TIP3    H135230   5.480   6.091  17.273 -0.4529  0.3733  1.6847
 4605TIP3    H235231   5.509   5.944  17.254 -0.0474  0.5840  0.5851
 4606TIP3   OH235232   1.547   6.597  14.955 -0.1468 -0.4063 -0.3861
 4606TIP3    H135233   1.632   6.562  14.981 -0.5873 -1.7518 -0.6399
 4606TIP3    H235234   1.566   6.661  14.887  0.8181  1.0600  1.1964
 4607TIP3   OH235235   1.342   1.409  14.446 -0.2352  0.5177 -0.1915
 4607TIP3    H135236   1.413   1.379  14.388  1.6325  2.8850  0.7321
 4607TIP3    H235237   1.266   1.416  14.388  0.5126 -1.0562 -1.4525
 4608TIP3   OH235238   1.352   4.871  17.367 -0.2443 -0.0479  0.1269
 4608TIP3    H135239   1.395   4.949  17.332  0.0665  0.3276  1.3150
 4608TIP3    H235240   1.381   4.866  17.458 -1.8660 -0.4001  0.6627
 4609TIP3   OH235241   1.315   6.008  14.720  0.1473  0.1665  0.5635
 4609TIP3    H135242   1.324   6.103  14.714  0.2339  0.1238 -0.1946
 4609TIP3    H235243   1.402   5.977  14.743  0.4652  0.1888 -0.5353
 4610TIP3   OH235244   3.387   1.317   7.025 -0.6095 -0.1070 -0.2174
 4610TIP3    H135245   3.470   1.278   6.998 -0.6668 -0.4481  0.0789
 4610TIP3    H235246   3.321   1.270   6.975 -0.6632 -0.2388 -0.0242
 4611TIP3   OH235247   1.159   6.133  11.661  0.1345 -0.3586 -0.1804
 4611TIP3    H135248   1.242   6.111  11.617  0.1673 -2.8526  0.9531
 4611TIP3    H235249   1.100   6.061  11.638 -1.2093  0.5346  0.3775
 4612TIP3   OH235250   6.626   5.699  13.648  0.1890  0.5529  0.2785
 4612TIP3    H135251   6.599   5.734  13.733  0.9585  2.4517 -0.2003
 4612TIP3    H235252   6.718   5.675  13.660 -0.2793 -1.2401  0.5447
 4613TIP3   OH235253   6.516   1.863  15.995  0.2424  0.1844  0.4557
 4613TIP3    H135254   6.477   1.802  16.058 -2.0865  0.5892 -0.4824
 4613TIP3    H235255   6.540   1.807  15.920  1.8510 -0.1085  1.1454
 4614TIP3   OH235256   2.771   4.220  14.723  0.1792 -0.6332 -0.3128
 4614TIP3    H135257   2.717   4.241  14.799  2.0240  0.5911  0.7333
 4614TIP3    H235258   2.718   4.247  14.648  0.2641  3.0798  0.7553
 4615TIP3   OH235259   3.743   1.407   5.153 -0.4177 -0.2547 -0.0444
 4615TIP3    H135260   3.764   1.454   5.234 -2.2440 -0.0515  0.3580
 4615TIP3    H235261   3.756   1.315   5.174 -4.0115 -0.5441  1.6585
 4616TIP3   OH235262   3.204   5.354  17.219  0.0755  0.0037  0.7343
 4616TIP3    H135263   3.273   5.288  17.219  2.7003  2.5374 -0.0927
 4616TIP3    H235264   3.155   5.337  17.139  2.4656  0.5813 -0.9791
 4617TIP3   OH235265   1.393   2.846   2.730  0.4074  0.4844  0.1793
 4617TIP3    H135266   1.469   2.873   2.782  0.0907  0.3920  0.6907
 4617TIP3    H235267   1.330   2.917   2.742  0.0151  0.0647  0.5930
 4618TIP3   OH235268   6.336   2.661  14.870 -0.4017  0.7493 -0.1860
 4618TIP3    H135269   6.274   2.612  14.815 -0.0876  0.7801 -0.5674
 4618TIP3    H235270   6.417   2.610  14.866 -0.6892  0.1301  1.1671
 4619TIP3   OH235271   1.339   0.369   1.324  0.5106  0.2162  0.2231
 4619TIP3    H135272   1.259   0.395   1.279  1.0072  2.2315  0.4262
 4619TIP3    H235273   1.310   0.333   1.407 -0.3204 -1.9140 -0.9129
 4620TIP3   OH235274   1.998   1.733  16.931  0.0333 -0.0793  0.1971
 4620TIP3    H135275   2.056   1.766  16.862  0.1586  0.2393  0.4561
 4620TIP3    H235276   1.967   1.649  16.897 -2.8944  1.6800 -1.9518
 4621TIP3   OH235277   6.396   4.251   3.903  0.2590  0.0691 -0.4796
 4621TIP3    H135278   6.317   4.292   3.869 -0.9439 -0.3092  1.6505
 4621TIP3    H235279   6.411   4.175   3.848 -0.7540  0.2520 -1.0176
 4622TIP3   OH235280   2.498   2.522   4.668  0.2770 -0.1553  0.2108
 4622TIP3    H135281   2.444   2.465   4.722 -0.1242 -1.5056 -1.5054
 4622TIP3    H235282   2.438   2.588   4.634  0.0428 -0.6543 -0.3596
 4623TIP3   OH235283   6.242   3.965   2.265 -0.4450  0.6324 -0.5420
 4623TIP3    H135284   6.299   4.029   2.222  0.0300  0.0947 -0.7233
 4623TIP3    H235285   6.160   4.013   2.281 -0.7359  0.7713 -2.2860
 4624TIP3   OH235286   6.412   1.118  13.281 -0.5710  0.6598 -0.0039
 4624TIP3    H135287   6.336   1.136  13.226  0.0438  1.0933 -0.7301
 4624TIP3    H235288   6.375   1.092  13.366 -1.5688 -1.3179 -0.9838
 4625TIP3   OH235289   4.587   5.423  14.878  0.4515  0.0080 -0.7009
 4625TIP3    H135290   4.513   5.375  14.841  1.9711 -1.8854 -1.4306
 4625TIP3    H235291   4.650   5.356  14.902  1.1729  1.4187  1.7777
 4626TIP3   OH235292   5.110   3.853   1.563 -0.0437 -0.5265  0.7267
 4626TIP3    H135293   5.080   3.775   1.516 -1.3196 -1.2364  2.6085
 4626TIP3    H235294   5.162   3.819   1.636  1.0452  0.5082  0.4697
 4627TIP3   OH235295   5.942   1.094  13.221  0.8694  0.2146  0.3799
 4627TIP3    H135296   5.874   1.123  13.282  0.9594  1.9668 -0.2967
 4627TIP3    H235297   6.023   1.132  13.254  0.9101  1.2321 -0.8241
 4628TIP3   OH235298   2.792   0.096  11.228  0.0733  0.2231  0.1745
 4628TIP3    H135299   2.793   0.055  11.314 -0.3928 -1.8901 -0.7775
 4628TIP3    H235300   2.855   0.169  11.236 -1.1359  1.1029  2.7120
 4629TIP3   OH235301   6.438   4.754   0.763 -0.1065  0.1130  0.0602
 4629TIP3    H135302   6.402   4.665   0.773  0.2570  0.0644  0.9962
 4629TIP3    H235303   6.372   4.811   0.802 -0.1977  0.2286 -0.2611
 4630TIP3   OH235304   3.491   3.938   4.364  0.1983 -0.3311 -0.3712
 4630TIP3    H135305   3.407   3.949   4.411  1.1088  1.2820  0.9887
 4630TIP3    H235306   3.503   3.843   4.360 -0.6521 -0.5725  1.4156
 4631TIP3   OH235307   3.120   3.323  15.785 -0.3858  0.0974  0.0751
 4631TIP3    H135308   3.078   3.316  15.871  0.9962  0.5099  0.8017
 4631TIP3    H235309   3.143   3.233  15.762 -2.5067 -0.2872 -0.8083
 4632TIP3   OH235310   3.034   3.292   0.583 -0.1237  0.2178 -0.3104
 4632TIP3    H135311   3.044   3.293   0.679 -1.2140  1.4443 -0.1649
 4632TIP3    H235312   3.015   3.201   0.562  1.3583 -0.3073  0.4803
 4633TIP3   OH235313   5.519   2.755  16.046  0.0566  0.7882 -0.6389
 4633TIP3    H135314   5.461   2.830  16.060  0.8421  1.3846 -0.4933
 4633TIP3    H235315   5.561   2.772  15.962  0.3806  0.6117 -0.5164
 4634TIP3   OH235316   1.035   1.269  14.081 -0.3237  0.3503 -0.7869
 4634TIP3    H135317   1.088   1.277  14.002  0.2716  1.2751 -0.3110
 4634TIP3    H235318   1.066   1.189  14.122 -0.7050 -0.1920 -1.5287
 4635TIP3   OH235319   0.213   1.012   4.769  0.0036 -0.0006  0.0689
 4635TIP3    H135320   0.203   1.049   4.682  0.6445  1.2128  0.4860
 4635TIP3    H235321   0.124   1.009   4.805 -0.0062  1.9029  0.3019
 4636TIP3   OH235322   5.067   3.071  17.151 -0.1077 -0.1567  0.3118
 4636TIP3    H135323   5.081   2.991  17.101 -0.6187  0.2493 -0.5165
 4636TIP3    H235324   4.971   3.078  17.158 -0.1839  1.3785 -1.3629
 4637TIP3   OH235325   1.314   1.411  11.487  0.4913 -0.3241 -0.4430
 4637TIP3    H135326   1.349   1.347  11.425 -0.3132 -1.2811  0.0509
 4637TIP3    H235327   1.385   1.424  11.550  0.1106 -2.0313  0.3910
 4638TIP3   OH235328   2.018   3.852   2.163  0.3649  0.0224  0.2970
 4638TIP3    H135329   2.081   3.828   2.095 -0.7292 -0.8310 -0.4524
 4638TIP3    H235330   2.049   3.936   2.195  0.7804  0.5756 -1.4430
 4639TIP3   OH235331   4.136   0.479  16.439  0.0696  0.2043  0.3517
 4639TIP3    H135332   4.212   0.422  16.452  0.5138  0.9884  1.2870
 4639TIP3    H235333   4.106   0.499  16.527 -0.1801  1.2861  0.0310
 4640TIP3   OH235334   5.967   0.207   5.199  0.5435  0.0787  0.4754
 4640TIP3    H135335   5.898   0.187   5.262  0.1826  1.0047  0.3870
 4640TIP3    H235336   5.935   0.172   5.116 -0.4736  1.6877  0.1413
 4641TIP3   OH235337   3.177   1.940  14.694  0.3409 -0.0154 -0.1380
 4641TIP3    H135338   3.158   2.027  14.659  0.4319  1.0785  2.2911
 4641TIP3    H235339   3.138   1.941  14.782  2.0373 -1.7220  0.7048
 4642TIP3   OH235340   5.728   4.113   3.366 -0.5272 -0.4496  0.2540
 4642TIP3    H135341   5.752   4.161   3.287 -0.4071  2.1115  1.7399
 4642TIP3    H235342   5.809   4.107   3.416 -0.9986 -0.1888  1.0733
 4643TIP3   OH235343   1.201   6.610  12.547 -0.5853 -0.4669 -0.3186
 4643TIP3    H135344   1.286   6.641  12.513 -0.4720  0.4086  0.7365
 4643TIP3    H235345   1.144   6.611  12.470  0.2458 -0.6703 -0.9624
 4644TIP3   OH235346   1.165   1.226   0.658 -0.8549 -0.1040 -0.1427
 4644TIP3    H135347   1.164   1.133   0.639  1.1676 -0.4132  0.9696
 4644TIP3    H235348   1.191   1.267   0.575  1.6933 -0.8781  0.1894
 4645TIP3   OH235349   4.817   2.702   4.431 -0.6893  0.1075  0.3681
 4645TIP3    H135350   4.908   2.672   4.434 -1.0149 -0.9899 -0.3134
 4645TIP3    H235351   4.769   2.637   4.482 -1.2641 -0.0065 -0.3084
 4646TIP3   OH235352   3.036   0.143  11.490  0.0295  0.0394 -0.0237
 4646TIP3    H135353   3.028   0.176  11.400 -0.1138 -0.3153 -0.1459
 4646TIP3    H235354   2.969   0.188  11.539 -0.2361 -0.1467 -0.2120
 4647TIP3   OH235355   6.434   5.671   2.554  0.1041  0.1236 -0.0825
 4647TIP3    H135356   6.476   5.597   2.509  1.7620  1.8445 -1.5319
 4647TIP3    H235357   6.483   5.748   2.525 -0.9929  1.7374  2.0523
 4648TIP3   OH235358   3.383   0.831  15.831  0.5876 -0.4214  0.0218
 4648TIP3    H135359   3.442   0.808  15.903  0.8629  0.6098  0.1487
 4648TIP3    H235360   3.441   0.850  15.757  0.5138  1.3799  0.3687
 4649TIP3   OH235361   0.286   4.511   2.061  0.4529  0.0485 -0.4032
 4649TIP3    H135362   0.283   4.494   1.967  1.0068 -0.0073 -0.4105
 4649TIP3    H235363   0.344   4.586   2.070  0.8232 -0.2733 -0.0633
 4650TIP3   OH235364   6.435   2.228  11.689  0.2337  0.1216 -0.0604
 4650TIP3    H135365   6.405   2.178  11.764  2.7944 -0.4809  0.6772
 4650TIP3    H235366   6.418   2.171  11.614  0.8637 -0.8306  0.4958
 4651TIP3   OH235367   3.546   3.228   1.394  0.4169  0.6394  0.1688
 4651TIP3    H135368   3.531   3.133   1.397  0.2939  0.6856  1.9835
 4651TIP3    H235369   3.518   3.254   1.306  0.4444 -1.0023 -0.3539
 4652TIP3   OH235370   6.353   3.204  17.386  0.4907 -0.2050 -0.4054
 4652TIP3    H135371   6.355   3.125  17.331  0.6621  1.2319 -2.5994
 4652TIP3    H235372   6.446   3.226  17.399  0.5343 -1.4689  2.0392
 4653TIP3   OH235373   0.943   4.338  12.443  0.1688  0.0503 -0.0614
 4653TIP3    H135374   1.017   4.326  12.384 -0.3606 -0.0849 -0.7109
 4653TIP3    H235375   0.876   4.279  12.409 -1.4032  2.4473 -1.4299
 4654TIP3   OH235376   6.589   4.171  15.401  0.0051  0.4662 -0.1615
 4654TIP3    H135377   6.584   4.263  15.429 -2.8568 -0.2276  2.0462
 4654TIP3    H235378   6.673   4.165  15.355 -0.6918  4.7151 -2.5740
 4655TIP3   OH235379   2.986   0.791   0.734  0.0907 -0.0157  0.3391
 4655TIP3    H135380   2.930   0.834   0.799  0.4665 -0.7058  1.1340
 4655TIP3    H235381   2.926   0.768   0.663 -0.2530  1.1161  0.2335
 4656TIP3   OH235382   1.772   4.412  15.151 -0.0650 -0.2697  0.0421
 4656TIP3    H135383   1.789   4.499  15.116 -0.5685 -0.1905 -0.0062
 4656TIP3    H235384   1.686   4.389  15.118  0.9057 -1.6698 -1.6850
 4657TIP3   OH235385   4.429   0.128   3.884  0.2805 -0.0677 -0.9157
 4657TIP3    H135386   4.445   0.178   3.964 -0.2169  1.0160 -1.4605
 4657TIP3    H235387   4.486   0.052   3.891 -0.4476 -0.4909  0.8939
 4658TIP3   OH235388   6.745   4.801  16.885  0.0450 -0.7080  0.4306
 4658TIP3    H135389   6.831   4.836  16.863 -0.1655 -0.5221 -0.1218
 4658TIP3    H235390   6.723   4.742  16.813 -0.6617 -0.0760  0.1047
 4659TIP3   OH235391   4.308   4.512   5.456  0.0870  0.0458 -0.4935
 4659TIP3    H135392   4.403   4.513   5.465  0.0369 -1.2483  0.4790
 4659TIP3    H235393   4.289   4.430   5.410 -0.5640  0.1132 -0.3542
 4660TIP3   OH235394   5.170   5.536  11.460  0.4187  0.4430 -0.0085
 4660TIP3    H135395   5.130   5.455  11.492 -0.5405  1.9017  2.8927
 4660TIP3    H235396   5.123   5.555  11.379 -1.5333 -0.3394  0.8608
 4661TIP3   OH235397   2.330   3.105  13.121  0.1086  0.2138  0.4164
 4661TIP3    H135398   2.270   3.178  13.108  1.1535  0.9910 -0.2031
 4661TIP3    H235399   2.329   3.058  13.037 -0.0671 -0.1168  0.5990
 4662TIP3   OH235400   2.183   3.060   1.733  0.6208  0.2547  0.1739
 4662TIP3    H135401   2.183   3.012   1.650  2.2388  2.2164 -1.0667
 4662TIP3    H235402   2.127   3.136   1.717  0.1521  0.1458  1.2262
 4663TIP3   OH235403   4.644   6.442   1.352 -0.3459  0.3420  0.1585
 4663TIP3    H135404   4.555   6.434   1.385 -0.7382 -1.3111 -1.1840
 4663TIP3    H235405   4.679   6.352   1.355  1.9504  1.1800  2.3853
 4664TIP3   OH235406   0.740   0.140   0.669 -0.2898 -0.3271  0.4970
 4664TIP3    H135407   0.785   0.138   0.585  0.9310 -0.4424  1.1429
 4664TIP3    H235408   0.656   0.184   0.650 -0.9018 -2.0956 -1.1707
 4665TIP3   OH235409   5.912   6.184   1.529 -0.2494 -0.8501 -0.8673
 4665TIP3    H135410   6.005   6.206   1.519  0.1419 -1.6646  0.8026
 4665TIP3    H235411   5.880   6.243   1.597  0.3448 -3.8355  2.2739
 4666TIP3   OH235412   4.980   4.154  13.000  0.0987 -0.0144  1.0438
 4666TIP3    H135413   5.040   4.177  13.071 -0.5909 -1.3008  2.0925
 4666TIP3    H235414   4.919   4.228  12.995 -1.3049 -0.8874  3.4658
 4667TIP3   OH235415   2.562   3.253  16.469 -0.1925 -0.5495  0.3987
 4667TIP3    H135416   2.603   3.219  16.390 -0.7433 -0.4712  0.0714
 4667TIP3    H235417   2.632   3.301  16.514  0.2488 -1.0015  0.2061
 4668TIP3   OH235418   3.225   0.972  16.398  0.4976 -0.1932  0.0408
 4668TIP3    H135419   3.197   0.881  16.408 -0.8604  0.1793 -0.1693
 4668TIP3    H235420   3.297   0.982  16.461 -0.8338 -0.8069  1.7482
 4669TIP3   OH235421   2.125   6.392   2.277 -0.2725 -0.8320  0.7516
 4669TIP3    H135422   2.050   6.418   2.224  0.8719 -0.2546 -0.6414
 4669TIP3    H235423   2.105   6.425   2.365 -0.6963  1.2779 -0.0755
 4670TIP3   OH235424   3.126   4.495  13.269 -0.0828 -0.0785 -0.4889
 4670TIP3    H135425   3.068   4.420  13.282 -0.6698  0.3072 -0.8464
 4670TIP3    H235426   3.121   4.513  13.175 -0.6697  0.9728 -0.2798
 4671TIP3   OH235427   5.167   2.813  17.118  0.3213  0.0196  0.7402
 4671TIP3    H135428   5.233   2.769  17.171 -1.3282 -0.5773  2.4262
 4671TIP3    H235429   5.094   2.751  17.114  0.0957  0.3612 -1.6752
 4672TIP3   OH235430   5.309   3.161  14.762 -0.4536 -0.8905  0.1758
 4672TIP3    H135431   5.355   3.218  14.824  2.1190 -1.2472 -1.2291
 4672TIP3    H235432   5.237   3.214  14.729  0.6161  0.8181  0.4712
 4673TIP3   OH235433   1.510   5.623  16.244 -0.4098 -0.5787  0.0021
 4673TIP3    H135434   1.564   5.652  16.317 -0.7936 -2.0683  0.9241
 4673TIP3    H235435   1.433   5.680  16.247  0.1289  0.1706 -0.0229
 4674TIP3   OH235436   3.009   3.169   5.677  0.4153  0.5114  0.4080
 4674TIP3    H135437   2.915   3.158   5.690 -0.1497  0.8541 -2.4980
 4674TIP3    H235438   3.038   3.224   5.749 -1.5208  0.1023  1.5603
 4675TIP3   OH235439   2.041   5.384   0.024 -0.3499  0.0644 -0.0595
 4675TIP3    H135440   1.991   5.386   0.105 -0.2995  0.8913 -0.0475
 4675TIP3    H235441   1.987   5.332  -0.037 -1.5244  1.4666 -0.2511
 4676TIP3   OH235442   2.241   5.166   5.305 -0.1202 -0.5877 -0.5046
 4676TIP3    H135443   2.252   5.185   5.212 -1.6319  0.9673 -0.4058
 4676TIP3    H235444   2.204   5.246   5.342 -1.1312 -1.7447  1.1084
 4677TIP3   OH235445   4.591   0.600  13.027  0.0395 -0.4325 -0.7775
 4677TIP3    H135446   4.655   0.610  12.957 -0.5628  0.3928 -1.2337
 4677TIP3    H235447   4.519   0.658  13.002 -0.2450 -0.2168  0.4725
 4678TIP3   OH235448   6.740   0.662  15.523  0.1700 -0.3460 -0.7227
 4678TIP3    H135449   6.734   0.653  15.428  2.3987  0.9203 -1.0731
 4678TIP3    H235450   6.834   0.657  15.542 -0.1464  0.2131  1.3130
 4679TIP3   OH235451   1.838   6.332  11.376 -0.3057  0.2102  0.3843
 4679TIP3    H135452   1.843   6.389  11.299 -0.1504  1.2996  1.1767
 4679TIP3    H235453   1.813   6.246  11.341 -1.8024  1.0396 -0.7198
 4680TIP3   OH235454   4.348   2.034  13.627  0.1435  0.0850 -0.3727
 4680TIP3    H135455   4.395   2.104  13.673  0.5789 -0.0284 -0.6456
 4680TIP3    H235456   4.379   1.954  13.669 -0.1800  0.0376 -0.2203
 4681TIP3   OH235457   2.228   1.576   4.746  0.3752  0.1334 -0.3080
 4681TIP3    H135458   2.280   1.635   4.692 -0.7908  1.7386  0.2435
 4681TIP3    H235459   2.147   1.624   4.764  0.0340 -0.9865  1.4883
 4682TIP3   OH235460   2.202   2.029  14.294  0.2325  0.0041  0.2460
 4682TIP3    H135461   2.141   1.956  14.283  0.4810 -0.2681  0.6663
 4682TIP3    H235462   2.270   2.013  14.228  0.0066  0.1498 -0.0255
 4683TIP3   OH235463   4.430   5.250  15.500  0.3354 -0.1640 -0.5154
 4683TIP3    H135464   4.340   5.217  15.499  0.4366 -0.4439 -0.7670
 4683TIP3    H235465   4.444   5.282  15.589 -0.7038  1.8334 -1.0207
 4684TIP3   OH235466   6.161   1.204  12.645  0.4849 -0.4261 -0.5669
 4684TIP3    H135467   6.146   1.153  12.724  0.5730 -0.7531 -0.7630
 4684TIP3    H235468   6.191   1.289  12.678 -1.8921  0.3347 -0.1351
 4685TIP3   OH235469   6.023   0.798  13.370  0.0288  0.1140 -0.1165
 4685TIP3    H135470   6.009   0.874  13.427 -1.6594 -0.0687 -0.2615
 4685TIP3    H235471   6.013   0.833  13.281 -1.7981 -0.4465 -0.1595
 4686TIP3   OH235472   3.561   2.803   5.819  0.1680  0.1928  0.0163
 4686TIP3    H135473   3.517   2.747   5.884  0.6424  1.2495  1.2815
 4686TIP3    H235474   3.654   2.780   5.827  0.2195  0.2491 -0.3880
 4687TIP3   OH235475   4.787   5.111   5.609 -0.3480 -0.0945  0.4760
 4687TIP3    H135476   4.697   5.099   5.579 -1.2172  2.3253  1.8084
 4687TIP3    H235477   4.831   5.028   5.588 -2.1660 -0.4535 -2.5028
 4688TIP3   OH235478   2.260   2.383   3.775 -0.1116 -0.3960 -0.1770
 4688TIP3    H135479   2.336   2.418   3.727  0.6737 -1.7527  0.0060
 4688TIP3    H235480   2.296   2.353   3.859 -1.0696 -0.0400  0.3748
 4689TIP3   OH235481   0.000   2.306  12.091  0.1667  0.3372 -0.0405
 4689TIP3    H135482   0.025   2.214  12.079 -1.3772 -0.3678  1.7220
 4689TIP3    H235483  -0.090   2.311  12.059  0.1351  1.1674  0.1690
 4690TIP3   OH235484   4.327   0.267   3.668  0.1851 -0.0943 -0.0727
 4690TIP3    H135485   4.352   0.236   3.755 -1.3379 -0.7128  0.1838
 4690TIP3    H235486   4.385   0.219   3.608  2.6440  1.8004  0.6149
 4691TIP3   OH235487   0.901   0.363   1.325  0.1959  0.3555  0.2948
 4691TIP3    H135488   0.832   0.429   1.325 -1.0303 -0.8598  1.1919
 4691TIP3    H235489   0.860   0.285   1.289  1.4864 -0.0508 -0.3460
 4692TIP3   OH235490   0.889   4.090  10.628 -0.1544 -0.2841 -0.2262
 4692TIP3    H135491   0.868   3.997  10.641 -1.1398 -0.1636 -0.8257
 4692TIP3    H235492   0.805   4.130  10.605  0.0669  0.9534  1.0236
 4693TIP3   OH235493   3.518   3.381   3.190  0.4286 -0.5743  0.2437
 4693TIP3    H135494   3.508   3.451   3.255  1.9534  0.8798 -1.0052
 4693TIP3    H235495   3.558   3.309   3.239 -1.6805 -0.8730  1.6843
 4694TIP3   OH235496   6.400   2.502   2.823  0.3180 -0.2273 -0.4626
 4694TIP3    H135497   6.371   2.410   2.825 -0.4633  0.0027 -0.6124
 4694TIP3    H235498   6.391   2.531   2.914  1.2852 -0.5059 -0.2713
 4695TIP3   OH235499   6.326   1.116   4.658  0.1608  0.2244  0.2175
 4695TIP3    H135500   6.374   1.155   4.732  1.8110 -1.6521  0.2281
 4695TIP3    H235501   6.234   1.131   4.679  0.6014  0.1835  2.4312
 4696TIP3   OH235502   4.357   6.273  11.178 -0.6270  0.5750 -0.1974
 4696TIP3    H135503   4.312   6.357  11.178 -1.1005  0.3479 -1.6628
 4696TIP3    H235504   4.421   6.280  11.107 -0.0263  0.0238  0.2782
 4697TIP3   OH235505   4.802   2.114   5.135 -0.1839 -0.4500 -0.1366
 4697TIP3    H135506   4.754   2.102   5.053  1.1954  1.5329 -1.3178
 4697TIP3    H235507   4.744   2.169   5.188 -0.1714  0.1151 -0.6893
 4698TIP3   OH235508   0.927   4.706  12.791 -0.0650  0.2355 -0.4845
 4698TIP3    H135509   0.966   4.640  12.733 -0.1686 -0.7779  0.5579
 4698TIP3    H235510   0.940   4.789  12.745  0.3757 -0.4668 -1.6780
 4699TIP3   OH235511   6.331   0.183  14.848 -0.2969 -0.1236 -0.2099
 4699TIP3    H135512   6.316   0.113  14.785 -1.4834 -0.6972  0.6748
 4699TIP3    H235513   6.243   0.206  14.880  0.3355 -1.2881  2.7384
 4700TIP3   OH235514   5.835   2.853   1.502  0.0021  0.2799 -0.3425
 4700TIP3    H135515   5.846   2.924   1.440 -0.9688 -0.1637 -1.0482
 4700TIP3    H235516   5.779   2.790   1.457 -3.1415  1.1752  1.9628
 4701TIP3   OH235517   1.235   3.751   1.395  0.1679  0.0678  0.5294
 4701TIP3    H135518   1.319   3.717   1.427 -0.5421 -0.9906  1.3542
 4701TIP3    H235519   1.209   3.816   1.460 -0.6158 -1.0990  1.4345
 4702TIP3   OH235520   4.756   4.470   1.857 -0.2507  0.3079 -0.3367
 4702TIP3    H135521   4.715   4.436   1.777 -0.1875 -5.0180  1.5191
 4702TIP3    H235522   4.687   4.521   1.899 -2.1808 -1.3104 -1.3289
 4703TIP3   OH235523   3.534   3.297  14.411  0.2321 -0.2535  0.0515
 4703TIP3    H135524   3.460   3.306  14.471 -0.1311 -0.2785 -0.3863
 4703TIP3    H235525   3.545   3.203  14.400  0.4407 -0.2538  0.2481
 4704TIP3   OH235526   6.444   2.103   0.077  0.5945  0.2617  0.1977
 4704TIP3    H135527   6.513   2.037   0.085  0.1274 -0.3332 -0.5691
 4704TIP3    H235528   6.480   2.181   0.120  1.0553 -0.5491  1.3327
 4705TIP3   OH235529   5.960   1.911  14.409 -0.1151  0.2788  0.0470
 4705TIP3    H135530   5.958   1.820  14.378  0.0498 -0.1940  1.3437
 4705TIP3    H235531   6.039   1.947  14.369  2.0638 -1.3542  2.5395
 4706TIP3   OH235532   3.263   0.572   2.396 -0.4582 -0.0478 -0.3702
 4706TIP3    H135533   3.318   0.555   2.319  1.6847  0.2048  1.0167
 4706TIP3    H235534   3.304   0.648   2.438 -1.8853  0.1321  0.7495
 4707TIP3   OH235535   0.887   4.429  15.886 -0.7060 -0.4108 -0.3811
 4707TIP3    H135536   0.964   4.462  15.839 -0.1034 -1.7300 -0.3521
 4707TIP3    H235537   0.814   4.449  15.828 -0.0729 -1.2293 -1.4963
 4708TIP3   OH235538   4.825   2.271  17.003 -0.4499 -0.3496 -0.2327
 4708TIP3    H135539   4.800   2.304  16.916 -1.1658  0.9059  0.4186
 4708TIP3    H235540   4.868   2.187  16.985 -1.7297 -0.7574 -1.7136
 4709TIP3   OH235541   4.563   0.579   2.727 -0.5199 -0.2606  0.1834
 4709TIP3    H135542   4.514   0.611   2.803  0.3384 -0.6574  0.9220
 4709TIP3    H235543   4.615   0.654   2.699 -1.0003 -0.0484 -0.1684
 4710TIP3   OH235544   1.081   1.513   0.837  0.4084 -0.1190  0.0977
 4710TIP3    H135545   1.048   1.424   0.852 -1.8513  0.5962 -0.3188
 4710TIP3    H235546   1.005   1.562   0.808  1.1761  2.4568  2.1357
 4711TIP3   OH235547   1.982   6.515   6.254 -0.7559 -0.5134 -0.3193
 4711TIP3    H135548   1.968   6.458   6.330  0.3434  1.4716  1.4909
 4711TIP3    H235549   1.928   6.592   6.272  1.7028  1.2532 -0.0234
 4712TIP3   OH235550   4.408   0.538   0.482 -0.7618 -0.1662  0.1610
 4712TIP3    H135551   4.360   0.614   0.449 -1.4040 -1.1309 -1.1990
 4712TIP3    H235552   4.484   0.531   0.426  0.3463  0.5831  1.5051
 4713TIP3   OH235553   0.449   2.007  16.313  0.3148 -0.5869  0.8152
 4713TIP3    H135554   0.419   2.091  16.278  0.4601 -0.5402  0.8030
 4713TIP3    H235555   0.526   2.029  16.366 -0.4870 -0.5142  1.9992
 4714TIP3   OH235556   3.920   2.359   4.497 -0.2996  0.0259 -0.2722
 4714TIP3    H135557   3.921   2.448   4.463 -1.2051  0.1400 -0.0232
 4714TIP3    H235558   3.833   2.349   4.535 -0.1367 -0.8981 -0.1222
 4715TIP3   OH235559   5.944   6.124  14.560  0.0662 -0.1354  0.6149
 4715TIP3    H135560   5.956   6.216  14.535 -0.4112  0.0616  1.0927
 4715TIP3    H235561   6.008   6.076  14.507 -0.2942  0.3722 -0.2884
 4716TIP3   OH235562   3.401   4.088   2.664 -0.3253  0.4874  0.4161
 4716TIP3    H135563   3.477   4.070   2.719 -0.1012  2.4084  0.7800
 4716TIP3    H235564   3.433   4.081   2.575  0.5290  2.1115  0.5633
 4717TIP3   OH235565   0.302   1.321   5.119 -0.0426  0.2105 -0.1438
 4717TIP3    H135566   0.364   1.266   5.071  1.7305  0.6619  1.4546
 4717TIP3    H235567   0.315   1.409   5.083 -0.5464  0.1319 -0.5271
 4718TIP3   OH235568   0.040   6.040   5.855 -0.1551  0.1172  0.1679
 4718TIP3    H135569   0.090   6.100   5.910  1.1204 -0.2566 -0.5309
 4718TIP3    H235570  -0.027   6.094   5.814  0.9780  1.0860 -0.4581
 4719TIP3   OH235571   4.048   0.685   5.067  0.2664  0.1506 -0.1633
 4719TIP3    H135572   4.070   0.627   5.139 -1.6025  0.0206  0.3720
 4719TIP3    H235573   3.955   0.704   5.079  0.3011  1.4822 -1.5890
 4720TIP3   OH235574   6.165   1.529  12.640  0.2232  0.3034  0.2112
 4720TIP3    H135575   6.226   1.481  12.696 -0.5309 -2.0256 -0.8484
 4720TIP3    H235576   6.213   1.608  12.615  1.9032 -0.3260  1.2901
 4721TIP3   OH235577   6.650   0.761   1.230 -0.6600 -0.7278 -0.4132
 4721TIP3    H135578   6.647   0.752   1.325  2.4398 -1.7222 -0.2988
 4721TIP3    H235579   6.640   0.672   1.197  0.8300 -0.7651 -0.8390
 4722TIP3   OH235580   1.359   3.014  16.145 -0.3430 -0.1573  0.1783
 4722TIP3    H135581   1.380   2.981  16.058 -2.3044 -1.3555  0.1087
 4722TIP3    H235582   1.362   2.937  16.202  0.0275  0.4567  1.0256
 4723TIP3   OH235583   3.946   3.851   3.761  0.7760  0.0394 -0.0514
 4723TIP3    H135584   3.996   3.804   3.694 -0.2180 -1.1809  0.0411
 4723TIP3    H235585   3.894   3.915   3.713  0.6353 -0.3181 -0.3729
 4724TIP3   OH235586   3.478   5.807  15.218  0.0142 -0.7030 -0.2697
 4724TIP3    H135587   3.482   5.735  15.281 -1.1673 -1.2119 -0.7463
 4724TIP3    H235588   3.446   5.767  15.138  2.7894 -0.3586 -1.6704
 4725TIP3   OH235589   6.031   2.344  11.692  0.2711  0.6441 -0.1912
 4725TIP3    H135590   6.049   2.311  11.780 -2.1008  1.1167  0.5339
 4725TIP3    H235591   6.072   2.280  11.634 -0.1393 -0.9768  1.2313
 4726TIP3   OH235592   6.263   2.275   1.172  0.0828  0.1040 -0.0993
 4726TIP3    H135593   6.282   2.266   1.265 -0.3939  1.5043  0.1661
 4726TIP3    H235594   6.169   2.258   1.165  0.6273 -3.2803 -0.8694
 4727TIP3   OH235595   5.425   4.051   5.228  0.9933 -0.1452 -0.7490
 4727TIP3    H135596   5.476   4.023   5.152  1.4612 -2.0296  0.2061
 4727TIP3    H235597   5.336   4.019   5.210  0.6944  0.8842 -1.2262
 4728TIP3   OH235598   4.503   0.661  16.456  0.1257 -0.3096  1.0003
 4728TIP3    H135599   4.486   0.703  16.372 -0.6505 -3.2350 -0.4387
 4728TIP3    H235600   4.502   0.733  16.519  1.6609  2.1371 -1.5300
 4729TIP3   OH235601   5.503   4.067  11.545 -0.3386  0.1586  0.3828
 4729TIP3    H135602   5.471   3.990  11.497  1.1981  1.1621 -2.4650
 4729TIP3    H235603   5.429   4.128  11.544 -0.3156  0.1993 -0.8983
 4730TIP3   OH235604   1.559   4.391  12.900  0.3925 -0.2091 -0.6643
 4730TIP3    H135605   1.515   4.332  12.839 -1.1788 -0.7328  0.8784
 4730TIP3    H235606   1.537   4.357  12.987  0.9343  1.6092  0.2489
 4731TIP3   OH235607   3.902   6.095  12.592 -0.3851 -0.1655  0.4220
 4731TIP3    H135608   3.846   6.020  12.570  0.2371 -0.9480  1.3765
 4731TIP3    H235609   3.990   6.067  12.568 -0.4164  1.2857 -1.6169
 4732TIP3   OH235610   3.545   6.178  13.977 -0.3809 -0.2844 -0.6627
 4732TIP3    H135611   3.629   6.169  14.021 -0.0795 -0.8462 -1.3417
 4732TIP3    H235612   3.540   6.104  13.918 -2.1559 -1.3220  0.6500
 4733TIP3   OH235613   4.677   0.961  12.307 -0.4891  0.5289 -0.5112
 4733TIP3    H135614   4.596   0.913  12.325  0.5478 -0.1418  3.3659
 4733TIP3    H235615   4.669   1.041  12.358  1.6023 -0.0110  0.7818
 4734TIP3   OH235616   2.803   1.010   5.675  0.0960  0.0704  0.1049
 4734TIP3    H135617   2.824   1.093   5.717  2.2348 -0.5018  0.2684
 4734TIP3    H235618   2.886   0.977   5.642 -1.0756 -0.8087 -2.2384
 4735TIP3   OH235619   2.501   4.856   0.621 -0.2860  0.4964 -0.2220
 4735TIP3    H135620   2.585   4.874   0.579 -0.3518 -0.6220 -0.8807
 4735TIP3    H235621   2.525   4.827   0.709 -0.1729  3.3665  0.8123
 4736TIP3   OH235622   1.632   3.984   2.991 -0.3941  0.5796 -0.0636
 4736TIP3    H135623   1.676   4.060   3.029  0.3999  0.8728 -1.5068
 4736TIP3    H235624   1.550   3.977   3.039 -0.8080  2.7766 -0.3781
 4737TIP3   OH235625   3.581   1.347  16.794 -0.6591 -0.2317 -0.2925
 4737TIP3    H135626   3.531   1.272  16.825 -1.0011  1.4511  3.7381
 4737TIP3    H235627   3.669   1.334  16.829 -0.6469  1.0865  0.2253
 4738TIP3   OH235628   0.937   5.426   2.483  0.2985 -0.4299  0.0637
 4738TIP3    H135629   0.994   5.502   2.470 -0.8919  0.6530  1.0159
 4738TIP3    H235630   0.963   5.391   2.568  0.9992 -1.2709 -0.4687
 4739TIP3   OH235631   1.687   4.957   2.706 -0.1840 -0.0817  0.4974
 4739TIP3    H135632   1.733   4.884   2.665  0.4226 -0.0856  1.1672
 4739TIP3    H235633   1.656   4.923   2.789  0.2148  0.4468  0.8751
 4740TIP3   OH235634   6.512   2.349   0.174  0.3442 -0.1031 -0.1495
 4740TIP3    H135635   6.451   2.386   0.111  1.6785 -0.3781 -1.6541
 4740TIP3    H235636   6.496   2.398   0.255 -1.6916 -0.0476 -0.5523
 4741TIP3   OH235637   5.843   3.965  14.350  0.4794 -0.2972  0.8358
 4741TIP3    H135638   5.779   3.987  14.418  2.7279  0.7158  2.7615
 4741TIP3    H235639   5.861   3.872  14.363 -0.3284 -0.5124  0.4885
 4742TIP3   OH235640   4.775   4.782   0.940 -0.0213 -0.3566 -0.4524
 4742TIP3    H135641   4.805   4.852   0.883 -0.4309 -1.1495 -1.6775
 4742TIP3    H235642   4.679   4.788   0.938 -0.1509 -1.9821 -1.9885
 4743TIP3   OH235643   5.928   3.076   1.353 -0.2671 -0.1982  0.1418
 4743TIP3    H135644   5.920   3.172   1.350  1.4713 -0.0048  0.5113
 4743TIP3    H235645   5.932   3.049   1.262 -1.0334  0.0532  0.0311
 4744TIP3   OH235646   1.795   5.150  16.851  0.2102 -0.1964 -0.5619
 4744TIP3    H135647   1.822   5.075  16.798 -1.2503 -0.8217 -0.4597
 4744TIP3    H235648   1.739   5.113  16.919  3.6480  0.2353  2.9044
 4745TIP3   OH235649   5.935   1.845   4.431 -1.0522  0.4177  0.0818
 4745TIP3    H135650   5.908   1.936   4.442  0.2644  0.9289 -0.7047
 4745TIP3    H235651   6.025   1.850   4.398 -1.7060 -1.0943 -2.1678
 4746TIP3   OH235652   4.931   6.592  14.218  0.2773 -0.2927 -0.2024
 4746TIP3    H135653   4.978   6.517  14.182  0.0354 -0.6646  0.2534
 4746TIP3    H235654   4.969   6.605  14.305 -1.7716 -1.8312  1.0039
 4747TIP3   OH235655   2.582   5.974  11.295 -0.3730 -0.0473 -0.0412
 4747TIP3    H135656   2.625   6.002  11.215 -1.4957  1.1926 -0.2488
 4747TIP3    H235657   2.528   6.049  11.322 -1.7649 -1.2145  0.6190
 4748TIP3   OH235658   6.392   4.834   1.505 -0.5928  0.0325  0.1160
 4748TIP3    H135659   6.369   4.920   1.470 -0.2412 -0.4545 -1.3470
 4748TIP3    H235660   6.479   4.815   1.470  0.1580 -0.1273  1.9439
 4749TIP3   OH235661   0.582   1.965  14.405 -0.0657  0.7618  0.1044
 4749TIP3    H135662   0.594   2.035  14.340  1.3880 -0.2673 -0.7952
 4749TIP3    H235663   0.662   1.913  14.399  0.1318  0.6122  2.7473
 4750TIP3   OH235664   3.801   0.786   3.311  0.4377 -0.7375  0.6666
 4750TIP3    H135665   3.858   0.726   3.263 -1.0978 -0.9697 -0.9642
 4750TIP3    H235666   3.859   0.831   3.372  2.3741 -0.9282 -0.9420
 4751TIP3   OH235667   0.690   5.408   3.850  0.1205 -0.1659 -0.5912
 4751TIP3    H135668   0.605   5.450   3.839 -0.7110 -2.1133 -2.4455
 4751TIP3    H235669   0.696   5.390   3.944  0.1771  3.1336  0.1800
 4752TIP3   OH235670   3.566   3.720  14.012  0.3028 -0.0026  0.3113
 4752TIP3    H135671   3.636   3.764  14.060 -0.6159 -0.8663  2.6140
 4752TIP3    H235672   3.499   3.701  14.079 -0.8366 -1.8001 -1.2154
 4753TIP3   OH235673   5.623   3.397   3.076 -0.0321  0.0231  0.1352
 4753TIP3    H135674   5.528   3.403   3.077  0.0186  1.1736  1.3887
 4753TIP3    H235675   5.645   3.343   3.152  0.3437  0.7948  0.5886
 4754TIP3   OH235676   4.521   5.403   4.418  0.2505  0.1036  0.1133
 4754TIP3    H135677   4.494   5.317   4.451  0.4973  0.1682  0.4929
 4754TIP3    H235678   4.613   5.392   4.396  0.2652  0.2530  0.1028
 4755TIP3   OH235679   3.745   4.584  12.423 -0.1913  0.4167  0.2993
 4755TIP3    H135680   3.769   4.520  12.490  2.0322  0.8387 -0.0194
 4755TIP3    H235681   3.652   4.601  12.439 -0.4422 -1.6227  1.4396
 4756TIP3   OH235682   2.960   4.751   1.605  0.7182 -0.0678  0.3253
 4756TIP3    H135683   2.987   4.838   1.576 -1.2070  1.2745  2.2682
 4756TIP3    H235684   2.977   4.751   1.699  1.1040 -2.0051  0.3002
 4757TIP3   OH235685   6.114   0.756  17.300  0.1358  0.4214 -0.2814
 4757TIP3    H135686   6.028   0.795  17.284  0.2478  0.4747 -0.7721
 4757TIP3    H235687   6.165   0.827  17.340  0.0473  0.4897 -0.2897
 4758TIP3   OH235688   5.644   2.067   3.021 -0.0189 -0.3496 -0.1293
 4758TIP3    H135689   5.635   2.106   2.934  1.9596 -0.4094 -0.4109
 4758TIP3    H235690   5.675   1.978   3.004  2.8901  0.4286  0.6142
 4759TIP3   OH235691   6.080   2.804  16.754  0.0252 -0.2273 -0.2044
 4759TIP3    H135692   6.109   2.894  16.767 -1.0284  0.4082 -1.9317
 4759TIP3    H235693   5.996   2.799  16.801 -0.6300  0.1443 -1.3162
 4760TIP3   OH235694   0.951   6.020  14.352  0.1954 -0.1024  0.1789
 4760TIP3    H135695   0.901   6.018  14.270  1.4091 -0.5528 -0.5881
 4760TIP3    H235696   0.926   5.940  14.397 -1.2629  0.6535  0.7565
 4761TIP3   OH235697   3.486   6.450  10.836 -0.3326 -0.1185  0.9068
 4761TIP3    H135698   3.470   6.485  10.748  0.9422  1.1762  1.1434
 4761TIP3    H235699   3.438   6.367  10.838 -0.7918  0.0586 -0.8341
 4762TIP3   OH235700   4.061   6.242  14.589 -0.1851 -0.4503  0.0576
 4762TIP3    H135701   4.101   6.158  14.611  1.2574 -0.1786 -1.3628
 4762TIP3    H235702   4.099   6.266  14.505 -2.1432  0.6516 -0.5842
 4763TIP3   OH235703   1.762   4.432   6.722 -0.5098 -0.3039 -0.1968
 4763TIP3    H135704   1.750   4.449   6.629 -0.0116 -2.5092 -0.7293
 4763TIP3    H235705   1.855   4.447   6.737 -0.2662 -1.4852 -0.4464
 4764TIP3   OH235706   0.553   1.506   0.026  0.0272 -0.2163  0.5060
 4764TIP3    H135707   0.588   1.585  -0.016 -1.3665 -0.7617 -1.9209
 4764TIP3    H235708   0.593   1.433  -0.022 -1.8908 -0.8673 -0.2327
 4765TIP3   OH235709   5.180   2.159   3.945 -0.0485  0.0515 -0.3396
 4765TIP3    H135710   5.171   2.244   3.987 -1.2945  0.3457 -1.1442
 4765TIP3    H235711   5.209   2.179   3.856  1.9740 -0.5292  0.1266
 4766TIP3   OH235712   5.005   3.999   3.277 -0.4426 -0.0055 -0.5843
 4766TIP3    H135713   5.075   4.052   3.315 -0.8317  0.5345 -0.6015
 4766TIP3    H235714   4.927   4.024   3.326 -0.3925 -1.5942  0.3534
 4767TIP3   OH235715   1.131   1.975   0.726 -0.2106  0.4671 -0.4159
 4767TIP3    H135716   1.147   1.976   0.820  0.6359  1.2118 -0.5526
 4767TIP3    H235717   1.053   1.921   0.716 -0.9742  1.2740  0.8204
 4768TIP3   OH235718   0.046   2.063  13.643  0.6669 -0.3754  0.6267
 4768TIP3    H135719   0.047   1.999  13.714  1.9663 -1.0266  0.0602
 4768TIP3    H235720   0.136   2.097  13.641  0.3500  0.4583  0.0183
 4769TIP3   OH235721   5.165   3.462  12.084 -0.1675  0.1410 -0.3317
 4769TIP3    H135722   5.200   3.548  12.064 -1.5599  0.8535  0.1941
 4769TIP3    H235723   5.108   3.475  12.159  1.7147 -1.7399  1.5825
 4770TIP3   OH235724   0.068   5.509   5.049  0.8016  0.2871  0.2033
 4770TIP3    H135725   0.090   5.423   5.012  0.2399 -0.1249  0.8191
 4770TIP3    H235726  -0.025   5.503   5.071  0.2103  1.7615 -1.6674
 4771TIP3   OH235727   3.834   6.347  16.852  0.0855  0.1243 -0.3516
 4771TIP3    H135728   3.843   6.296  16.933  1.1194  1.2305  0.2585
 4771TIP3    H235729   3.882   6.296  16.787  1.0603  0.2457  0.2421
 4772TIP3   OH235730   4.348   4.805  14.497  0.6819  0.3380  0.5500
 4772TIP3    H135731   4.279   4.828  14.560  1.2761 -0.3087  1.4497
 4772TIP3    H235732   4.303   4.803  14.412 -0.2413  0.6869  1.0193
 4773TIP3   OH235733   2.014   2.445   4.186 -0.3343 -0.0142  0.3324
 4773TIP3    H135734   2.106   2.427   4.166 -0.1955 -0.8987  1.6356
 4773TIP3    H235735   1.984   2.501   4.114  0.8168 -0.8813 -0.8758
 4774TIP3   OH235736   1.038   6.229   0.074  0.1879 -0.0246  0.3174
 4774TIP3    H135737   0.977   6.156   0.062 -0.6375  0.7085 -0.0334
 4774TIP3    H235738   1.080   6.239  -0.011  0.2891 -0.0722  0.3620
 4775TIP3   OH235739   1.233   2.228  16.682  0.0527 -0.2444 -0.4108
 4775TIP3    H135740   1.153   2.175  16.689  1.9393 -3.1301  1.3631
 4775TIP3    H235741   1.231   2.284  16.759  0.1500 -0.9787  0.1385
 4776TIP3   OH235742   4.844   2.905   3.976  0.3429 -0.2766 -0.5409
 4776TIP3    H135743   4.822   2.939   4.063  0.1458  0.6341 -0.9362
 4776TIP3    H235744   4.844   2.982   3.919 -1.2702 -1.0727 -1.6995
 4777TIP3   OH235745   1.732   2.951   5.618 -0.2403 -0.0218 -0.0138
 4777TIP3    H135746   1.700   2.997   5.695 -1.3770  1.0216 -1.0523
 4777TIP3    H235747   1.740   2.860   5.645  1.4322  0.6410  1.9143
 4778TIP3   OH235748   2.870   3.067  10.587 -0.9322 -0.0484  0.0822
 4778TIP3    H135749   2.797   3.090  10.644 -1.3130 -1.3309  0.1394
 4778TIP3    H235750   2.844   2.984  10.547  1.1438 -1.3893  1.3232
 4779TIP3   OH235751   1.181   0.997   0.263  0.3311 -0.2574 -0.4112
 4779TIP3    H135752   1.213   0.912   0.292  0.7465  0.4621  1.3985
 4779TIP3    H235753   1.243   1.025   0.196  2.5375  0.2824  1.6950
 4780TIP3   OH235754   3.169   1.869  15.598 -0.3600 -0.4918 -0.1178
 4780TIP3    H135755   3.209   1.877  15.511  0.1644  1.8311  0.2690
 4780TIP3    H235756   3.172   1.958  15.634 -1.0702 -1.2855  2.0648
 4781TIP3   OH235757   0.577   5.803  15.558 -0.5212 -0.2909  0.1815
 4781TIP3    H135758   0.607   5.892  15.577 -2.5224  0.3970  0.3958
 4781TIP3    H235759   0.587   5.794  15.463 -0.5092  0.2600  0.1272
 4782TIP3   OH235760   1.947   2.086  14.465 -0.4225  0.3401  0.1195
 4782TIP3    H135761   1.969   2.015  14.405  0.4302  0.8947 -0.2400
 4782TIP3    H235762   1.861   2.116  14.436 -0.2195  0.2992 -0.5401
 4783TIP3   OH235763   3.629   4.449   3.973 -0.7284  0.6983  0.3512
 4783TIP3    H135764   3.553   4.505   3.953 -0.7908  0.4308 -0.1528
 4783TIP3    H235765   3.679   4.447   3.892 -0.6479  0.1382  0.4142
 4784TIP3   OH235766   4.761   4.301   5.124  0.2733  0.6358  0.5052
 4784TIP3    H135767   4.849   4.279   5.093  0.8392  2.3227  0.8300
 4784TIP3    H235768   4.762   4.396   5.135 -1.5029  0.6538  0.8139
 4785TIP3   OH235769   6.445   6.362  11.071  0.0107  1.0511 -0.6731
 4785TIP3    H135770   6.413   6.443  11.031  1.0192  1.3690 -0.8799
 4785TIP3    H235771   6.467   6.306  10.996 -0.4688  0.6734 -0.5342
 4786TIP3   OH235772   5.270   3.183  13.039 -0.8528  0.1105  0.1230
 4786TIP3    H135773   5.229   3.268  13.024  3.1003  1.9920 -1.4159
 4786TIP3    H235774   5.267   3.172  13.134 -2.2203  1.5274  0.2922
 4787TIP3   OH235775   2.184   2.330   6.059  0.5079  0.0527 -0.4737
 4787TIP3    H135776   2.148   2.330   6.148  2.1706  2.3961  0.3212
 4787TIP3    H235777   2.275   2.304   6.071  0.6574  0.0725 -1.5486
 4788TIP3   OH235778   0.014   4.605   3.198 -0.0031  0.2097  0.1456
 4788TIP3    H135779   0.099   4.602   3.241  0.2164 -0.0989 -0.3101
 4788TIP3    H235780  -0.039   4.661   3.255  0.4539  0.2749  0.5137
 4789TIP3   OH235781   4.273   1.537  16.420  0.2172 -0.3510  0.1251
 4789TIP3    H135782   4.187   1.500  16.399  0.0262  0.4354 -0.5616
 4789TIP3    H235783   4.333   1.495  16.359 -0.1155  0.9365 -1.1499
 4790TIP3   OH235784   4.894   2.795  10.866  0.5602 -0.2060  0.1289
 4790TIP3    H135785   4.833   2.827  10.799 -0.5142  0.4273  1.3537
 4790TIP3    H235786   4.930   2.875  10.905  1.0030 -0.5610  0.4550
 4791TIP3   OH235787   1.902   5.079  10.697 -0.2414  0.1763 -0.1207
 4791TIP3    H135788   1.882   5.166  10.732 -2.7306 -1.1108  1.9349
 4791TIP3    H235789   1.870   5.081  10.607 -0.6759  1.2512  0.0467
 4792TIP3   OH235790   6.061   1.734  13.422 -0.2072  0.1959  0.0196
 4792TIP3    H135791   6.105   1.818  13.433  1.8118 -0.8226  0.3067
 4792TIP3    H235792   6.004   1.726  13.498  0.2359  0.9296  0.4365
 4793TIP3   OH235793   4.162   3.683  16.728 -0.1661 -0.4826 -0.4019
 4793TIP3    H135794   4.073   3.669  16.695 -0.4156 -0.7613  0.3446
 4793TIP3    H235795   4.173   3.778  16.731  0.2288 -0.4331 -2.1780
 4794TIP3   OH235796   0.341   2.903   1.943 -0.6349  0.5414  0.2380
 4794TIP3    H135797   0.320   2.996   1.931  0.9012  1.1228  1.6527
 4794TIP3    H235798   0.256   2.859   1.943 -1.3743  1.9022 -0.7356
 4795TIP3   OH235799   4.561   2.597  11.263 -0.3918 -0.4210  0.2556
 4795TIP3    H135800   4.510   2.602  11.182 -1.3068  0.5310  0.8495
 4795TIP3    H235801   4.651   2.611  11.236 -0.8766  1.9795 -0.4344
 4796TIP3   OH235802   4.625   3.463  15.084 -0.4421  0.2725 -0.0339
 4796TIP3    H135803   4.538   3.490  15.113 -0.6832  1.5885 -1.7607
 4796TIP3    H235804   4.647   3.525  15.014  0.3805 -2.1417 -2.0646
 4797TIP3   OH235805   5.882   2.766  16.509  0.2889  0.2867  0.3439
 4797TIP3    H135806   5.825   2.807  16.445  1.3365  1.5442  0.1792
 4797TIP3    H235807   5.889   2.829  16.580 -0.0206 -0.6519  1.2324
 4798TIP3   OH235808   4.541   2.055  11.819  0.9087 -0.1940  0.8754
 4798TIP3    H135809   4.455   2.058  11.777  0.7441 -1.6210  1.0680
 4798TIP3    H235810   4.602   2.084  11.751  0.2185  1.5845  0.9774
 4799TIP3   OH235811   2.064   5.276  12.993  0.0776 -0.0928 -0.1825
 4799TIP3    H135812   2.111   5.346  13.039  0.3940  0.5910 -1.4902
 4799TIP3    H235813   2.125   5.203  12.991  0.6838  0.4210 -0.9083
 4800TIP3   OH235814   4.181   5.578   4.165 -0.4446  0.1444 -0.4459
 4800TIP3    H135815   4.115   5.644   4.184 -1.0613 -0.6146  0.1076
 4800TIP3    H235816   4.228   5.567   4.248  0.4006  0.6781 -0.8310
 4801TIP3   OH235817   0.290   5.270   4.546  0.2826 -0.2819  0.5728
 4801TIP3    H135818   0.200   5.247   4.566 -0.3736  1.5053 -0.1169
 4801TIP3    H235819   0.329   5.189   4.514 -1.2893 -0.9101  0.1550
 4802TIP3   OH235820   3.833   3.535  15.965  0.0890  0.5037  0.4516
 4802TIP3    H135821   3.887   3.554  15.889 -0.0372  2.0382  0.7137
 4802TIP3    H235822   3.895   3.507  16.033  0.0961 -2.0796 -0.5123
 4803TIP3   OH235823   4.368   6.633   2.419  0.2902 -0.4047 -0.3582
 4803TIP3    H135824   4.314   6.613   2.343  1.3181  0.6960 -1.4032
 4803TIP3    H235825   4.434   6.694   2.387 -0.0174  1.1107  1.6908
 4804TIP3   OH235826   0.147   1.972  12.418 -0.1206 -0.3322 -0.0960
 4804TIP3    H135827   0.160   1.887  12.460  0.1381 -0.0395  0.4364
 4804TIP3    H235828   0.148   2.034  12.491  0.2066  0.1769 -0.5313
 4805TIP3   OH235829   4.588   0.735   0.572  0.0067  0.7585 -0.4690
 4805TIP3    H135830   4.614   0.676   0.501  0.6025 -1.0522  1.1489
 4805TIP3    H235831   4.501   0.705   0.598  0.8280 -0.3705  1.2121
 4806TIP3   OH235832   0.160   2.697  12.617  0.0137 -0.6192  0.2443
 4806TIP3    H135833   0.103   2.709  12.541 -1.5778  2.0502  1.7171
 4806TIP3    H235834   0.197   2.784  12.633  0.0217 -1.0261  2.7136
 4807TIP3   OH235835   3.338   4.603   3.617  0.3596 -0.0568  0.0979
 4807TIP3    H135836   3.286   4.666   3.567  0.1884  0.5499  1.0174
 4807TIP3    H235837   3.274   4.547   3.660  0.4695  0.2847  0.7151
 4808TIP3   OH235838   3.236   0.481   6.380  0.5764  0.2534 -0.1512
 4808TIP3    H135839   3.305   0.541   6.406  1.4584 -0.9592  0.4493
 4808TIP3    H235840   3.282   0.410   6.335 -0.3455 -0.3137 -0.2302
 4809TIP3   OH235841   1.366   0.007  12.789  0.6923 -0.0791 -0.1830
 4809TIP3    H135842   1.448   0.047  12.820  0.0423  0.8183  0.4050
 4809TIP3    H235843   1.331   0.071  12.727 -0.4650  0.3727  0.9203
 4810TIP3   OH235844   1.485   1.766   3.229 -0.0438  0.0173 -0.2609
 4810TIP3    H135845   1.573   1.802   3.244 -0.4381  1.6931 -1.5959
 4810TIP3    H235846   1.499   1.693   3.169  0.4017  0.8295 -1.1818
 4811TIP3   OH235847   3.438   0.299   6.315  0.3391 -0.4349 -0.1554
 4811TIP3    H135848   3.443   0.282   6.409  1.5646  0.0977 -0.1090
 4811TIP3    H235849   3.509   0.246   6.278 -1.4500 -2.3584 -1.0730
 4812TIP3   OH235850   4.906   0.827  15.693  0.1891 -0.3063  0.2303
 4812TIP3    H135851   4.852   0.791  15.623 -0.2366 -1.8551  1.2961
 4812TIP3    H235852   4.967   0.756  15.714  1.3689  0.7214  0.3499
 4813TIP3   OH235853   4.056   6.262   6.196  0.1580 -0.0963 -0.0737
 4813TIP3    H135854   4.079   6.247   6.104  1.3954 -0.5609  0.2993
 4813TIP3    H235855   4.132   6.233   6.245 -0.7420 -0.4790  1.1508
 4814TIP3   OH235856   2.464   2.695   5.333  0.3722 -0.4344  0.2014
 4814TIP3    H135857   2.370   2.703   5.316  0.1119 -0.6062  1.4488
 4814TIP3    H235858   2.496   2.785   5.332  0.1971 -0.3730 -0.2170
 4815TIP3   OH235859   1.774   0.064  15.159 -0.1921 -0.4597 -0.0283
 4815TIP3    H135860   1.801   0.103  15.076 -0.2307 -0.0080  0.1685
 4815TIP3    H235861   1.704   0.121  15.191 -0.1919 -0.6436  0.3032
 4816TIP3   OH235862   4.707   1.672   0.622  0.3041  0.1151  0.2595
 4816TIP3    H135863   4.657   1.721   0.686 -0.1639 -1.1683  0.9192
 4816TIP3    H235864   4.681   1.581   0.636  3.5951 -0.8022  1.4003
 4817TIP3   OH235865   2.657   3.798   4.350 -0.2561  0.0618  0.2968
 4817TIP3    H135866   2.596   3.861   4.310  0.9107  1.1909  0.2526
 4817TIP3    H235867   2.706   3.849   4.414  0.8435 -0.7591  0.1389
 4818TIP3   OH235868   0.313   6.082  13.916  0.0270  0.1297  0.0816
 4818TIP3    H135869   0.278   6.091  14.005  0.6231  0.7304  0.2652
 4818TIP3    H235870   0.252   6.131  13.861 -1.0391 -1.2627 -0.0438
 4819TIP3   OH235871   4.680   4.784  13.354 -0.3187  0.5740 -0.5997
 4819TIP3    H135872   4.680   4.689  13.365 -0.2510  0.6445  0.0773
 4819TIP3    H235873   4.703   4.818  13.441  1.7930  1.1462 -1.3121
 4820TIP3   OH235874   5.564   5.484  11.235 -0.0833  0.1654  0.4040
 4820TIP3    H135875   5.594   5.533  11.159 -0.8257  0.4061  0.2517
 4820TIP3    H235876   5.500   5.542  11.277 -0.7738 -0.5621  0.3748
 4821TIP3   OH235877   5.116   2.336  15.508 -0.0171 -0.0626  0.7927
 4821TIP3    H135878   5.193   2.282  15.525 -0.2343 -0.0673  1.8230
 4821TIP3    H235879   5.058   2.319  15.581 -1.3335 -0.5993 -0.3331
 4822TIP3   OH235880   2.112   2.742  14.824 -0.4179  0.2713 -0.0776
 4822TIP3    H135881   2.202   2.744  14.792 -1.1530 -0.6082 -2.3723
 4822TIP3    H235882   2.113   2.676  14.894  0.4644 -0.6577 -0.9465
 4823TIP3   OH235883   1.627   4.740  13.225  0.0841 -0.2735 -0.6365
 4823TIP3    H135884   1.623   4.771  13.135 -1.3616 -0.0748 -0.5151
 4823TIP3    H235885   1.584   4.655  13.224  0.4122 -0.4479 -0.2038
 4824TIP3   OH235886   2.007   3.004   5.946  0.1610 -0.1734 -0.2649
 4824TIP3    H135887   1.978   3.065   5.878 -0.4721 -0.0448  0.1087
 4824TIP3    H235888   2.012   2.919   5.902  1.2520  0.1733 -0.8424
 4825TIP3   OH235889   0.102   3.358  12.878 -0.1259 -0.6893  0.3621
 4825TIP3    H135890   0.057   3.409  12.811 -1.8399 -1.5030  0.8576
 4825TIP3    H235891   0.182   3.408  12.897 -2.8768  3.3342  2.7337
 4826TIP3   OH235892   2.843   4.721  16.575 -0.2237 -0.1041  0.0700
 4826TIP3    H135893   2.921   4.773  16.556 -0.7357  1.2066  1.3225
 4826TIP3    H235894   2.873   4.653  16.635  0.0119  0.2701  0.3800
 4827TIP3   OH235895   0.152   4.861  11.289 -0.0991 -0.0333  0.2440
 4827TIP3    H135896   0.140   4.772  11.323  2.1169 -0.6881 -0.4936
 4827TIP3    H235897   0.098   4.864  11.211 -3.0761  0.5705  2.1875
 4828TIP3   OH235898   1.839   1.095  16.318 -0.0127  0.2511 -0.4214
 4828TIP3    H135899   1.892   1.017  16.335  0.5227  0.6635 -0.1521
 4828TIP3    H235900   1.750   1.070  16.340  0.4182  0.2722  1.4982
 4829TIP3   OH235901   6.368   2.510  11.292  0.7235  0.6755  0.1833
 4829TIP3    H135902   6.424   2.433  11.292  0.1397  0.2162  1.7727
 4829TIP3    H235903   6.282   2.478  11.319  0.0969  1.6504 -0.5779
 4830TIP3   OH235904   1.789   5.673  14.726  0.8257  0.5431 -0.2932
 4830TIP3    H135905   1.858   5.607  14.730 -1.0109 -1.4175  0.7849
 4830TIP3    H235906   1.753   5.676  14.815 -0.5745  1.3864 -0.8530
 4831TIP3   OH235907   0.474   0.072   2.206  0.4692  0.0620 -0.4715
 4831TIP3    H135908   0.475   0.059   2.301  0.6709  0.3461 -0.4332
 4831TIP3    H235909   0.410   0.009   2.174  0.5007 -0.1305 -0.1604
 4832TIP3   OH235910   0.860   3.853   0.228  0.0271 -0.4939  0.0843
 4832TIP3    H135911   0.883   3.915   0.297 -1.1675 -1.6469  1.6050
 4832TIP3    H235912   0.939   3.845   0.175  0.3131  2.0657 -0.0212
 4833TIP3   OH235913   3.359   1.778   4.957  0.2835 -0.0836 -0.2985
 4833TIP3    H135914   3.398   1.843   5.016 -1.0438 -0.4654  1.0467
 4833TIP3    H235915   3.378   1.694   4.998 -3.2842 -0.2481  1.3895
 4834TIP3   OH235916   2.158   1.376  15.848 -0.5227 -0.1029  0.0683
 4834TIP3    H135917   2.239   1.428  15.851 -1.3562  1.1985  1.2262
 4834TIP3    H235918   2.128   1.385  15.758  0.9892 -1.2448 -0.5969
 4835TIP3   OH235919   5.957   3.791   5.498  0.1651 -0.1823  0.4649
 4835TIP3    H135920   5.902   3.712   5.494 -0.2234  0.0963  0.2192
 4835TIP3    H235921   5.939   3.828   5.585  0.8860 -0.7420  0.8614
 4836TIP3   OH235922   0.046   0.334   3.138  0.1155  0.1116  0.1949
 4836TIP3    H135923  -0.037   0.317   3.093 -0.4518  0.9883  0.8829
 4836TIP3    H235924   0.110   0.284   3.088 -0.5313  0.8045 -1.3916
 4837TIP3   OH235925   3.328   6.587   3.105 -0.2242 -0.3886 -0.1436
 4837TIP3    H135926   3.347   6.671   3.147 -1.4242  0.3644 -1.0295
 4837TIP3    H235927   3.312   6.527   3.178 -1.7604  0.7592  0.5318
 4838TIP3   OH235928   6.037   5.453   2.597  0.0379 -0.0809 -0.2364
 4838TIP3    H135929   5.943   5.467   2.609 -0.0235 -0.0397 -0.7638
 4838TIP3    H235930   6.074   5.462   2.685 -0.4998 -0.4770  0.0315
 4839TIP3   OH235931   6.530   3.847  14.417 -0.0137 -0.1022 -0.7522
 4839TIP3    H135932   6.495   3.845  14.328  0.3701 -2.2324 -0.9237
 4839TIP3    H235933   6.462   3.806  14.470  0.1476  0.3001 -0.2364
 4840TIP3   OH235934   2.596   2.543   0.384 -0.8411  0.6102 -0.0734
 4840TIP3    H135935   2.503   2.532   0.403 -1.0946 -0.2192 -1.6036
 4840TIP3    H235936   2.634   2.456   0.397 -0.3885  0.8116 -0.0219
 4841TIP3   OH235937   6.449   3.556   4.294 -0.5072  0.4508 -0.0652
 4841TIP3    H135938   6.434   3.523   4.383  1.4615  0.1290  0.1956
 4841TIP3    H235939   6.466   3.649   4.306  1.5531  0.0895  0.1693
 4842TIP3   OH235940   6.471   6.226  12.469 -0.2547  0.2543  0.5862
 4842TIP3    H135941   6.527   6.286  12.520 -1.1285  0.7568  0.9692
 4842TIP3    H235942   6.496   6.241  12.378  1.5314 -0.8491  0.8383
 4843TIP3   OH235943   5.592   5.060   0.880  0.5214 -0.0308  0.1779
 4843TIP3    H135944   5.501   5.042   0.857  0.8073  0.0992 -1.1818
 4843TIP3    H235945   5.592   5.067   0.975 -1.1806  1.5304  0.1195
 4844TIP3   OH235946   3.463   6.730  14.991 -0.0098 -0.1820  0.1365
 4844TIP3    H135947   3.393   6.746  14.929 -0.4383  0.9206  0.8895
 4844TIP3    H235948   3.538   6.778  14.955 -0.6303  1.6015  1.1434
 4845TIP3   OH235949   3.230   5.604  15.584 -0.6825  0.3859  0.2662
 4845TIP3    H135950   3.146   5.575  15.547 -1.0836  0.0413  1.3952
 4845TIP3    H235951   3.205   5.670  15.649 -0.2200 -0.7286  1.6262
 4846TIP3   OH235952   3.206   0.321  12.927 -0.6623  0.3592 -0.1884
 4846TIP3    H135953   3.163   0.247  12.971  0.4954 -0.0371  0.2903
 4846TIP3    H235954   3.250   0.281  12.852 -0.5057  0.6552 -0.2529
 4847TIP3   OH235955   3.335   0.907   4.681  1.0117 -0.9612 -0.0863
 4847TIP3    H135956   3.262   0.911   4.619  2.0967  0.3880 -1.3570
 4847TIP3    H235957   3.307   0.844   4.747 -0.1131 -2.6465 -2.0531
 4848TIP3   OH235958   0.833   0.098   5.316  0.2145  0.4231  0.4821
 4848TIP3    H135959   0.748   0.115   5.275  0.5438  1.8721  0.3729
 4848TIP3    H235960   0.895   0.152   5.268  1.3807 -1.2752 -0.0128
 4849TIP3   OH235961   0.080   6.620  14.301 -0.6682  0.6510 -0.1325
 4849TIP3    H135962   0.107   6.699  14.255  0.0163  0.3778 -0.2221
 4849TIP3    H235963   0.135   6.618  14.380  0.1011 -0.2868 -0.6693
 4850TIP3   OH235964   3.000   0.928  17.301 -0.1707 -0.2642 -0.2367
 4850TIP3    H135965   2.991   1.023  17.308 -0.1935 -0.2372 -0.5794
 4850TIP3    H235966   3.009   0.912  17.207 -0.3646 -0.6164 -0.1980
 4851TIP3   OH235967   0.745   4.715  14.243 -0.1988  0.2367 -0.1098
 4851TIP3    H135968   0.691   4.793  14.233  0.9286  0.9713 -0.6539
 4851TIP3    H235969   0.727   4.663  14.164 -1.3930 -0.3438  0.5353
 4852TIP3   OH235970   3.519   0.046  16.762 -0.3369 -0.2515 -0.0087
 4852TIP3    H135971   3.562   0.065  16.846 -3.3799  2.0049  1.2291
 4852TIP3    H235972   3.457  -0.024  16.783 -0.5273 -0.2604 -0.5962
 4853TIP3   OH235973   4.667   4.713  12.147  0.0849 -0.1071 -0.4081
 4853TIP3    H135974   4.601   4.664  12.196 -1.1628  1.0284 -0.8714
 4853TIP3    H235975   4.639   4.704  12.056 -0.9358  2.4061 -0.4290
 4854TIP3   OH235976   3.055   1.190  16.472  0.2306 -0.5488  0.0232
 4854TIP3    H135977   3.110   1.122  16.434 -0.1133 -0.0900 -1.3426
 4854TIP3    H235978   2.977   1.191  16.417 -0.2359  0.2338  0.6788
 4855TIP3   OH235979   3.019   4.648  16.268  0.2609 -0.3615 -0.0925
 4855TIP3    H135980   3.060   4.709  16.329 -1.0164  0.7728 -0.3032
 4855TIP3    H235981   2.929   4.638  16.301 -0.8367  1.1817 -2.3191
 4856TIP3   OH235982   1.314   6.514  16.397 -0.4725 -0.4059  0.9331
 4856TIP3    H135983   1.372   6.499  16.322 -1.5696 -2.0091  0.3681
 4856TIP3    H235984   1.373   6.514  16.472  0.5499  0.4357  0.1693
 4857TIP3   OH235985   1.814   6.311  12.993  0.0658 -1.0469 -0.1833
 4857TIP3    H135986   1.726   6.282  12.972 -0.2033  0.4052 -1.1607
 4857TIP3    H235987   1.857   6.322  12.908  0.0872  1.4916  0.0748
 4858TIP3   OH235988   0.599   2.459  12.366  0.0351 -0.3090  0.0312
 4858TIP3    H135989   0.639   2.393  12.423  0.0516  0.4531  0.9052
 4858TIP3    H235990   0.673   2.504  12.326  0.0235 -0.7267 -0.4760
 4859TIP3   OH235991   3.662   0.911  17.297  0.0638 -0.8327  0.0281
 4859TIP3    H135992   3.594   0.868  17.244  0.0661 -0.5768 -0.1852
 4859TIP3    H235993   3.613   0.955  17.367 -0.0603 -0.0273 -0.5529
 4860TIP3   OH235994   0.092   5.815   3.774 -0.0567  0.2108  0.1946
 4860TIP3    H135995   0.140   5.780   3.848 -1.1016  0.8189  1.2032
 4860TIP3    H235996   0.047   5.740   3.736  2.4410 -0.5651 -1.4269
 4861TIP3   OH235997   0.876   4.824  15.758 -0.1354  0.0903  0.1079
 4861TIP3    H135998   0.863   4.746  15.813  0.6452  0.0768  0.2777
 4861TIP3    H235999   0.879   4.897  15.820 -2.2015  0.4477 -0.1339
 4862TIP3   OH236000   4.935   0.380   5.783 -0.0066  0.4288  0.3561
 4862TIP3    H136001   4.964   0.469   5.766  1.9875  0.1550  1.9793
 4862TIP3    H236002   4.910   0.379   5.875  0.0500 -0.6795  0.3803
 4863TIP3   OH236003   3.041   2.411  12.093 -0.2369  0.1831  0.0619
 4863TIP3    H136004   2.980   2.340  12.077 -1.2126  0.5373  1.9458
 4863TIP3    H236005   3.105   2.375  12.154 -0.6901  0.8614  0.9644
 4864TIP3   OH236006   4.578   4.768  11.412  0.5716  0.5265  0.0435
 4864TIP3    H136007   4.643   4.701  11.434 -1.0827 -1.5741 -1.0634
 4864TIP3    H236008   4.586   4.780  11.318  0.9245  2.0439  0.2386
 4865TIP3   OH236009   2.372   4.609   2.463 -0.7685 -0.3141  0.4316
 4865TIP3    H136010   2.407   4.527   2.427  0.1443  0.0656  0.4274
 4865TIP3    H236011   2.356   4.664   2.387 -1.0675 -0.3631  0.4574
 4866TIP3   OH236012   6.497   5.192   5.516 -0.1506 -0.1130  0.3498
 4866TIP3    H136013   6.494   5.239   5.433  1.0772  0.7987  0.7764
 4866TIP3    H236014   6.495   5.262   5.582  1.5317 -0.6522  1.0154
 4867TIP3   OH236015   1.819   3.742  13.759  0.2371  0.0626  0.7635
 4867TIP3    H136016   1.906   3.717  13.727 -1.0947 -0.8921 -2.5113
 4867TIP3    H236017   1.766   3.663  13.748 -2.0796  1.7960 -1.7509
 4868TIP3   OH236018   4.472   6.122  11.624 -0.2528  0.2801 -0.7819
 4868TIP3    H136019   4.391   6.153  11.583  0.3233  0.5803 -1.7266
 4868TIP3    H236020   4.506   6.199  11.670 -0.8881 -0.0510  0.2542
 4869TIP3   OH236021   1.303   1.661  14.342  0.4622  0.4970  0.7699
 4869TIP3    H136022   1.253   1.594  14.295  1.2865  1.3495 -1.4394
 4869TIP3    H236023   1.356   1.612  14.404 -0.5586 -0.7033  0.7278
 4870TIP3   OH236024   0.679   4.404   4.718  1.0391 -0.3920  0.0330
 4870TIP3    H136025   0.760   4.454   4.730  0.6933 -0.0840  1.1737
 4870TIP3    H236026   0.703   4.335   4.656  1.4633  1.3265 -1.8213
 4871TIP3   OH236027   2.174   5.218  11.027 -0.0449 -0.2831 -0.3505
 4871TIP3    H136028   2.180   5.151  10.959 -0.4338 -1.0341  0.3476
 4871TIP3    H236029   2.100   5.273  11.000  0.7468  0.3463 -1.3231
 4872TIP3   OH236030   4.296   5.094  14.314 -0.3877  0.0203 -0.8311
 4872TIP3    H136031   4.336   5.180  14.307 -1.5141  0.5208 -1.4427
 4872TIP3    H236032   4.313   5.067  14.404  1.2271  0.2268 -1.0411
 4873TIP3   OH236033   2.457   4.384  14.802  0.0009 -0.5360 -0.6614
 4873TIP3    H136034   2.387   4.339  14.754 -1.9009 -0.5835  1.9581
 4873TIP3    H236035   2.499   4.315  14.853 -1.3728  0.1428  1.5427
 4874TIP3   OH236036   4.867   5.785   0.125 -0.3851  0.3698  0.4077
 4874TIP3    H136037   4.782   5.743   0.140 -0.1552  0.2995  1.6262
 4874TIP3    H236038   4.909   5.785   0.211  0.8966  0.3228 -0.1978
 4875TIP3   OH236039   6.425   6.022  12.147  0.4071 -0.6284  0.3808
 4875TIP3    H136040   6.444   6.024  12.053 -3.0851  0.5043 -0.4754
 4875TIP3    H236041   6.455   6.107  12.180  2.4314 -1.3670  0.5514
 4876TIP3   OH236042   5.006   1.133  17.260  0.3304  0.2336 -0.6008
 4876TIP3    H136043   4.922   1.131  17.306  0.7880  1.5501  0.3489
 4876TIP3    H236044   5.060   1.069  17.307  0.1833  0.1585 -0.5350
 4877TIP3   OH236045   4.980   1.473   5.311 -0.1465  0.0172  0.5720
 4877TIP3    H136046   5.020   1.495   5.395  0.3111  2.8862 -0.2992
 4877TIP3    H236047   5.047   1.493   5.246 -0.6915 -1.6056 -0.5614
 4878TIP3   OH236048   1.842   1.812  13.276 -0.4516 -0.7205  0.1378
 4878TIP3    H136049   1.748   1.823  13.261 -0.2681 -0.9488 -1.3322
 4878TIP3    H236050   1.879   1.799  13.189  1.2855  1.8378  0.3907
 4879TIP3   OH236051   1.674   0.954  11.214  0.1896  0.6776 -0.2311
 4879TIP3    H136052   1.644   0.865  11.196  0.5269  0.8679 -1.9131
 4879TIP3    H236053   1.679   0.995  11.127  0.6599  2.1292  0.4618
 4880TIP3   OH236054   1.883   0.395   2.688 -0.1992 -0.5410 -0.2770
 4880TIP3    H136055   1.804   0.432   2.728  0.5394  1.1995 -0.3287
 4880TIP3    H236056   1.946   0.389   2.761  1.0767  2.4231 -0.9816
 4881TIP3   OH236057   4.629   4.509  14.263 -0.1250  0.4568  0.2487
 4881TIP3    H136058   4.589   4.591  14.294 -2.0745 -0.8080  1.3083
 4881TIP3    H236059   4.596   4.499  14.174  0.5994  1.1147 -0.0965
 4882TIP3   OH236060   2.788   5.978   1.476  0.3870  0.0185  0.3675
 4882TIP3    H136061   2.804   5.887   1.450  2.2533  0.6673 -1.0084
 4882TIP3    H236062   2.810   6.029   1.398  0.7401  1.7361  1.5437
 4883TIP3   OH236063   1.024   0.205   5.136 -0.0346 -0.6643 -0.1578
 4883TIP3    H136064   1.022   0.292   5.098  0.8476 -0.9257 -0.8313
 4883TIP3    H236065   1.046   0.147   5.063 -1.2864 -1.5451  0.1251
 4884TIP3   OH236066   1.379   5.137  15.999 -0.1493  0.0452  0.0701
 4884TIP3    H136067   1.410   5.226  15.981  0.8313 -0.0910  0.9950
 4884TIP3    H236068   1.455   5.081  15.980 -0.9273 -0.6654 -1.0539
 4885TIP3   OH236069   0.776   1.782  14.305  0.5507 -0.6771 -0.4046
 4885TIP3    H136070   0.825   1.741  14.376  0.6409  1.2974  0.7327
 4885TIP3    H236071   0.834   1.775  14.229  0.5588 -2.5847 -0.2817
 4886TIP3   OH236072   3.218   6.557  14.587 -0.3121 -0.1327  0.2383
 4886TIP3    H136073   3.311   6.557  14.611 -0.1127  2.5113 -0.2931
 4886TIP3    H236074   3.215   6.510  14.503  0.8088  1.1032 -0.5208
 4887TIP3   OH236075   2.869   0.906  14.624 -0.3551  0.3271 -0.1075
 4887TIP3    H136076   2.845   0.998  14.629  1.0071  0.7611 -0.9268
 4887TIP3    H236077   2.788   0.858  14.643 -1.3247  1.6804 -0.7055
 4888TIP3   OH236078   2.468   1.723  16.117 -1.2078 -0.8875  0.2759
 4888TIP3    H136079   2.523   1.674  16.178 -1.2121  0.2094  1.1851
 4888TIP3    H236080   2.380   1.687  16.129 -1.5628  0.4915  2.2545
 4889TIP3   OH236081   5.594   5.783  12.668 -0.4605 -0.4584  0.2053
 4889TIP3    H136082   5.556   5.839  12.736  1.5852  0.6011  0.5802
 4889TIP3    H236083   5.589   5.695  12.704  1.3578  0.1571  2.2291
 4890TIP3   OH236084   1.174   5.734  16.558 -0.2807 -0.0772  0.1307
 4890TIP3    H136085   1.131   5.811  16.594  0.6080  0.2061  0.6071
 4890TIP3    H236086   1.245   5.715  16.619 -0.5546 -1.3492  0.0925
 4891TIP3   OH236087   5.074   6.197   3.398  0.1003  0.6616  0.1567
 4891TIP3    H136088   5.082   6.292   3.409  0.2510  0.6724 -0.0391
 4891TIP3    H236089   5.112   6.179   3.311 -1.7145  0.6705 -0.6960
 4892TIP3   OH236090   5.124   6.367  12.884 -0.0359  0.5697 -0.4232
 4892TIP3    H136091   5.076   6.445  12.913 -0.0658  0.9360 -1.4131
 4892TIP3    H236092   5.142   6.383  12.791 -0.4269 -0.7945 -0.7656
 4893TIP3   OH236093   6.698   0.462   4.016  0.3763  0.1481 -0.0359
 4893TIP3    H136094   6.740   0.548   4.009 -2.2132  1.5454  0.0252
 4893TIP3    H236095   6.724   0.430   4.103  0.0330  1.7017  0.6743
 4894TIP3   OH236096   6.083   1.138   1.497 -0.0410  0.5134  0.4019
 4894TIP3    H136097   6.166   1.146   1.451 -0.4160  0.2271 -0.3417
 4894TIP3    H236098   6.035   1.071   1.448 -0.3612  0.0376  1.3551
 4895TIP3   OH236099   1.033   0.668   1.434  0.0744 -0.1439 -0.0013
 4895TIP3    H136100   1.123   0.638   1.445  0.0134  0.2380  1.7511
 4895TIP3    H236101   0.982   0.612   1.493 -0.9507 -0.7490 -1.3963
 4896TIP3   OH236102   3.008   3.829  13.088 -0.0490 -0.6099 -0.3476
 4896TIP3    H136103   2.981   3.887  13.017 -1.6131 -1.5082 -0.5374
 4896TIP3    H236104   2.953   3.855  13.162  2.0152  0.7604  0.8000
 4897TIP3   OH236105   2.513   1.653   2.437 -0.4293 -0.3482  0.0454
 4897TIP3    H136106   2.532   1.560   2.424 -2.1173 -0.6098 -0.8395
 4897TIP3    H236107   2.560   1.697   2.366 -0.3170 -0.6157 -0.0480
 4898TIP3   OH236108   4.291   1.091  13.240 -0.1050 -0.9248 -0.1483
 4898TIP3    H136109   4.351   1.083  13.315 -0.0529 -0.9398 -0.1912
 4898TIP3    H236110   4.204   1.091  13.279 -0.0678 -0.5803 -0.0571
 4899TIP3   OH236111   2.331   2.101  11.342  0.3094  0.2956 -0.3883
 4899TIP3    H136112   2.349   2.105  11.248 -2.7672  2.1763 -1.0264
 4899TIP3    H236113   2.412   2.132  11.383  1.8816 -0.9847 -2.3177
 4900TIP3   OH236114   0.740   5.320  16.397 -0.0070  0.2410 -0.0044
 4900TIP3    H136115   0.706   5.345  16.312  1.4777  0.5281 -0.5475
 4900TIP3    H236116   0.724   5.396  16.453 -1.2988 -0.0804  0.0933
 4901TIP3   OH236117   2.191   5.884  11.319  0.0568 -0.2055 -0.2708
 4901TIP3    H136118   2.101   5.916  11.324  0.1411  0.1802 -1.1786
 4901TIP3    H236119   2.182   5.789  11.316 -0.3140 -0.1743 -0.1881
 4902TIP3   OH236120   2.983   6.106  11.677  0.2817  0.2830  0.1778
 4902TIP3    H136121   2.894   6.106  11.712 -0.4021 -1.1680 -1.3689
 4902TIP3    H236122   3.030   6.169  11.730 -1.9215  1.8716  0.4043
 4903TIP3   OH236123   1.602   1.675   5.435 -0.3259  0.4266 -0.4138
 4903TIP3    H136124   1.601   1.628   5.518  0.4406 -0.1387 -0.7084
 4903TIP3    H236125   1.588   1.607   5.369  1.1854  0.5203 -0.8763
 4904TIP3   OH236126   1.255   4.056   5.164  0.2704 -0.4211  0.3739
 4904TIP3    H136127   1.331   4.065   5.221  0.0115 -1.3835  0.8959
 4904TIP3    H236128   1.212   3.976   5.194 -0.4652 -0.3634 -0.4845
 4905TIP3   OH236129   2.514   1.175  15.349  0.1646  0.4891 -0.0848
 4905TIP3    H136130   2.478   1.090  15.326  0.3006  1.0635 -2.7436
 4905TIP3    H236131   2.592   1.155  15.402 -0.0532 -1.0098 -0.3010
 4906TIP3   OH236132   1.070   0.873  11.205 -0.1386  0.4589  0.5651
 4906TIP3    H136133   0.995   0.832  11.163  1.1143  0.4986 -1.8724
 4906TIP3    H236134   1.033   0.923  11.278 -2.6668  1.5673 -1.3278
 4907TIP3   OH236135   5.182   0.998   1.971 -0.1105 -0.2460  0.0159
 4907TIP3    H136136   5.191   0.905   1.951  0.3085 -0.5655  1.5227
 4907TIP3    H236137   5.105   1.026   1.923  0.2578 -1.1545 -1.1559
 4908TIP3   OH236138   3.322   2.718  16.570 -0.0145  0.1384  0.0930
 4908TIP3    H136139   3.393   2.697  16.631  0.1701  0.5394  0.0194
 4908TIP3    H236140   3.337   2.810  16.546  0.0147 -0.0603 -0.6873
 4909TIP3   OH236141   2.028   0.129   0.443  0.0353 -0.5637 -0.2374
 4909TIP3    H136142   1.955   0.103   0.387 -1.1798  2.3589 -0.1542
 4909TIP3    H236143   2.047   0.050   0.494 -2.7002 -1.5988 -0.6277
 4910TIP3   OH236144   5.483   1.148   5.994  0.4581  0.8949  0.0150
 4910TIP3    H136145   5.539   1.191   6.059  1.3494 -1.9832  1.3301
 4910TIP3    H236146   5.423   1.094   6.046 -1.8670  1.8932 -1.4766
 4911TIP3   OH236147   3.334   1.566  12.105 -0.6540 -0.4290  0.0422
 4911TIP3    H136148   3.406   1.609  12.150  0.3762  0.0055 -1.9302
 4911TIP3    H236149   3.367   1.479  12.085 -0.0918  0.2338 -2.1094
 4912TIP3   OH236150   2.534   2.537   5.951  0.6989  0.2232  0.0706
 4912TIP3    H136151   2.583   2.618   5.968  1.2538 -0.6048  3.1504
 4912TIP3    H236152   2.442   2.563   5.957  0.8652  0.7462  0.4201
 4913TIP3   OH236153   1.135   2.558   0.718 -0.8712  0.5220 -0.3273
 4913TIP3    H136154   1.106   2.468   0.733 -0.0687  0.4341  0.8076
 4913TIP3    H236155   1.199   2.552   0.648  1.7759 -0.3515  1.9803
 4914TIP3   OH236156   4.118   2.398  13.572 -0.1696 -0.2130  0.0763
 4914TIP3    H136157   4.180   2.396  13.645  1.3079 -0.8997 -1.1334
 4914TIP3    H236158   4.114   2.308  13.541  0.0775  0.2328 -1.3440
 4915TIP3   OH236159   4.268   5.772   5.497  0.7768  0.4721  0.1336
 4915TIP3    H136160   4.340   5.805   5.443 -0.1521  0.7865 -0.9495
 4915TIP3    H236161   4.189   5.786   5.443  0.0404 -0.9460  0.8003
 4916TIP3   OH236162   0.805   6.267   5.524  0.3862  0.3957 -0.0112
 4916TIP3    H136163   0.811   6.256   5.619 -0.3145  1.1266  0.1271
 4916TIP3    H236164   0.731   6.326   5.511 -1.2921 -1.8036 -1.1452
 4917TIP3   OH236165   3.479   2.494   6.692  0.1119  0.2906  0.4348
 4917TIP3    H136166   3.479   2.400   6.675 -0.1121  0.4070 -0.2098
 4917TIP3    H236167   3.515   2.501   6.781 -0.1077 -0.4151  0.5920
 4918TIP3   OH236168   3.580   4.069  14.342  0.1932 -0.0836  0.1301
 4918TIP3    H136169   3.499   4.119  14.340 -1.4909 -2.5661  1.1421
 4918TIP3    H236170   3.591   4.045  14.434  1.6497 -0.4731 -0.1163
 4919TIP3   OH236171   0.038   2.858  17.009 -0.4356  0.1639  0.0324
 4919TIP3    H136172   0.013   2.868  17.101  0.3688 -2.6252  0.6458
 4919TIP3    H236173  -0.042   2.882  16.961 -0.9502  1.4483  1.4087
 4920TIP3   OH236174   3.748   2.475   2.937  0.2012 -0.6727 -0.0948
 4920TIP3    H136175   3.663   2.431   2.938  0.4013 -1.1743  2.1499
 4920TIP3    H236176   3.731   2.560   2.978  0.8293 -0.9704  0.8247
 4921TIP3   OH236177   0.803   1.405   4.854  0.6004 -0.5207 -0.0603
 4921TIP3    H136178   0.794   1.373   4.944  0.9417 -2.2371 -0.5857
 4921TIP3    H236179   0.847   1.490   4.863 -1.0693  0.2413  1.4764
 4922TIP3   OH236180   2.982   5.604  17.219 -0.2550 -0.0316 -0.2015
 4922TIP3    H136181   2.970   5.512  17.195 -1.9582 -0.0493  0.5979
 4922TIP3    H236182   3.075   5.620  17.206 -0.1172 -1.5572 -1.4245
 4923TIP3   OH236183   4.161   5.839   4.368  0.0014 -0.2379 -0.9247
 4923TIP3    H136184   4.227   5.774   4.392  0.6741  0.7840  0.0899
 4923TIP3    H236185   4.173   5.910   4.431 -0.2986  1.1529 -2.3671
 4924TIP3   OH236186   3.762   5.457   0.738 -0.3102 -0.6168 -0.2461
 4924TIP3    H136187   3.732   5.433   0.826  0.3935 -0.6009  0.0048
 4924TIP3    H236188   3.770   5.373   0.692  0.9800 -0.7877  0.2514
 4925TIP3   OH236189   3.965   4.786  15.424  0.2670 -0.0130  0.3667
 4925TIP3    H136190   3.930   4.828  15.503  0.6155  0.2937  0.3617
 4925TIP3    H236191   3.895   4.795  15.359  0.0666 -0.0658  0.5726
 4926TIP3   OH236192   2.363   0.171  12.933 -0.2772  0.1637  0.1170
 4926TIP3    H136193   2.321   0.123  13.004  0.6458 -0.3331  0.3451
 4926TIP3    H236194   2.367   0.109  12.861  0.4744  0.0420  0.2538
 4927TIP3   OH236195   4.958   2.684   3.182  0.3213  0.2604  0.1323
 4927TIP3    H136196   4.875   2.640   3.165 -0.8984  2.1331  0.8980
 4927TIP3    H236197   4.992   2.642   3.261  0.2697 -0.6819 -0.3272
 4928TIP3   OH236198   1.652   2.405   4.566 -0.0290  0.1370  0.6932
 4928TIP3    H136199   1.638   2.498   4.547 -1.3427  0.1702  1.7257
 4928TIP3    H236200   1.567   2.364   4.551  0.4409 -0.8421  0.6238
 4929TIP3   OH236201   0.178   4.568   1.161 -0.4191  0.3974  0.4866
 4929TIP3    H136202   0.268   4.588   1.185  0.2071  2.0298 -2.7118
 4929TIP3    H236203   0.183   4.482   1.120 -0.8013 -0.5384  2.2730
 4930TIP3   OH236204   5.287   6.155  13.314 -0.1287  0.2178 -0.5756
 4930TIP3    H136205   5.298   6.160  13.219 -1.2322  1.7447 -0.6646
 4930TIP3    H236206   5.195   6.177  13.329 -0.3202 -1.2589  0.7834
 4931TIP3   OH236207   6.057   1.859  16.621  0.1541 -0.4577 -0.4273
 4931TIP3    H136208   6.029   1.787  16.678 -2.6013  1.0071  0.2764
 4931TIP3    H236209   5.977   1.883  16.573  1.1080  1.7820 -1.0039
 4932TIP3   OH236210   2.658   4.601   3.653  0.5218  0.5835  0.1459
 4932TIP3    H136211   2.624   4.517   3.621  0.4550  0.3931  0.7025
 4932TIP3    H236212   2.619   4.666   3.595 -0.1906  0.3034  0.2962
 4933TIP3   OH236213   3.876   0.204   5.776 -0.4696 -0.7283  0.4842
 4933TIP3    H136214   3.921   0.276   5.822 -2.0798  1.0338 -0.5603
 4933TIP3    H236215   3.939   0.177   5.709  0.3034 -0.5545  1.1156
 4934TIP3   OH236216   5.116   2.255   3.395 -0.3381 -0.1504 -0.1394
 4934TIP3    H136217   5.104   2.255   3.490 -0.5527 -2.4319 -0.1209
 4934TIP3    H236218   5.211   2.260   3.383 -0.2968 -0.1107  0.1871
 4935TIP3   OH236219   1.918   2.537  15.236  0.6272 -0.3954  0.1032
 4935TIP3    H136220   1.835   2.502  15.268 -0.6085  1.2443 -1.1324
 4935TIP3    H236221   1.930   2.618  15.284  2.0271 -1.0540  0.9233
 4936TIP3   OH236222   2.998   6.463   5.376 -0.5594 -0.9159  0.6796
 4936TIP3    H136223   2.956   6.492   5.295  0.5782 -0.9581  0.0536
 4936TIP3    H236224   3.008   6.368   5.365  1.7368 -0.6293 -0.2062
 4937TIP3   OH236225   5.373   0.370   2.501  0.7025 -0.3712 -0.3831
 4937TIP3    H136226   5.387   0.446   2.557 -0.1751  0.0960 -0.7858
 4937TIP3    H236227   5.418   0.298   2.546  0.8310  0.2013  0.4200
 4938TIP3   OH236228   5.453   2.284  16.932 -0.2051 -0.1474 -0.4388
 4938TIP3    H136229   5.443   2.326  17.017  1.0770 -0.3447 -0.1777
 4938TIP3    H236230   5.387   2.326  16.877 -1.9854 -0.9524  0.9788
 4939TIP3   OH236231   4.322   0.256  12.732 -0.0243  0.2717  0.2598
 4939TIP3    H136232   4.280   0.325  12.783 -0.0265  0.4918 -0.0369
 4939TIP3    H236233   4.257   0.231  12.667 -0.7363 -1.3213  1.5143
 4940TIP3   OH236234   0.057   0.292  10.989 -0.3022 -0.5327 -0.4419
 4940TIP3    H136235   0.063   0.346  10.911  1.4624 -1.2474 -0.8494
 4940TIP3    H236236   0.148   0.275  11.014 -0.7986  0.0661  2.0738
 4941TIP3   OH236237   5.655   4.178   5.895  0.5878  0.2295  0.2049
 4941TIP3    H136238   5.724   4.190   5.829  0.3677  1.1852  0.1285
 4941TIP3    H236239   5.702   4.162   5.977  1.0187  3.0898  0.6072
 4942TIP3   OH236240   1.920   2.992  14.829  0.3296  0.1138 -0.2531
 4942TIP3    H136241   2.001   2.948  14.855  0.5594  0.2953 -0.6434
 4942TIP3    H236242   1.858   2.972  14.898 -0.2076 -2.5014 -1.3845
 4943TIP3   OH236243   4.956   0.925   2.339 -0.3552 -0.1165 -0.0166
 4943TIP3    H136244   4.889   0.962   2.282 -0.5418 -0.2129  0.1412
 4943TIP3    H236245   5.039   0.950   2.298 -0.4770  0.5223  0.1139
 4944TIP3   OH236246   4.742   4.756   1.421  0.0917  0.2156  0.3671
 4944TIP3    H136247   4.673   4.694   1.399  0.4777  0.0761 -0.4755
 4944TIP3    H236248   4.792   4.768   1.340  0.3570  1.2052  0.6530
 4945TIP3   OH236249   5.762   0.454  14.425 -0.2430 -0.0131 -0.3267
 4945TIP3    H136250   5.772   0.537  14.378  0.2113  0.2634  0.2532
 4945TIP3    H236251   5.668   0.448  14.444 -0.2922  0.3118 -0.4584
 4946TIP3   OH236252   2.146   6.114   2.307  0.2235 -0.2680 -0.3102
 4946TIP3    H136253   2.145   6.210   2.309 -0.0930 -0.2570  2.6155
 4946TIP3    H236254   2.065   6.091   2.260  0.6287  0.8550 -1.6232
 4947TIP3   OH236255   3.657   1.494   4.147  0.1866  0.6531 -0.1216
 4947TIP3    H136256   3.569   1.462   4.165  0.9039 -0.6901  1.2185
 4947TIP3    H236257   3.678   1.549   4.222  0.6701  0.5514 -0.1821
 4948TIP3   OH236258   0.652   0.516   3.474  0.0281 -0.7169  0.0095
 4948TIP3    H136259   0.566   0.517   3.433 -0.3554 -0.8335  0.8031
 4948TIP3    H236260   0.662   0.602   3.515  0.8072 -0.2457 -1.1018
 4949TIP3   OH236261   4.183   5.336  11.372 -0.2183 -0.2367 -0.1529
 4949TIP3    H136262   4.131   5.392  11.429 -2.0881 -1.7724 -0.2422
 4949TIP3    H236263   4.223   5.271  11.431  1.1554  0.5511 -0.1646
 4950TIP3   OH236264   2.441   4.593   6.500 -0.1642 -0.1723  0.1688
 4950TIP3    H136265   2.438   4.631   6.412 -1.0880  0.1175  0.3191
 4950TIP3    H236266   2.516   4.534   6.497  0.9066  1.1382 -0.2788
 4951TIP3   OH236267   5.280   5.359   4.282  0.0451  0.5096 -0.7403
 4951TIP3    H136268   5.366   5.392   4.308 -0.2520 -0.4757  1.8188
 4951TIP3    H236269   5.278   5.369   4.187  3.6811 -1.0226 -1.1411
 4952TIP3   OH236270   3.504   2.094  16.109 -0.1078 -0.1863 -0.7130
 4952TIP3    H136271   3.468   2.104  16.197  1.2438 -0.8174 -0.0444
 4952TIP3    H236272   3.597   2.074  16.124  0.1429 -0.3228 -2.2847
 4953TIP3   OH236273   4.647   3.128  15.461 -0.1083 -0.1845 -0.3465
 4953TIP3    H136274   4.688   3.207  15.425  0.9275 -0.6520 -0.2358
 4953TIP3    H236275   4.615   3.156  15.547 -0.1354  0.2257 -0.4862
 4954TIP3   OH236276   1.976   6.169  16.103  0.0722 -0.7174 -0.2669
 4954TIP3    H136277   2.060   6.129  16.126  0.1042 -0.8919 -0.6862
 4954TIP3    H236278   1.965   6.150  16.010  0.6069  1.1344 -0.7628
 4955TIP3   OH236279   6.570   6.390   2.484 -0.3186 -0.3505 -0.2172
 4955TIP3    H136280   6.594   6.299   2.466 -0.6554 -0.0996 -2.0792
 4955TIP3    H236281   6.544   6.425   2.399  0.6839  1.7630  0.2881
 4956TIP3   OH236282   3.100   2.155  11.788 -0.0356 -0.3665  0.4519
 4956TIP3    H136283   3.171   2.090  11.784 -0.5946 -0.9672 -2.3476
 4956TIP3    H236284   3.022   2.104  11.813 -0.3949 -0.7678 -1.3521
 4957TIP3   OH236285   4.623   4.376   4.059  0.2648 -0.4156  0.3470
 4957TIP3    H136286   4.681   4.320   4.009 -0.3075 -1.8254  1.1743
 4957TIP3    H236287   4.676   4.406   4.133 -0.4075 -3.2315  2.1726
 4958TIP3   OH236288   5.787   5.655  17.224  0.5026 -0.5495 -0.0117
 4958TIP3    H136289   5.773   5.738  17.178  0.3767 -0.7013 -0.2438
 4958TIP3    H236290   5.855   5.611  17.173  1.0140 -0.3203  0.4606
 4959TIP3   OH236291   0.228   4.934  16.873 -0.7460 -0.5698 -0.6617
 4959TIP3    H136292   0.266   5.021  16.887 -0.3173 -1.1709  2.9142
 4959TIP3    H236293   0.301   4.881  16.840 -0.4127 -0.0701 -0.7367
 4960TIP3   OH236294   5.444   5.643  10.765  1.0720  0.1735 -0.2490
 4960TIP3    H136295   5.362   5.642  10.816  2.2173 -2.6598  1.8434
 4960TIP3    H236296   5.445   5.558  10.722  1.7936  1.1800 -2.3182
 4961TIP3   OH236297   6.611   1.824   2.373 -0.1881  0.5420  0.4470
 4961TIP3    H136298   6.669   1.807   2.299 -2.1851 -2.5661 -0.6036
 4961TIP3    H236299   6.592   1.918   2.367  0.5337  0.6118 -2.3697
 4962TIP3   OH236300   0.134   2.851   4.051 -0.1911  0.0152 -0.5561
 4962TIP3    H136301   0.068   2.825   4.115 -0.3117  0.4097 -0.5183
 4962TIP3    H236302   0.205   2.787   4.062 -0.7229 -0.6244 -0.8470
 4963TIP3   OH236303   3.190   6.520  16.575  0.2143 -0.2150 -0.8107
 4963TIP3    H136304   3.259   6.511  16.640 -1.1288  1.0767  0.8651
 4963TIP3    H236305   3.198   6.611  16.544 -0.5125 -0.1604 -0.8520
 4964TIP3   OH236306   6.107   1.640   3.937  0.2239 -0.1438 -0.1761
 4964TIP3    H136307   6.028   1.636   3.882 -0.9544 -3.6545  1.4616
 4964TIP3    H236308   6.178   1.620   3.877 -0.5320 -0.0440 -1.1340
 4965TIP3   OH236309   3.265   0.518   4.671  0.2086  0.1522 -0.2416
 4965TIP3    H136310   3.252   0.429   4.704  0.5322 -0.9636 -2.8962
 4965TIP3    H236311   3.360   0.533   4.679 -0.0352  1.0783  1.9013
 4966TIP3   OH236312   6.461   2.427  12.289 -0.0636 -0.1252  0.5065
 4966TIP3    H136313   6.483   2.520  12.296  1.7972 -0.5759  1.4637
 4966TIP3    H236314   6.481   2.405  12.198 -1.8723  0.6833 -0.1277
 4967TIP3   OH236315   5.461   2.638  16.899 -0.2580  0.0514  0.8109
 4967TIP3    H136316   5.395   2.571  16.882  0.1507 -0.1362 -0.1018
 4967TIP3    H236317   5.411   2.719  16.909 -0.6317 -0.0841  0.1069
 4968TIP3   OH236318   2.531   3.772   2.099 -0.0463 -0.6961  0.7795
 4968TIP3    H136319   2.487   3.857   2.097  2.4489  0.7014  0.5403
 4968TIP3    H236320   2.613   3.787   2.052  1.3120 -2.7377  2.3100
 4969TIP3   OH236321   3.186   3.344  15.199  0.3065 -0.1081  0.6415
 4969TIP3    H136322   3.133   3.301  15.132  0.9081  1.0144 -0.6202
 4969TIP3    H236323   3.142   3.325  15.282 -1.9562  0.6092 -0.3276
 4970TIP3   OH236324   6.353   6.448   5.077  0.3744 -0.2386  0.5828
 4970TIP3    H136325   6.345   6.539   5.048  0.9434 -1.0531 -2.5004
 4970TIP3    H236326   6.445   6.425   5.062  0.2278 -1.3615  1.2537
 4971TIP3   OH236327   3.605   0.863   4.606  0.5693  0.0803  0.0846
 4971TIP3    H136328   3.511   0.863   4.627  0.5685 -4.0451  0.8660
 4971TIP3    H236329   3.609   0.894   4.515 -1.3581  1.3915  0.3695
 4972TIP3   OH236330   1.068   1.714  14.846  0.0101  1.2099  0.2694
 4972TIP3    H136331   1.153   1.736  14.807  0.1995  2.6296  1.4154
 4972TIP3    H236332   1.073   1.748  14.936 -1.4567  0.5396  0.6370
 4973TIP3   OH236333   3.873   0.860   4.670  0.4622  0.3587 -0.4420
 4973TIP3    H136334   3.796   0.858   4.613  0.1667  2.1970 -0.1841
 4973TIP3    H236335   3.900   0.769   4.677 -1.2336 -0.2500 -1.1682
 4974TIP3   OH236336   0.883   6.696   3.534  0.2821 -0.6574  0.3229
 4974TIP3    H136337   0.962   6.750   3.528 -0.6212  0.9382  1.7942
 4974TIP3    H236338   0.829   6.723   3.460  0.1583 -0.0899  0.6195
 4975TIP3   OH236339   4.396   2.056   0.066  0.5578  0.0513 -0.2483
 4975TIP3    H136340   4.398   2.133   0.123 -1.3164 -0.2360  0.2571
 4975TIP3    H236341   4.458   1.995   0.107  3.0583  1.6876 -1.3700
 4976TIP3   OH236342   0.725   6.008  11.562 -0.2668  0.1410  0.7964
 4976TIP3    H136343   0.654   6.042  11.615 -0.5892 -0.0982  0.5209
 4976TIP3    H236344   0.805   6.038  11.606 -0.5236 -0.1603  1.4786
 4977TIP3   OH236345   1.468   2.094   0.915 -0.0692  0.1412 -0.3985
 4977TIP3    H136346   1.533   2.034   0.879  0.2025  0.7505 -0.9519
 4977TIP3    H236347   1.478   2.174   0.863 -1.2131  0.2669 -0.4487
 4978TIP3   OH236348   1.651   4.303   2.599  0.1913  0.1528 -0.4088
 4978TIP3    H136349   1.745   4.286   2.600  0.5406  1.7745  1.6465
 4978TIP3    H236350   1.642   4.390   2.639 -2.2494 -0.4788  0.5966
 4979TIP3   OH236351   5.906   2.331   2.568  0.0906 -0.1578  0.1352
 4979TIP3    H136352   5.912   2.308   2.475  0.6957 -1.5882  0.5035
 4979TIP3    H236353   5.915   2.427   2.570 -1.7140  0.0973 -1.4149
 4980TIP3   OH236354   3.862   3.934  14.396 -0.7376  0.1624  0.0130
 4980TIP3    H136355   3.854   4.001  14.464 -1.4851  0.2269 -0.1335
 4980TIP3    H236356   3.808   3.967  14.324 -0.8734 -0.4594 -0.1726
 4981TIP3   OH236357   5.983   4.561  11.573  0.2215  0.4550  0.2765
 4981TIP3    H136358   6.057   4.511  11.539 -0.2520  0.2376 -0.4595
 4981TIP3    H236359   5.960   4.517  11.655 -0.5437 -0.8896 -0.6301
 4982TIP3   OH236360   0.522   3.377  14.923  0.1566  0.0639 -0.5095
 4982TIP3    H136361   0.486   3.450  14.874 -1.5555 -1.6919 -2.0356
 4982TIP3    H236362   0.609   3.364  14.887  0.3924  1.1721 -0.3722
 4983TIP3   OH236363   5.992   4.208  13.675 -0.0777  0.0239 -0.3349
 4983TIP3    H136364   5.993   4.158  13.594 -0.4186  1.5831 -1.3476
 4983TIP3    H236365   6.071   4.262  13.671 -0.4503  0.6118  0.0456
 4984TIP3   OH236366   4.357   3.829   1.610 -0.0238  0.4727 -0.1838
 4984TIP3    H136367   4.353   3.734   1.606  0.9273  0.4287 -0.2185
 4984TIP3    H236368   4.449   3.849   1.629 -0.1212  1.3934 -0.6228
 4985TIP3   OH236369   6.486   6.034  16.362  0.0336  0.2015 -0.1691
 4985TIP3    H136370   6.501   6.128  16.374  0.0044  0.2161 -0.2483
 4985TIP3    H236371   6.570   5.999  16.332  0.7084 -0.1672  1.9671
 4986TIP3   OH236372   2.484   0.330   1.878  0.3143 -0.0468 -0.4576
 4986TIP3    H136373   2.553   0.301   1.819 -1.0149  0.7031 -2.4990
 4986TIP3    H236374   2.407   0.279   1.852 -0.0220 -0.6535  1.5580
 4987TIP3   OH236375   4.999   0.701  11.919 -0.6348  0.1452  0.1521
 4987TIP3    H136376   5.041   0.738  11.841 -0.5632  1.2985  0.7172
 4987TIP3    H236377   4.980   0.776  11.974 -1.2709 -0.5974  0.9750
 4988TIP3   OH236378   2.803   6.277   2.864 -0.5980 -0.0200  0.1925
 4988TIP3    H136379   2.730   6.285   2.803  0.2660 -0.2396 -0.9001
 4988TIP3    H236380   2.832   6.186   2.855 -0.1169  0.0939  0.5292
 4989TIP3   OH236381   6.102   1.651   0.499  0.0652 -0.5255  0.5832
 4989TIP3    H136382   6.129   1.633   0.409 -0.6040  1.4800 -0.0705
 4989TIP3    H236383   6.177   1.624   0.552  1.4477  0.4516 -0.7720
 4990TIP3   OH236384   3.574   4.558   5.396 -0.1824 -0.5619  0.1684
 4990TIP3    H136385   3.485   4.570   5.430  0.1275  0.1327  0.7844
 4990TIP3    H236386   3.594   4.466   5.412  0.1578 -0.1546  2.4713
 4991TIP3   OH236387   3.634   0.869   6.803  0.2785 -0.1257 -0.0372
 4991TIP3    H136388   3.584   0.843   6.726 -0.5890  1.7610 -0.1470
 4991TIP3    H236389   3.690   0.941   6.773  0.3967  0.2094  0.9435
 4992TIP3   OH236390   2.112   0.424   0.005 -0.1954 -0.2469  0.5066
 4992TIP3    H136391   2.202   0.457   0.000 -0.1600 -0.4362 -0.4608
 4992TIP3    H236392   2.120   0.330  -0.012 -0.5994 -0.2057  0.0557
 4993TIP3   OH236393   3.665   6.514  11.044 -0.1328  0.1582 -0.0595
 4993TIP3    H136394   3.617   6.488  10.965 -1.1385  1.6189  0.0369
 4993TIP3    H236395   3.704   6.432  11.076 -2.3600 -1.0821 -0.2927
 4994TIP3   OH236396   2.244   0.332   5.776 -0.2710  0.6843  0.2214
 4994TIP3    H136397   2.165   0.378   5.747 -1.6099 -0.0116  2.5254
 4994TIP3    H236398   2.291   0.397   5.828 -0.2703  0.5337  0.4070
 4995TIP3   OH236399   2.234   4.255  15.567  0.9353  0.9385 -0.0901
 4995TIP3    H136400   2.328   4.241  15.578  0.6566 -0.6366  0.5694
 4995TIP3    H236401   2.218   4.231  15.475  1.1978  1.4537 -0.2777
 4996TIP3   OH236402   4.911   0.070   1.202 -0.2714  0.1218  0.1185
 4996TIP3    H136403   4.892   0.117   1.121 -1.4591 -0.8206 -0.1690
 4996TIP3    H236404   4.826   0.052   1.241  0.3018  1.4082  2.1136
 4997TIP3   OH236405   0.584   5.688  10.757  0.6427  0.7542 -0.2195
 4997TIP3    H136406   0.574   5.594  10.772  0.5830  0.8897  0.6798
 4997TIP3    H236407   0.597   5.696  10.663  0.9638 -0.1853 -0.2712
 4998TIP3   OH236408   2.542   0.167  16.236 -0.0088 -0.2060 -0.5446
 4998TIP3    H136409   2.492   0.205  16.309  0.9859  1.8868 -0.8705
 4998TIP3    H236410   2.504   0.080  16.224  0.5522 -1.1201  3.1852
 4999TIP3   OH236411   6.051   4.716  12.501 -0.1884 -0.6187 -0.2229
 4999TIP3    H136412   5.999   4.788  12.536  2.4491  1.1151  0.4148
 4999TIP3    H236413   6.136   4.725  12.544  0.9092 -2.8415 -1.7391
 5000TIP3   OH236414   6.078   0.243   2.900  0.2234 -0.3591  0.1686
 5000TIP3    H136415   6.132   0.251   2.979 -0.1658 -1.6691  0.5963
 5000TIP3    H236416   5.996   0.204   2.931 -0.3672  0.1318 -0.7192
 5001TIP3   OH236417   2.009   0.561  11.608 -0.4369 -1.0369 -0.5109
 5001TIP3    H136418   1.953   0.543  11.533 -0.1781 -0.4400 -0.8596
 5001TIP3    H236419   1.993   0.653  11.629  1.1869 -0.5388 -1.2960
 5002TIP3   OH236420   3.358   1.010   3.551 -0.1029  0.5592 -0.6282
 5002TIP3    H136421   3.341   1.104   3.557 -0.9653  0.3807 -0.1317
 5002TIP3    H236422   3.334   0.986   3.461  0.1536  0.8158 -0.7663
 5003TIP3   OH236423   1.082   5.201   4.912  0.4687 -0.1309 -0.3182
 5003TIP3    H136424   1.019   5.195   4.841 -1.1261  1.8252  0.8256
 5003TIP3    H236425   1.033   5.175   4.990  1.6473 -0.4577  0.3468
 5004TIP3   OH236426   4.435   2.048   1.763  0.0192 -0.0329  0.1573
 5004TIP3    H136427   4.348   2.087   1.773  0.3079  0.7969 -0.4694
 5004TIP3    H236428   4.438   2.018   1.673  0.0055 -1.0515  0.4799
 5005TIP3   OH236429   5.108   5.264   3.766  0.0228 -0.1350  0.4174
 5005TIP3    H136430   5.051   5.275   3.690  0.3929 -0.1392  0.1354
 5005TIP3    H236431   5.191   5.235   3.729  1.1408  2.6849  0.5122
 5006TIP3   OH236432   1.080   6.039  16.416 -0.0962 -0.0721  0.1295
 5006TIP3    H136433   1.171   6.016  16.435 -0.3169  1.2181  3.3632
 5006TIP3    H236434   1.085   6.108  16.351  1.1144 -0.9671 -0.7755
 5007TIP3   OH236435   6.202   5.494   2.373 -0.5817  0.0082  0.2399
 5007TIP3    H136436   6.292   5.462   2.376 -0.2406  0.9826  1.2835
 5007TIP3    H236437   6.172   5.488   2.464 -1.5181 -0.1743 -0.0766
 5008TIP3   OH236438   1.434   5.512  11.681  0.0267 -0.0287  0.4610
 5008TIP3    H136439   1.355   5.465  11.653 -0.0340  0.8944 -1.0001
 5008TIP3    H236440   1.409   5.551  11.765 -1.6170  1.4986 -0.6774
 5009TIP3   OH236441   6.213   2.813  11.480  0.8142  0.6515  0.1457
 5009TIP3    H136442   6.181   2.745  11.539  0.0311  1.4873  0.7115
 5009TIP3    H236443   6.149   2.815  11.409  0.6861  0.9869  0.2711
 5010TIP3   OH236444   2.431   1.307  12.732  0.1734 -0.3827  0.2596
 5010TIP3    H136445   2.447   1.237  12.668  0.5093 -0.2104  0.1531
 5010TIP3    H236446   2.487   1.284  12.806 -0.8431 -1.0457  0.8572
 5011TIP3   OH236447   6.717   4.655   2.589  0.4555  0.2216  0.0878
 5011TIP3    H136448   6.639   4.603   2.570 -0.5238  0.4094  3.0603
 5011TIP3    H236449   6.775   4.639   2.515 -1.7731 -1.1492 -1.4943
 5012TIP3   OH236450   5.741   4.109   1.568  0.0941  0.3428  0.6025
 5012TIP3    H136451   5.758   4.202   1.558  1.2198  0.1140  0.2762
 5012TIP3    H236452   5.825   4.067   1.549 -0.3745 -0.7298  0.8412
 5013TIP3   OH236453   5.688   0.901  16.942 -0.3516  0.2747  0.1225
 5013TIP3    H136454   5.719   0.982  16.901 -0.2353 -0.1170 -0.5721
 5013TIP3    H236455   5.720   0.906  17.032 -1.2124  1.4751  0.3906
 5014TIP3   OH236456   4.683   1.257  13.074 -0.3683  0.4123  0.2748
 5014TIP3    H136457   4.648   1.238  12.986 -0.3804  0.5031  0.2591
 5014TIP3    H236458   4.694   1.171  13.115  0.5574  0.3068 -0.1702
 5015TIP3   OH236459   5.560   6.132  13.259  0.3090  0.2895  0.6294
 5015TIP3    H136460   5.472   6.117  13.293 -0.3143  4.2669  1.2014
 5015TIP3    H236461   5.580   6.052  13.211 -2.9283 -1.4244  1.7758
 5016TIP3   OH236462   0.211   0.810  16.842 -0.3853  0.1796  0.6824
 5016TIP3    H136463   0.292   0.767  16.869 -0.1077 -1.4582 -2.3211
 5016TIP3    H236464   0.239   0.897  16.813 -0.1240  0.5112  1.8603
 5017TIP3   OH236465   3.236   5.281  16.572 -0.1713  0.3360 -0.8915
 5017TIP3    H136466   3.263   5.211  16.512  0.4946 -2.7604  2.6126
 5017TIP3    H236467   3.317   5.329  16.591 -0.1182  0.4554 -1.4052
 5018TIP3   OH236468   5.603   4.733   1.028 -0.7729  0.3480  0.3120
 5018TIP3    H136469   5.610   4.732   0.932  0.7301  0.0737  0.4023
 5018TIP3    H236470   5.645   4.815   1.054  0.4618 -0.4167  0.8177
 5019TIP3   OH236471   4.806   3.285  16.543 -0.1132 -0.2396  0.0110
 5019TIP3    H136472   4.840   3.217  16.485  1.5393 -1.5853  2.3443
 5019TIP3    H236473   4.856   3.363  16.521 -0.1980 -0.4662 -1.0040
 5020TIP3   OH236474   2.104   0.112   5.891 -0.0017 -0.4656 -0.2842
 5020TIP3    H136475   2.019   0.140   5.859 -0.1393  0.0596  0.5308
 5020TIP3    H236476   2.165   0.178   5.859  0.1908 -1.1473 -1.3515
 5021TIP3   OH236477   1.796   3.190  17.033  0.0691 -0.6074  0.0196
 5021TIP3    H136478   1.718   3.237  17.005 -0.4598 -1.0328  0.7584
 5021TIP3    H236479   1.768   3.099  17.042  0.8560 -0.9131 -0.5059
 5022TIP3   OH236480   2.983   3.008   0.536  0.4622  0.4393  0.1318
 5022TIP3    H136481   2.901   2.981   0.576  0.9908 -1.1198  0.1946
 5022TIP3    H236482   3.042   2.935   0.548  1.4281  0.9395 -1.2215
 5023TIP3   OH236483   4.497   4.949  10.522 -0.2772 -0.1334  0.2673
 5023TIP3    H136484   4.462   4.874  10.569  0.2021  0.1381  1.0698
 5023TIP3    H236485   4.477   5.025  10.577 -0.0128  0.2326 -0.1244
 5024TIP3   OH236486   2.870   6.579   0.671  0.1934 -0.3967  0.1395
 5024TIP3    H136487   2.809   6.632   0.620 -0.9743 -1.3998  0.4490
 5024TIP3    H236488   2.950   6.633   0.677 -1.0275  1.4584  0.6996
 5025TIP3   OH236489   0.544   5.996  14.083 -0.1008 -0.0072 -0.1388
 5025TIP3    H136490   0.480   6.050  14.036 -0.8817 -0.1130  0.7794
 5025TIP3    H236491   0.519   5.906  14.063 -0.9800 -0.0790  1.1193
 5026TIP3   OH236492   6.121   4.130   5.580  0.2265  0.6361 -0.1078
 5026TIP3    H136493   6.191   4.141   5.516 -0.0198  1.7701 -0.2003
 5026TIP3    H236494   6.148   4.055   5.632  1.0600  0.4958 -0.7284
 5027TIP3   OH236495   0.741   5.297   2.053  0.0438  0.1468  0.8624
 5027TIP3    H136496   0.753   5.273   1.961  3.5554 -0.3086  1.3056
 5027TIP3    H236497   0.786   5.381   2.061  1.9588 -0.9606  2.5833
 5028TIP3   OH236498   5.898   5.975  16.855 -0.0663 -0.1241 -0.0941
 5028TIP3    H136499   5.832   5.985  16.787 -0.2223 -2.2972 -0.3395
 5028TIP3    H236500   5.853   5.928  16.925  1.3138 -2.2488 -0.5345
 5029TIP3   OH236501   4.153   4.041   5.938 -0.1491 -0.2136 -0.1394
 5029TIP3    H136502   4.124   4.065   6.026 -1.2153 -1.3220 -0.1599
 5029TIP3    H236503   4.195   3.956   5.949 -0.2918 -0.3578 -0.6905
 5030TIP3   OH236504   4.861   0.613   1.519 -0.2948 -0.1439 -0.1609
 5030TIP3    H136505   4.808   0.551   1.569 -1.0816  0.3137 -0.4127
 5030TIP3    H236506   4.940   0.563   1.495 -0.5160 -0.7684  0.3866
 5031TIP3   OH236507   3.476   0.812  13.709 -0.0349 -0.0812 -0.6760
 5031TIP3    H136508   3.409   0.778  13.650  0.7097 -1.0919 -0.9672
 5031TIP3    H236509   3.558   0.778  13.674  0.5728  0.6223  0.0344
 5032TIP3   OH236510   2.963   0.402   2.161 -0.3984  0.2176 -0.1217
 5032TIP3    H136511   2.941   0.311   2.140 -2.0349  0.6384 -0.4170
 5032TIP3    H236512   3.026   0.396   2.233 -0.4231 -1.1477 -0.1886
 5033TIP3   OH236513   2.311   5.465  17.357  0.1200 -0.2991  0.0440
 5033TIP3    H136514   2.295   5.433  17.269 -1.3114  3.0179 -1.0614
 5033TIP3    H236515   2.234   5.436  17.407 -0.5584  0.3148 -0.6187
 5034TIP3   OH236516   6.595   1.334   3.484 -0.0667 -0.5131 -0.1806
 5034TIP3    H136517   6.594   1.239   3.497 -0.6989 -0.2919  1.8095
 5034TIP3    H236518   6.506   1.355   3.454 -0.1715 -0.4798  0.1458
 5035TIP3   OH236519   5.235   1.301   6.069 -0.5155  0.0684 -0.0994
 5035TIP3    H136520   5.300   1.246   6.026  0.4240 -0.7067  2.1321
 5035TIP3    H236521   5.274   1.388   6.071  1.2875 -0.6528  2.4842
 5036TIP3   OH236522   6.274   6.256  17.011 -0.0826  0.0490 -0.1400
 5036TIP3    H136523   6.248   6.325  17.072  3.0573  0.4416  0.9147
 5036TIP3    H236524   6.254   6.292  16.924 -1.9467  0.6670  0.4994
 5037TIP3   OH236525   0.278   3.739  16.243  0.5272  0.1874  0.0474
 5037TIP3    H136526   0.279   3.645  16.224 -0.1360  0.2716 -0.4464
 5037TIP3    H236527   0.369   3.765  16.240  0.6154 -0.2174 -0.9934
 5038TIP3   OH236528   3.003   1.907  10.766 -0.4439 -0.0850  0.0998
 5038TIP3    H136529   2.961   1.880  10.848 -2.2036  2.1764  0.0325
 5038TIP3    H236530   2.993   1.831  10.708 -0.2558 -1.2778  1.5600
 5039TIP3   OH236531   1.915   0.414  16.189  0.0192  0.1569 -0.2713
 5039TIP3    H136532   1.981   0.349  16.212  2.0556  1.5319 -1.8893
 5039TIP3    H236533   1.931   0.433  16.096 -0.8421  2.5497 -0.0008
 5040TIP3   OH236534   6.670   2.183   5.961 -0.1407 -0.3282 -0.2258
 5040TIP3    H136535   6.687   2.168   6.054 -0.1386  1.7095  0.1481
 5040TIP3    H236536   6.596   2.126   5.941 -0.5948 -0.2979  1.2164
 5041TIP3   OH236537   5.242   4.485   4.528  0.0610 -0.5264 -0.1367
 5041TIP3    H136538   5.223   4.568   4.484 -0.1159 -0.8295 -0.6389
 5041TIP3    H236539   5.336   4.472   4.515  0.0067 -0.6184 -0.4222
 5042TIP3   OH236540   5.346   1.530   6.193 -0.8115  0.2091  0.2124
 5042TIP3    H136541   5.441   1.522   6.187 -0.8082  0.9583 -0.9391
 5042TIP3    H236542   5.328   1.534   6.287  0.2823 -0.0507  0.4382
 5043TIP3   OH236543   6.529   6.243   0.845 -0.3304  0.2108  0.0066
 5043TIP3    H136544   6.440   6.212   0.827 -0.7348 -0.3672  2.5985
 5043TIP3    H236545   6.581   6.163   0.849 -0.6315  0.0348  2.8606
 5044TIP3   OH236546   0.859   6.082   5.289 -0.0296 -0.1306 -0.3626
 5044TIP3    H136547   0.842   6.133   5.369 -0.0885 -1.5991  0.5996
 5044TIP3    H236548   0.852   6.146   5.218  2.3734  1.7420  0.9445
 5045TIP3   OH236549   6.307   6.585  13.935 -0.7528 -0.0892  0.0204
 5045TIP3    H136550   6.263   6.502  13.914  0.7107 -1.3457  1.6313
 5045TIP3    H236551   6.384   6.585  13.879  0.5988 -1.1118  1.7932
 5046TIP3   OH236552   3.014   0.176   2.798  0.1621 -0.1294  0.0375
 5046TIP3    H136553   2.921   0.158   2.783  0.4570 -2.1463  0.3584
 5046TIP3    H236554   3.043   0.105   2.856  2.0975 -0.0480 -0.7559
 5047TIP3   OH236555   0.297   4.424  11.249 -0.0227 -0.1969 -0.4062
 5047TIP3    H136556   0.212   4.434  11.207 -0.7190 -1.1014  0.7505
 5047TIP3    H236557   0.339   4.351  11.203 -0.4456 -0.6490 -0.0787
 5048TIP3   OH236558   0.839   4.197   4.641 -0.4052  0.1767 -0.0136
 5048TIP3    H136559   0.897   4.200   4.718  1.1835  1.6994 -1.1864
 5048TIP3    H236560   0.781   4.124   4.658  0.5865 -0.1912  2.1637
 5049TIP3   OH236561   5.988   0.212   0.382  0.1467  0.0911  0.5954
 5049TIP3    H136562   6.068   0.226   0.332  2.0510 -1.9213  2.8401
 5049TIP3    H236563   5.994   0.274   0.455 -0.5340  0.1695  0.5903
 5050TIP3   OH236564   4.873   4.720   4.860  0.2566  0.4165 -0.0478
 5050TIP3    H136565   4.929   4.656   4.903  1.5106  1.8821  0.6085
 5050TIP3    H236566   4.784   4.698   4.889  0.7160 -0.6395  0.6248
 5051TIP3   OH236567   4.077   3.360  12.797  0.2784  0.1592  0.2343
 5051TIP3    H136568   4.026   3.281  12.780  2.1585 -1.5446  1.8896
 5051TIP3    H236569   4.159   3.345  12.750  0.4236  1.4496  0.0481
 5052TIP3   OH236570   1.115   2.187   5.135 -0.2017 -0.2420 -0.5013
 5052TIP3    H136571   1.204   2.156   5.117  0.1049  0.7667 -0.7661
 5052TIP3    H236572   1.120   2.227   5.222 -0.5711 -0.8133 -0.2084
 5053TIP3   OH236573   5.664   4.588  15.968 -0.5176 -0.0115  0.4212
 5053TIP3    H136574   5.578   4.585  16.011  0.0670 -0.2209  1.6200
 5053TIP3    H236575   5.644   4.600  15.875 -1.8339  0.3413  0.7282
 5054TIP3   OH236576   4.141   4.399  15.637 -0.1627  0.1262  0.6378
 5054TIP3    H136577   4.220   4.346  15.633 -0.4842 -0.4388  1.4736
 5054TIP3    H236578   4.171   4.485  15.666  0.5526  0.8591 -2.0282
 5055TIP3   OH236579   1.209   5.887  15.769 -0.0206  0.3994  0.2488
 5055TIP3    H136580   1.234   5.855  15.682 -0.5305 -0.7102  0.4967
 5055TIP3    H236581   1.120   5.919  15.758 -0.2692 -0.2114  0.4744
 5056TIP3   OH236582   2.645   3.924  16.346  0.0342 -0.1596 -0.0413
 5056TIP3    H136583   2.721   3.948  16.400  0.2514 -5.0684  2.3907
 5056TIP3    H236584   2.682   3.868  16.277 -0.9620  1.3144 -1.8600
 5057TIP3   OH236585   0.698   6.620  13.032 -0.0040 -0.3944 -0.5012
 5057TIP3    H136586   0.679   6.532  12.999  0.2963 -1.0260  0.9120
 5057TIP3    H236587   0.771   6.607  13.092 -1.6827  0.3205  1.8525
 5058TIP3   OH236588   3.447   2.337  11.240  0.0239 -0.6360 -0.8878
 5058TIP3    H136589   3.432   2.334  11.335 -1.0535 -0.2772 -1.0251
 5058TIP3    H236590   3.375   2.392  11.207  1.1811  0.4166 -1.7623
 5059TIP3   OH236591   5.976   0.885   1.427 -0.2629 -0.2041 -0.7619
 5059TIP3    H136592   6.034   0.875   1.351  2.2289  0.2168  0.9526
 5059TIP3    H236593   6.013   0.827   1.493 -1.9187  0.0061  0.3985
 5060TIP3   OH236594   0.291   4.150   6.306 -0.2563 -0.5532  0.4595
 5060TIP3    H136595   0.373   4.140   6.355  0.0222 -0.1985  0.0766
 5060TIP3    H236596   0.262   4.239   6.327 -0.3861 -0.5727  0.3616
 5061TIP3   OH236597   0.401   3.660   0.255  0.4384 -0.0618  0.3558
 5061TIP3    H136598   0.473   3.597   0.257 -0.5236 -1.1841  1.1802
 5061TIP3    H236599   0.337   3.622   0.194  0.4256  0.7801 -0.1620
 5062TIP3   OH236600   0.200   6.610   3.350 -0.1698 -0.8633  0.2029
 5062TIP3    H136601   0.215   6.701   3.326 -3.3761 -0.5057 -0.7620
 5062TIP3    H236602   0.171   6.614   3.441 -3.7301 -0.4130 -0.8250
 5063TIP3   OH236603   3.438   5.669   1.166  0.2122  0.5028  0.1704
 5063TIP3    H136604   3.463   5.735   1.102  3.3820  0.7668  1.4918
 5063TIP3    H236605   3.345   5.685   1.183 -0.3512  1.3918 -3.1089
 5064TIP3   OH236606   1.016   4.884  12.006 -0.2888 -0.0634  0.4614
 5064TIP3    H136607   1.011   4.940  12.084 -1.2225 -1.2467  1.2975
 5064TIP3    H236608   0.925   4.874  11.978 -0.0728 -0.6112 -0.0701
 5065TIP3   OH236609   4.537   4.599  11.699 -0.4499  0.1218  0.0783
 5065TIP3    H136610   4.529   4.551  11.617  1.0988  0.3930 -0.2705
 5065TIP3    H236611   4.467   4.664  11.695 -0.6351 -0.1116 -0.8542
 5066TIP3   OH236612   0.598   5.296   1.117  0.5369  0.5387  0.0779
 5066TIP3    H136613   0.651   5.354   1.171  0.9153 -0.9752  1.4082
 5066TIP3    H236614   0.539   5.253   1.179 -0.0251 -0.1761 -0.9189
 5067TIP3   OH236615   0.783   3.414   4.161 -0.1587 -0.0269 -0.2185
 5067TIP3    H136616   0.709   3.354   4.157  0.4353 -0.7743 -0.3696
 5067TIP3    H236617   0.854   3.361   4.198  0.0593  0.9302  0.7664
 5068TIP3   OH236618   2.808   2.755   0.616  0.0351  0.3028 -0.1157
 5068TIP3    H136619   2.830   2.698   0.690  0.2632 -0.9240 -1.1047
 5068TIP3    H236620   2.811   2.698   0.539 -2.1654  1.0730 -0.8558
 5069TIP3   OH236621   4.945   3.499  16.421  0.4124  0.0851  0.4574
 5069TIP3    H136622   4.980   3.474  16.335 -2.7704 -3.7894  0.0068
 5069TIP3    H236623   4.873   3.560  16.400  1.1027  0.9729  0.6210
 5070TIP3   OH236624   0.800   4.154   3.583  0.2045 -0.0187 -0.1896
 5070TIP3    H136625   0.871   4.143   3.646  0.2847 -1.5765 -0.5083
 5070TIP3    H236626   0.838   4.127   3.499 -1.2285 -2.7964 -0.0602
 5071TIP3   OH236627   0.321   4.609  15.450 -0.1648 -0.2348 -0.7651
 5071TIP3    H136628   0.237   4.638  15.417 -0.7787 -2.6397 -1.4863
 5071TIP3    H236629   0.383   4.628  15.380 -0.3993  0.0442 -0.8970
 5072TIP3   OH236630   3.989   0.620  14.627  0.3149 -0.4489  0.2547
 5072TIP3    H136631   4.001   0.678  14.552  2.6830 -2.2109 -0.8686
 5072TIP3    H236632   4.076   0.614  14.667 -0.4364 -1.2360  1.8613
 5073TIP3   OH236633   2.899   3.895   1.720  0.7236 -0.1130 -0.4969
 5073TIP3    H136634   2.874   3.932   1.635 -0.2204  0.1636 -0.1108
 5073TIP3    H236635   2.853   3.812   1.725 -0.9183  0.8063  0.6023
 5074TIP3   OH236636   4.467   5.837   4.511  0.1816  0.0160 -0.9976
 5074TIP3    H136637   4.404   5.803   4.575 -0.0602  1.2619 -0.5396
 5074TIP3    H236638   4.472   5.930   4.530  2.0194 -0.0149 -1.1665
 5075TIP3   OH236639   2.637   4.435   6.659  0.0365 -0.3679  0.0145
 5075TIP3    H136640   2.644   4.352   6.611  0.4758  0.2528 -1.0329
 5075TIP3    H236641   2.677   4.499   6.601 -1.4717  0.8168  0.2267
 5076TIP3   OH236642   3.690   4.799  17.201  0.3676  0.5390  0.3365
 5076TIP3    H136643   3.749   4.765  17.134 -0.3925  1.4518 -0.8360
 5076TIP3    H236644   3.651   4.721  17.240  0.2531 -0.0119 -0.8267
 5077TIP3   OH236645   0.270   0.180   5.093 -0.5140 -0.0260 -0.5530
 5077TIP3    H136646   0.299   0.097   5.057  0.2572 -0.1019  0.2356
 5077TIP3    H236647   0.204   0.156   5.159  0.0885 -0.0539  0.0492
 5078TIP3   OH236648   2.599   2.213   2.868  0.3201 -0.2772 -0.6087
 5078TIP3    H136649   2.561   2.194   2.782 -0.1102 -1.9516 -0.0846
 5078TIP3    H236650   2.529   2.193   2.930  0.8499  0.2671  0.1853
 5079TIP3   OH236651   0.099   5.707  15.724 -0.3161 -0.5715  0.8265
 5079TIP3    H136652   0.148   5.788  15.738 -2.7164  0.9363  1.1475
 5079TIP3    H236653   0.080   5.706  15.631 -3.7785  1.5536  1.3408
 5080TIP3   OH236654   3.078   5.960  11.927 -0.5842 -0.4367  0.1317
 5080TIP3    H136655   3.157   5.962  11.873 -0.2498  1.3300  0.6176
 5080TIP3    H236656   3.016   5.907  11.877 -0.1803  0.8206 -1.8221
 5081TIP3   OH236657   3.531   5.533  15.340 -0.2644  0.0543 -0.0496
 5081TIP3    H136658   3.545   5.600  15.406 -0.7925  0.9055 -0.7813
 5081TIP3    H236659   3.548   5.450  15.385 -2.2683  0.4869  1.6498
 5082TIP3   OH236660   0.927   2.717   0.213  1.0360 -0.1631  0.0769
 5082TIP3    H136661   0.999   2.671   0.171  0.4247  0.8881 -2.2643
 5082TIP3    H236662   0.870   2.745   0.141 -1.4163 -0.4232  1.7904
 5083TIP3   OH236663   4.831   3.083  12.479 -0.5678 -0.0945 -0.0032
 5083TIP3    H136664   4.875   2.999  12.490  1.1082  0.5886 -1.0148
 5083TIP3    H236665   4.776   3.092  12.557  0.4466 -1.4024  0.9140
 5084TIP3   OH236666   0.348   5.426  14.738  0.6271  0.5058 -0.8775
 5084TIP3    H136667   0.339   5.412  14.833  1.1726  4.9482  0.0509
 5084TIP3    H236668   0.427   5.378  14.715  0.7650 -0.2908  1.0408
 5085TIP3   OH236669   4.143   3.952   2.380  0.2774  0.0267 -0.8900
 5085TIP3    H136670   4.167   3.917   2.465  0.3762 -0.1573 -0.9926
 5085TIP3    H236671   4.208   3.915   2.320 -1.4967 -2.3029 -1.5545
 5086TIP3   OH236672   3.105   4.686  11.955  0.6620  0.0089 -0.5724
 5086TIP3    H136673   3.133   4.776  11.938 -0.4862  0.2501 -1.3008
 5086TIP3    H236674   3.022   4.696  12.003  0.6365 -0.6546 -0.4789
 5087TIP3   OH236675   1.945   1.856   3.385  0.2306  0.2321  0.3344
 5087TIP3    H136676   1.944   1.774   3.336  1.8216 -0.5373  1.4745
 5087TIP3    H236677   1.927   1.924   3.320 -0.3086 -0.9410 -0.7881
 5088TIP3   OH236678   1.847   6.532   5.428 -0.3631 -0.3713  0.9497
 5088TIP3    H136679   1.823   6.441   5.415  0.8165 -0.5682 -0.0540
 5088TIP3    H236680   1.897   6.533   5.509 -1.6670 -0.3305  1.7947
 5089TIP3   OH236681   1.397   0.025   3.149  0.4507 -0.6940 -0.3749
 5089TIP3    H136682   1.424   0.082   3.221 -2.4892 -2.2206  2.1971
 5089TIP3    H236683   1.472  -0.032   3.133  1.0779 -0.5579  1.8281
 5090TIP3   OH236684   2.713   0.488   5.386  0.2774  0.0665 -0.5079
 5090TIP3    H136685   2.778   0.491   5.316  1.0498  0.2314  0.2024
 5090TIP3    H236686   2.629   0.477   5.341  0.8142 -0.3721 -1.4261
 5091TIP3   OH236687   2.886   0.712   5.501  0.4290 -0.1853 -1.0899
 5091TIP3    H136688   2.836   0.631   5.488 -1.1124  0.4489  0.4266
 5091TIP3    H236689   2.843   0.776   5.444 -1.2393  0.6140  0.9518
 5092TIP3   OH236690   0.773   4.763   4.882  0.0556 -0.6911 -0.1711
 5092TIP3    H136691   0.782   4.669   4.865  0.5192 -0.9344  1.2722
 5092TIP3    H236692   0.753   4.768   4.976  0.2015  0.6637 -0.2006
 5093TIP3   OH236693   6.438   0.521   0.231  0.0118  0.7813  0.0647
 5093TIP3    H136694   6.401   0.572   0.159  0.8964 -0.9710 -1.7571
 5093TIP3    H236695   6.524   0.560   0.247  0.0408  0.8374 -0.2229
 5094TIP3   OH236696   0.041   5.746  15.437 -0.2907 -0.3778  0.5099
 5094TIP3    H136697   0.058   5.839  15.454 -2.1787 -0.0694  0.9436
 5094TIP3    H236698   0.127   5.708  15.421  0.7609  1.0324  2.4467
 5095TIP3   OH236699   0.548   2.942  17.291 -0.4689 -0.7060  0.0345
 5095TIP3    H136700   0.576   2.969  17.378 -0.6022  2.5975 -0.8315
 5095TIP3    H236701   0.626   2.951  17.237 -1.0045 -0.2466 -0.6765
 5096TIP3   OH236702   6.326   5.115   2.461  0.6110 -0.3855 -0.3737
 5096TIP3    H136703   6.249   5.161   2.428  1.2503  0.4362 -0.7485
 5096TIP3    H236704   6.303   5.022   2.452 -0.3367 -0.1587 -0.4630
 5097TIP3   OH236705   2.265   4.133   4.730 -0.4418 -0.0045  0.5950
 5097TIP3    H136706   2.290   4.103   4.817  0.3609 -0.3893  0.2383
 5097TIP3    H236707   2.171   4.152   4.738 -0.1662  0.9600  1.8065
 5098TIP3   OH236708   3.268   1.673  14.713  0.1642 -0.3217  0.5989
 5098TIP3    H136709   3.259   1.766  14.695  1.5549  0.0263  1.4796
 5098TIP3    H236710   3.211   1.657  14.788  1.2562  0.2346  1.5724
 5099TIP3   OH236711   3.661   5.793   3.306  0.1330  0.3430 -0.5711
 5099TIP3    H136712   3.670   5.883   3.340  0.1080 -1.0069  3.5836
 5099TIP3    H236713   3.567   5.776   3.311  0.3617 -0.6559  1.1989
 5100TIP3   OH236714   6.021   5.211   2.119 -0.5511  1.3148  0.2371
 5100TIP3    H136715   6.068   5.165   2.189 -0.1688  1.8872  0.3641
 5100TIP3    H236716   5.933   5.173   2.120 -0.4716  1.1353  0.8590
 5101TIP3   OH236717   4.566   3.490  15.692  0.3170 -0.1163 -0.1412
 5101TIP3    H136718   4.499   3.429  15.662 -1.2038  0.3549  2.0554
 5101TIP3    H236719   4.524   3.576  15.687  1.0012  0.2701  0.6227
 5102TIP3   OH236720   5.515   3.529  14.002  0.5971 -0.3115 -0.2748
 5102TIP3    H136721   5.447   3.565  13.945 -0.7481 -1.4331  0.5508
 5102TIP3    H236722   5.533   3.600  14.064  0.3364  0.0698 -0.6253
 5103TIP3   OH236723   5.104   0.104   3.944  0.6156 -0.0827 -0.4301
 5103TIP3    H136724   5.038   0.034   3.940  1.9078 -1.3356 -0.8229
 5103TIP3    H236725   5.140   0.107   3.855  2.6016 -0.9961  0.2815
 5104TIP3   OH236726   1.949   4.674  14.825  0.1846  0.0136 -0.1343
 5104TIP3    H136727   1.940   4.656  14.732 -0.9201  2.4759 -0.5976
 5104TIP3    H236728   1.959   4.769  14.829 -0.9492  0.0956  2.3193
 5105TIP3   OH236729   5.499   5.534  14.870  0.0879  0.2318  0.5586
 5105TIP3    H136730   5.471   5.499  14.785 -0.8863  2.4055 -0.0936
 5105TIP3    H236731   5.544   5.461  14.912 -0.1550 -1.1819 -1.4625
 5106TIP3   OH236732   4.098   5.865  11.826  0.1802 -0.0828  0.4647
 5106TIP3    H136733   4.057   5.882  11.741  0.8801 -2.2544 -0.4014
 5106TIP3    H236734   4.039   5.802  11.868  0.6286 -0.2104  0.9053
 5107TIP3   OH236735   1.125   1.722  11.098  0.6168  0.2701 -0.1748
 5107TIP3    H136736   1.130   1.814  11.122 -1.6550  0.4589 -0.2003
 5107TIP3    H236737   1.178   1.677  11.163 -0.5058  1.3589  1.5620
 5108TIP3   OH236738   5.801   6.374  15.153 -0.5259  0.8461 -0.4338
 5108TIP3    H136739   5.752   6.414  15.225  0.6350 -0.2315  1.0227
 5108TIP3    H236740   5.753   6.293  15.134  0.0519  0.3229  0.2673
 5109TIP3   OH236741   1.148   1.196  17.223  0.5490 -0.2742 -0.4907
 5109TIP3    H136742   1.096   1.116  17.215 -0.4800  0.3478 -0.2614
 5109TIP3    H236743   1.091   1.265  17.187  0.7060  0.6259  0.9300
 5110TIP3   OH236744   3.078   5.281   1.793 -0.1825 -0.1928  0.2469
 5110TIP3    H136745   3.065   5.201   1.845 -2.2165  0.2745  0.5731
 5110TIP3    H236746   2.990   5.303   1.763  0.4151  1.6461 -0.2648
 5111TIP3   OH236747   3.262   2.796   1.112  0.2573 -0.6499 -0.0669
 5111TIP3    H136748   3.178   2.779   1.068 -0.1854  1.1172  0.0154
 5111TIP3    H236749   3.328   2.760   1.053 -0.4820 -0.7460 -0.8571
 5112TIP3   OH236750   3.494   5.853   4.748  0.1721  0.4204 -0.1908
 5112TIP3    H136751   3.542   5.869   4.829 -0.3563  1.1989 -0.0147
 5112TIP3    H236752   3.429   5.787   4.771 -0.1852  0.8711  0.1094
 5113TIP3   OH236753   2.831   6.252  17.084  0.0737  0.1196 -0.1221
 5113TIP3    H136754   2.832   6.256  16.989  2.9969 -1.1460 -0.2509
 5113TIP3    H236755   2.880   6.172  17.105 -0.3687  0.4383  2.4595
 5114TIP3   OH236756   6.343   4.182   2.105 -0.0217 -0.3841 -0.0818
 5114TIP3    H136757   6.378   4.154   2.020  1.0773  1.7635 -0.4052
 5114TIP3    H236758   6.277   4.248   2.083 -1.0831 -1.1598  0.7003
 5115TIP3   OH236759   5.923   3.089   1.059 -0.2781  0.1207 -0.0790
 5115TIP3    H136760   6.002   3.096   1.006 -1.3458  0.5268 -1.6725
 5115TIP3    H236761   5.883   3.175   1.055 -0.9729 -0.1702  0.4357
 5116TIP3   OH236762   3.112   2.009   2.267 -0.5333 -0.2863  0.7924
 5116TIP3    H136763   3.201   2.045   2.276 -1.2458  2.0870 -0.7482
 5116TIP3    H236764   3.122   1.937   2.205  0.0548  1.4007 -1.1745
 5117TIP3   OH236765   1.669   3.488  13.624  0.2508  0.4323  0.5279
 5117TIP3    H136766   1.692   3.547  13.552 -0.7443  0.5235  0.2758
 5117TIP3    H236767   1.731   3.416  13.616 -1.2376 -0.7003 -1.8436
 5118TIP3   OH236768   6.233   2.813  12.408 -0.4691 -0.1201 -0.6151
 5118TIP3    H136769   6.175   2.776  12.342 -3.4121  2.8811  0.0121
 5118TIP3    H236770   6.201   2.779  12.491 -0.3561  0.3527 -0.3695
 5119TIP3   OH236771   6.176   4.667  16.807 -0.3388  0.1693  0.6601
 5119TIP3    H136772   6.140   4.685  16.894 -0.7974  2.7394  0.0382
 5119TIP3    H236773   6.110   4.612  16.764 -0.6636 -0.1471  1.5526
 5120TIP3   OH236774   0.871   4.998  16.547 -0.3045  0.3170 -0.2442
 5120TIP3    H136775   0.951   5.026  16.502 -0.3010  1.2427  0.3135
 5120TIP3    H236776   0.804   4.996  16.478  0.0390  0.2381 -0.5794
 5121TIP3   OH236777   2.032   0.892  16.358 -0.2639 -0.5049  0.0393
 5121TIP3    H136778   2.070   0.866  16.441 -0.9540 -0.0010  0.5274
 5121TIP3    H236779   2.006   0.809  16.316  0.3092 -0.7723  0.2031
 5122TIP3   OH236780   6.710   2.459   2.768  0.0366  0.3677  0.3977
 5122TIP3    H136781   6.774   2.444   2.698 -0.6814  1.9691 -0.6541
 5122TIP3    H236782   6.628   2.423   2.735  0.0172 -0.2732  1.0976
 5123TIP3   OH236783   3.403   5.280  15.559  0.0416 -0.3605 -0.1684
 5123TIP3    H136784   3.425   5.187  15.553  1.0034 -0.0833 -1.4115
 5123TIP3    H236785   3.487   5.323  15.579 -0.3252  0.2687  0.0443
 5124TIP3   OH236786   1.299   6.371   5.444 -0.0869  0.1929  0.2628
 5124TIP3    H136787   1.333   6.432   5.378  1.7886  0.9272  1.8109
 5124TIP3    H236788   1.232   6.421   5.490 -0.8691 -0.0706 -0.5476
 5125TIP3   OH236789   5.039   6.320   2.645 -0.6978 -0.0329 -0.3589
 5125TIP3    H136790   4.971   6.282   2.588  0.2415  3.1372 -4.0321
 5125TIP3    H236791   4.997   6.395   2.686 -0.0865  0.4447 -0.6085
 5126TIP3   OH236792   0.301   6.249   1.426 -0.0065 -0.4403  0.1475
 5126TIP3    H136793   0.230   6.228   1.486 -0.5571 -0.7537 -0.5892
 5126TIP3    H236794   0.293   6.183   1.357  0.6818 -0.1614 -0.2027
 5127TIP3   OH236795   6.203   1.799  12.493  0.4138 -0.2359  0.4927
 5127TIP3    H136796   6.118   1.826  12.460  0.1870 -1.4287  0.0487
 5127TIP3    H236797   6.245   1.881  12.521 -0.0459  0.6502 -1.2134
 5128TIP3   OH236798   5.814   0.599  10.450  0.3563  0.3414 -0.0297
 5128TIP3    H136799   5.761   0.534  10.405 -0.9900  0.5253  1.2358
 5128TIP3    H236800   5.878   0.627  10.385  1.2714 -2.5178 -0.5143
 5129TIP3   OH236801   0.788   0.792  14.658  0.6000 -0.2443  0.1058
 5129TIP3    H136802   0.739   0.761  14.583 -2.2550  0.6011  1.4659
 5129TIP3    H236803   0.784   0.721  14.721 -0.2320  0.3617  0.7681
 5130TIP3   OH236804   2.734   6.155  15.089  0.1500 -0.1981 -0.3149
 5130TIP3    H136805   2.753   6.150  15.182 -4.3432  2.4325  1.0878
 5130TIP3    H236806   2.682   6.077  15.071  1.0490 -0.7253 -0.6855
 5131TIP3   OH236807   3.044   1.587   1.929  0.7308  0.0961  0.5797
 5131TIP3    H136808   3.116   1.527   1.913  0.6445  0.1285  0.0738
 5131TIP3    H236809   2.966   1.532   1.928  0.5322  0.3773 -1.0500
 5132TIP3   OH236810   5.703   5.789   1.870  0.5853  0.2589  0.0791
 5132TIP3    H136811   5.733   5.736   1.944 -0.0938 -0.0994  0.1065
 5132TIP3    H236812   5.685   5.724   1.801  1.3435  0.5960 -0.4554
 5133TIP3   OH236813   4.829   1.969   0.588 -0.4711 -0.1210  0.1289
 5133TIP3    H136814   4.827   1.875   0.569  0.2376  0.3233 -2.4404
 5133TIP3    H236815   4.919   1.986   0.617 -0.5899 -0.2246  0.5613
 5134TIP3   OH236816   2.674   6.399  14.446 -0.0237 -0.1063  0.0321
 5134TIP3    H136817   2.646   6.489  14.432  1.0162 -0.0337 -2.0469
 5134TIP3    H236818   2.759   6.406  14.490 -1.1647 -0.2089  2.3975
 5135TIP3   OH236819   0.827   5.949   4.173  0.6917  0.1509 -0.6572
 5135TIP3    H136820   0.824   5.974   4.265  0.7958 -1.0227 -0.3190
 5135TIP3    H236821   0.771   6.013   4.129  0.3805  0.5300  0.2644
 5136TIP3   OH236822   2.868   1.246   3.885 -0.6377 -0.2658  0.6568
 5136TIP3    H136823   2.941   1.266   3.943 -0.2923 -0.0768  0.1651
 5136TIP3    H236824   2.875   1.309   3.813 -1.6733  0.1815  0.9300
 5137TIP3   OH236825   4.928   3.963  16.833  0.0418  0.4552 -0.0688
 5137TIP3    H136826   4.951   4.015  16.910 -0.1323  1.4969 -0.6891
 5137TIP3    H236827   5.007   3.963  16.779 -0.2998  1.0349 -0.5823
 5138TIP3   OH236828   0.609   1.551   0.819 -0.6928 -0.2044  0.4958
 5138TIP3    H136829   0.564   1.504   0.889 -0.6762  1.3939  1.6235
 5138TIP3    H236830   0.542   1.609   0.783 -0.7553 -1.1457 -0.9795
 5139TIP3   OH236831   4.863   0.699  13.249 -0.5240  0.2537 -0.1626
 5139TIP3    H136832   4.932   0.753  13.286 -1.7913  2.5198 -0.8798
 5139TIP3    H236833   4.841   0.742  13.166 -0.9823 -1.9365 -1.2580
 5140TIP3   OH236834   4.972   3.190   5.244  0.3969  0.2238 -0.1967
 5140TIP3    H136835   4.920   3.118   5.279 -0.1217  0.1858 -1.0054
 5140TIP3    H236836   4.924   3.269   5.269  2.0003  0.4730  2.4443
 5141TIP3   OH236837   3.508   1.742   4.141  0.2885  0.2803 -0.0651
 5141TIP3    H136838   3.542   1.653   4.128  1.2751  0.7037 -0.4739
 5141TIP3    H236839   3.536   1.790   4.063  0.2726  1.1054  0.4267
 5142TIP3   OH236840   3.287   3.495   6.399  0.4740  0.3757  0.4925
 5142TIP3    H136841   3.268   3.449   6.318 -0.2639  2.3614 -0.5081
 5142TIP3    H236842   3.380   3.478   6.415  0.5033 -0.4360 -0.4832
 5143TIP3   OH236843   2.586   6.614   4.806  0.1090 -0.1992 -0.5940
 5143TIP3    H136844   2.582   6.654   4.719  2.1354  0.9247 -0.2440
 5143TIP3    H236845   2.535   6.533   4.798  0.5552 -0.3174 -2.9462
 5144TIP3   OH236846   2.329   2.808  16.337  0.0096 -0.2734 -0.4514
 5144TIP3    H136847   2.315   2.807  16.242 -2.3854 -1.3244 -0.1470
 5144TIP3    H236848   2.424   2.800  16.347  0.3646  0.3061 -2.7410
 5145TIP3   OH236849   2.524   4.360   5.836 -0.0652  0.6524  0.1837
 5145TIP3    H136850   2.568   4.440   5.865  0.6427 -0.0297  1.0645
 5145TIP3    H236851   2.461   4.341   5.905  0.2666  0.0732  0.3334
 5146TIP3   OH236852   2.909   1.682  14.661  0.6665 -0.3331 -0.1936
 5146TIP3    H136853   2.830   1.628  14.662  1.0661 -0.9125 -0.0057
 5146TIP3    H236854   2.951   1.664  14.745  2.7684 -2.6256 -1.6065
 5147TIP3   OH236855   5.258   4.273  13.021  0.1867  0.1708  0.0575
 5147TIP3    H136856   5.327   4.227  12.973 -0.4289 -0.5887 -0.1206
 5147TIP3    H236857   5.282   4.366  13.015  0.1849  0.1028 -1.6576
 5148TIP3   OH236858   0.581   2.370  16.662 -0.0432 -0.4944  0.2875
 5148TIP3    H136859   0.583   2.339  16.571  1.4439  0.1206  0.0842
 5148TIP3    H236860   0.604   2.293  16.714 -1.4074 -0.9876  0.2304
 5149TIP3   OH236861   4.622   6.204  10.517  0.1942 -0.0241 -0.7862
 5149TIP3    H136862   4.702   6.212  10.570 -0.6419 -0.5867  0.6259
 5149TIP3    H236863   4.653   6.194  10.427  1.6951  0.2316 -0.3180
 5150TIP3   OH236864   5.963   2.492   1.470 -0.2004 -0.2303  0.3879
 5150TIP3    H136865   5.988   2.502   1.562  0.1578  1.1271  0.1637
 5150TIP3    H236866   6.025   2.547   1.422 -1.1991  0.1107 -0.5423
 5151TIP3   OH236867   3.325   5.520   6.441  0.0783 -0.9857  0.2009
 5151TIP3    H136868   3.340   5.614   6.443 -0.6865 -0.7493 -2.1597
 5151TIP3    H236869   3.413   5.481   6.444  0.6963 -0.0167 -2.7005
 5152TIP3   OH236870   3.394   2.389   0.242  0.6564 -0.3760  0.1997
 5152TIP3    H136871   3.490   2.386   0.243  0.6982 -0.0914 -0.8181
 5152TIP3    H236872   3.372   2.385   0.149 -0.2913  0.3782  0.3776
 5153TIP3   OH236873   0.178   2.321   4.207 -0.1626  0.0925  0.3562
 5153TIP3    H136874   0.255   2.279   4.169  0.7171  2.5299 -0.7773
 5153TIP3    H236875   0.105   2.290   4.154  0.1810 -1.3030  0.6582
 5154TIP3   OH236876   0.909   0.706   4.074  0.2766  0.3326  0.3005
 5154TIP3    H136877   0.920   0.617   4.108  0.5103  0.6014  0.9518
 5154TIP3    H236878   0.876   0.756   4.149  0.7784  0.9338  0.1323
 5155TIP3   OH236879   2.192   0.918   0.697  0.1789  0.1878 -0.2492
 5155TIP3    H136880   2.201   0.878   0.783 -2.5185  0.6548  0.3530
 5155TIP3    H236881   2.205   1.012   0.712  0.0966  0.2283 -0.4289
 5156TIP3   OH236882   6.000   4.907  11.761 -0.1000 -0.4042 -0.2405
 5156TIP3    H136883   5.915   4.927  11.721 -0.0601  0.3039  0.0160
 5156TIP3    H236884   6.057   4.887  11.686 -0.6888 -1.7137 -0.3684
 5157TIP3   OH236885   1.073   6.425   0.827 -0.0804 -0.6762 -0.4147
 5157TIP3    H136886   1.155   6.461   0.862  0.2611 -0.6327 -1.2440
 5157TIP3    H236887   1.051   6.482   0.753 -1.5983  0.1430  0.6226
 5158TIP3   OH236888   2.759   2.036  16.103  0.6226 -0.0416  0.4082
 5158TIP3    H136889   2.821   1.980  16.149  0.7125  1.5979  2.4099
 5158TIP3    H236890   2.777   2.021  16.010  2.5412 -1.1882  0.9239
 5159TIP3   OH236891   4.779   1.685  13.290 -0.5305  0.1897 -0.0578
 5159TIP3    H136892   4.735   1.636  13.220 -0.7988  0.1752  0.1192
 5159TIP3    H236893   4.865   1.707  13.254 -0.4260 -0.3729 -0.1582
 5160TIP3   OH236894   2.062   1.722  15.281  0.6305 -0.2696  0.2026
 5160TIP3    H136895   2.031   1.791  15.340  0.8054  1.2532 -1.3999
 5160TIP3    H236896   2.001   1.649  15.296 -0.8792  0.9728  0.4621
 5161TIP3   OH236897   5.972   0.986   3.473 -0.6412  0.2387 -1.1438
 5161TIP3    H136898   5.905   0.962   3.536  0.1502  1.0784  0.0609
 5161TIP3    H236899   5.925   1.000   3.391 -1.6223 -1.3669 -0.8896
 5162TIP3   OH236900   0.814   3.695   3.491 -0.2964  0.2630  0.1286
 5162TIP3    H136901   0.883   3.732   3.546  1.6118  0.0005 -1.9319
 5162TIP3    H236902   0.733   3.726   3.531  0.9317  0.0328  3.0714
 5163TIP3   OH236903   2.082   1.639   5.153 -0.3470  0.0297 -0.0506
 5163TIP3    H136904   2.003   1.594   5.124 -0.2559 -0.7643  0.8971
 5163TIP3    H236905   2.081   1.630   5.249  0.2196  1.1373  0.0760
 5164TIP3   OH236906   4.933   2.854  16.277  0.1771 -0.4077 -0.1537
 5164TIP3    H136907   4.854   2.907  16.266 -0.0723 -0.8445 -0.5149
 5164TIP3    H236908   4.991   2.882  16.207 -0.4617 -1.4985 -1.1523
 5165TIP3   OH236909   0.786   2.649   6.274  0.5889 -0.5467  0.3460
 5165TIP3    H136910   0.761   2.638   6.182 -1.8580 -0.4076  0.9045
 5165TIP3    H236911   0.793   2.744   6.285 -1.5637 -0.3773  0.7841
 5166TIP3   OH236912   3.202   0.645   5.453 -0.1293 -0.5343  0.2574
 5166TIP3    H136913   3.232   0.596   5.529 -2.3379 -0.9199  0.9655
 5166TIP3    H236914   3.272   0.637   5.390  1.0271 -1.7002  1.6170
 5167TIP3   OH236915   0.640   2.191   5.742 -0.4937  0.5718  0.3094
 5167TIP3    H136916   0.561   2.137   5.734 -0.4922  0.6411 -0.1781
 5167TIP3    H236917   0.651   2.231   5.656  1.6034 -1.5800 -0.5399
 5168TIP3   OH236918   3.588   2.957  13.859 -0.4938 -0.2886 -0.0013
 5168TIP3    H136919   3.536   2.977  13.937 -1.5163 -0.3837 -0.6346
 5168TIP3    H236920   3.676   2.987  13.880 -0.4736 -1.4243  1.6354
 5169TIP3   OH236921   1.885   4.229   2.421 -0.1926  0.5562  0.0108
 5169TIP3    H136922   1.886   4.308   2.368  0.6533  0.8853  0.4892
 5169TIP3    H236923   1.915   4.258   2.508  0.2347 -0.2985  0.1605
 5170TIP3   OH236924   5.555   5.471   3.543 -0.2028 -0.6950  0.1553
 5170TIP3    H136925   5.579   5.563   3.555  1.2394 -0.8095 -1.3780
 5170TIP3    H236926   5.626   5.422   3.583 -1.0433 -1.1690  1.1054
 5171TIP3   OH236927   2.919   2.256   1.652  0.5888  0.1571 -0.0433
 5171TIP3    H136928   2.941   2.194   1.582 -0.5485  0.6260 -0.8495
 5171TIP3    H236929   2.823   2.254   1.655  0.4603  2.5487 -0.7234
 5172TIP3   OH236930   2.180   1.679  15.704 -0.4421  0.0319  0.0998
 5172TIP3    H136931   2.112   1.684  15.772 -1.6809  0.8862 -1.1481
 5172TIP3    H236932   2.251   1.733  15.737 -1.3635  1.1194  0.3736
 5173TIP3   OH236933   4.107   2.907  14.913 -0.0202 -0.0404  0.1990
 5173TIP3    H136934   4.131   2.815  14.921 -1.0989 -0.2610  1.1079
 5173TIP3    H236935   4.162   2.951  14.978  1.0301  0.0937 -0.7377
 5174TIP3   OH236936   5.927   0.115  16.897 -0.6275  0.1679  0.3049
 5174TIP3    H136937   6.004   0.172  16.886 -0.7883  0.1829 -0.9215
 5174TIP3    H236938   5.870   0.163  16.956 -0.1303  0.6190  0.4288
 5175TIP3   OH236939   2.707   5.392  14.004  0.8640  0.8110  0.3745
 5175TIP3    H136940   2.681   5.482  13.984 -2.9315 -0.4112 -1.0537
 5175TIP3    H236941   2.749   5.361  13.923 -2.1445  0.0054 -1.0139
 5176TIP3   OH236942   1.575   1.088  17.366 -0.2723  0.1041  0.3010
 5176TIP3    H136943   1.665   1.107  17.338  0.4717  0.0979  2.4747
 5176TIP3    H236944   1.549   1.165  17.418 -1.1317 -0.3324  0.5393
 5177TIP3   OH236945   4.851   3.707   2.321 -0.0983  0.1914 -0.0126
 5177TIP3    H136946   4.827   3.724   2.412  0.3015  0.1551  0.1013
 5177TIP3    H236947   4.898   3.785   2.293 -0.1355  0.1628 -0.1594
 5178TIP3   OH236948   4.030   2.498   0.584  0.1128  0.1527  0.1392
 5178TIP3    H136949   3.961   2.471   0.523 -0.9327  1.3065  0.7871
 5178TIP3    H236950   4.012   2.448   0.664  1.2840 -1.1018 -0.3335
 5179TIP3   OH236951   4.660   5.153  12.094 -0.3755  0.0614 -0.2281
 5179TIP3    H136952   4.636   5.149  12.187  0.2523 -1.9414 -0.1087
 5179TIP3    H236953   4.743   5.107  12.089  0.7265  2.0399 -1.5041
 5180TIP3   OH236954   4.041   3.368   4.955 -0.1694 -0.1475 -0.2809
 5180TIP3    H136955   3.967   3.350   5.013 -0.9414  0.2547 -1.1212
 5180TIP3    H236956   4.042   3.294   4.894  1.3466 -1.1602  0.9096
 5181TIP3   OH236957   4.016   1.731  11.758  0.3546  0.4898  0.4277
 5181TIP3    H136958   4.044   1.759  11.671 -0.6642  2.0252  0.5530
 5181TIP3    H236959   4.097   1.707  11.803  0.9645  0.3957 -0.6968
 5182TIP3   OH236960   0.352   4.982  12.408  0.1119 -0.1564  0.0876
 5182TIP3    H136961   0.436   4.937  12.404 -0.4427 -1.1625 -1.3054
 5182TIP3    H236962   0.374   5.075  12.399  1.1387 -0.2946  1.0084
 5183TIP3   OH236963   6.036   3.872  15.924 -0.1492 -0.1478  0.3011
 5183TIP3    H136964   6.130   3.879  15.939 -0.0039 -2.0487  0.4817
 5183TIP3    H236965   5.998   3.944  15.975  1.1018 -0.2516  1.4237
 5184TIP3   OH236966   6.530   5.826   0.078 -0.3120  0.2156  0.1160
 5184TIP3    H136967   6.500   5.917   0.077  1.3265  0.7917  0.1902
 5184TIP3    H236968   6.473   5.781   0.015 -0.0331  1.6816 -1.2339
 5185TIP3   OH236969   1.643   0.593  13.316  0.1415 -0.0387  0.0414
 5185TIP3    H136970   1.715   0.592  13.253  0.9906 -1.8994  0.9643
 5185TIP3    H236971   1.571   0.548  13.272  0.0709  0.3770 -0.2779
 5186TIP3   OH236972   3.985   6.128  15.137 -0.7010 -0.3557  0.5226
 5186TIP3    H136973   3.971   6.034  15.149 -0.4910 -0.5216 -0.4698
 5186TIP3    H236974   3.957   6.145  15.048 -0.0359  0.3871  0.4507
 5187TIP3   OH236975   5.218   3.985  10.798  0.3574 -0.1693 -0.0351
 5187TIP3    H136976   5.246   4.063  10.845 -0.5451 -0.4663  1.0425
 5187TIP3    H236977   5.127   4.002  10.776  0.1097 -0.9748  0.3443
 5188TIP3   OH236978   2.483   1.010  11.616  0.4868  0.0359 -0.0172
 5188TIP3    H136979   2.436   0.971  11.543 -2.0106 -1.8508  2.3729
 5188TIP3    H236980   2.502   1.099  11.588 -0.3496 -0.6136 -2.9206
 5189TIP3   OH236981   1.213   6.561  11.232  0.6882  0.0411  0.2873
 5189TIP3    H136982   1.249   6.477  11.205  0.9419  0.2583 -0.0530
 5189TIP3    H236983   1.171   6.596  11.154  1.2732  0.5908  0.2141
 5190TIP3   OH236984   0.884   1.671  11.307  0.2494  0.0293 -0.8472
 5190TIP3    H136985   0.865   1.746  11.363 -1.1584 -0.3249 -0.8287
 5190TIP3    H236986   0.979   1.659  11.316  0.3242  1.0710  0.0572
 5191TIP3   OH236987   6.297   4.016   0.670  0.4556  0.3271  0.1404
 5191TIP3    H136988   6.254   4.016   0.584 -0.2297  0.2077  0.4755
 5191TIP3    H236989   6.380   4.061   0.655  0.4968  0.0033 -0.6620
 5192TIP3   OH236990   2.953   6.320  16.005 -0.6403  0.3019  0.3981
 5192TIP3    H136991   2.957   6.415  15.990 -0.2753  0.0330 -1.4494
 5192TIP3    H236992   2.906   6.311  16.088 -3.4529  2.0244 -0.8475
 5193TIP3   OH236993   2.205   0.334   1.575  0.3150 -0.1593 -0.0882
 5193TIP3    H136994   2.267   0.292   1.634  0.6096 -0.8654 -0.8791
 5193TIP3    H236995   2.239   0.315   1.487  0.4452  1.7037 -0.4982
 5194TIP3   OH236996   6.110   0.179  12.526 -0.7060  0.2795 -0.6529
 5194TIP3    H136997   6.071   0.217  12.605 -0.6048 -0.2847 -0.3232
 5194TIP3    H236998   6.115   0.085  12.544  1.2063  0.3632 -0.4851
 5195TIP3   OH236999   4.088   3.892  15.269 -0.0536  0.5983 -0.0901
 5195TIP3    H137000   4.027   3.923  15.202  1.7700  1.7582 -1.3129
 5195TIP3    H237001   4.096   3.966  15.330 -0.2831  0.2317  0.3937
 5196TIP3   OH237002   4.661   0.480  11.905  0.1847 -0.0179  0.2322
 5196TIP3    H137003   4.589   0.542  11.913  1.4140  1.3171  1.5204
 5196TIP3    H237004   4.724   0.523  11.847 -0.0983 -1.2718 -1.0820
 5197TIP3   OH237005   0.609   4.268   1.705  0.2407 -0.5530  0.3547
 5197TIP3    H137006   0.639   4.290   1.793 -0.3590  1.0320  0.2004
 5197TIP3    H237007   0.527   4.317   1.695  0.4711 -0.4469 -1.1893
 5198TIP3   OH237008   5.957   0.616  14.980  0.1095 -0.5700 -0.3325
 5198TIP3    H137009   5.977   0.595  15.071 -0.3300 -1.7626 -0.4973
 5198TIP3    H237010   5.892   0.551  14.955  1.6059 -1.4577 -2.0827
 5199TIP3   OH237011   5.729   0.215   2.772  0.1349 -0.2763 -0.9473
 5199TIP3    H137012   5.795   0.192   2.837 -0.8368 -1.3674 -0.3003
 5199TIP3    H237013   5.754   0.165   2.694 -0.0866 -0.9257 -0.6088
 5200TIP3   OH237014   4.024   1.818  13.649  0.4134  0.3427  1.0179
 5200TIP3    H137015   3.931   1.818  13.629  0.5698  0.2603  0.2411
 5200TIP3    H237016   4.030   1.850  13.739 -0.3293  0.8042  0.9067
 5201TIP3   OH237017   2.926   3.478   4.390 -0.1216  0.3907 -0.5447
 5201TIP3    H137018   2.850   3.451   4.440  0.1605  0.3118 -0.1538
 5201TIP3    H237019   2.956   3.558   4.432  1.0469 -0.5019  0.4111
 5202TIP3   OH237020   3.239   0.028  14.850  0.1908  0.3642  1.2386
 5202TIP3    H137021   3.158  -0.005  14.810  0.9072 -0.2321  0.1983
 5202TIP3    H237022   3.217   0.114  14.883 -0.7828  0.3597  0.6380
 5203TIP3   OH237023   0.188   4.876  14.025 -0.0165  0.5701 -0.1415
 5203TIP3    H137024   0.094   4.882  14.042 -0.1466 -0.5028 -0.3856
 5203TIP3    H237025   0.230   4.913  14.102 -0.6407  1.1873 -0.0956
 5204TIP3   OH237026   0.178   4.304  14.340  0.1579 -0.3436  0.5204
 5204TIP3    H137027   0.253   4.283  14.284 -0.1543 -0.1423  0.0188
 5204TIP3    H237028   0.140   4.383  14.301 -1.0805 -1.1669 -0.0118
 5205TIP3   OH237029   0.168   5.009   5.734  0.2229  0.5182  0.0443
 5205TIP3    H137030   0.157   5.104   5.738 -1.4357  0.3331  0.3468
 5205TIP3    H237031   0.093   4.978   5.683  1.4401 -0.5269 -1.1750
 5206TIP3   OH237032   0.190   0.119  14.308  0.2685 -0.1547  0.1745
 5206TIP3    H137033   0.264   0.065  14.284  0.0616  0.1138 -1.1341
 5206TIP3    H237034   0.194   0.194  14.249 -1.3648 -0.4156 -0.3367
 5207TIP3   OH237035   0.929   4.209   0.175 -0.4404 -0.5215  0.3930
 5207TIP3    H137036   0.934   4.135   0.236 -0.0623 -0.6086  0.2606
 5207TIP3    H237037   1.015   4.251   0.182  0.2607 -1.5555 -1.3667
 5208TIP3   OH237038   0.274   2.970  14.504  0.0887  0.5670 -0.0890
 5208TIP3    H137039   0.348   3.025  14.477  1.1737 -0.6390  0.3381
 5208TIP3    H237040   0.280   2.893  14.447  0.0767 -0.2341  0.9710
 5209TIP3   OH237041   1.870   1.166   0.066 -0.7037 -0.4559  0.0001
 5209TIP3    H137042   1.885   1.071   0.070  0.0598 -0.2952  1.2497
 5209TIP3    H237043   1.933   1.197   0.001 -0.4503 -0.6963  0.1316
 5210TIP3   OH237044   1.829   5.931   4.856  0.7145 -0.5276  0.3102
 5210TIP3    H137045   1.831   6.020   4.892  1.0310  0.2235 -1.4556
 5210TIP3    H237046   1.920   5.900   4.864  0.8973 -0.1572 -0.3381
 5211TIP3   OH237047   2.444   1.170   0.761  0.4826 -0.1632 -0.2535
 5211TIP3    H137048   2.515   1.227   0.792 -0.7540  0.0215  2.4890
 5211TIP3    H237049   2.465   1.155   0.668  1.1234  4.3586 -1.0830
 5212TIP3   OH237050   5.218   1.094  11.588 -0.4490 -0.3328 -0.1741
 5212TIP3    H137051   5.253   1.153  11.655  1.8657 -2.2765  0.4974
 5212TIP3    H237052   5.264   1.119  11.507 -1.9490  0.8871 -0.6775
 5213TIP3   OH237053   5.356   1.763   1.837 -0.2610 -0.1833 -0.3949
 5213TIP3    H137054   5.369   1.695   1.770 -1.8284 -0.8053 -0.1249
 5213TIP3    H237055   5.315   1.835   1.790 -0.3321 -0.1772 -0.3235
 5214TIP3   OH237056   0.338   2.546  10.990 -0.2667  0.5127 -0.1887
 5214TIP3    H137057   0.257   2.496  10.983 -0.1816  0.5409 -1.6847
 5214TIP3    H237058   0.312   2.627  11.035 -0.8483  0.0859  0.2649
 5215TIP3   OH237059   1.161   4.654   1.641 -0.8915  0.7153 -0.9525
 5215TIP3    H137060   1.119   4.581   1.596 -0.6123 -0.0674 -0.0000
 5215TIP3    H237061   1.215   4.612   1.709  0.4717  1.7306 -1.3579
 5216TIP3   OH237062   6.416   0.483   4.539 -0.6909 -0.3484  0.4071
 5216TIP3    H137063   6.407   0.524   4.453  0.1259 -0.3622  0.2995
 5216TIP3    H237064   6.344   0.519   4.591 -0.3293  0.8078  0.1486
 5217TIP3   OH237065   3.848   1.830   1.195  0.1773 -0.7031 -0.4579
 5217TIP3    H137066   3.871   1.922   1.205  0.7307 -0.6840 -1.7869
 5217TIP3    H237067   3.822   1.803   1.283 -0.2779  0.7905 -0.0956
 5218TIP3   OH237068   4.775   1.037  14.528  0.6623 -0.5155  0.0826
 5218TIP3    H137069   4.780   0.946  14.499  0.2310  0.2906 -2.8390
 5218TIP3    H237070   4.694   1.042  14.578 -0.7086 -1.2714 -1.9257
 5219TIP3   OH237071   0.178   3.425  14.802 -0.1252 -0.4461 -0.1560
 5219TIP3    H137072   0.156   3.518  14.797 -0.7579 -0.5565  0.4064
 5219TIP3    H237073   0.096   3.382  14.828  0.5737 -0.9467  1.3670
 5220TIP3   OH237074   3.746   5.344   4.875 -0.3006 -0.2660  0.0772
 5220TIP3    H137075   3.776   5.257   4.849 -0.7020 -1.0627  2.0643
 5220TIP3    H237076   3.811   5.404   4.837  0.0210 -1.4100 -1.2675
 5221TIP3   OH237077   2.609   5.650  16.877 -0.1764 -0.4828  0.1176
 5221TIP3    H137078   2.539   5.597  16.916  0.2674  0.4781  2.3326
 5221TIP3    H237079   2.676   5.656  16.945  2.0799 -1.2812 -1.8902
 5222TIP3   OH237080   5.969   3.689   6.373 -0.5988  0.2255  0.2316
 5222TIP3    H137081   5.891   3.671   6.426 -0.9408  0.7722 -0.0824
 5222TIP3    H237082   5.943   3.761   6.316 -0.2229 -0.3378 -0.6639
 5223TIP3   OH237083   6.578   3.256  16.828 -1.0270  0.3029  0.0521
 5223TIP3    H137084   6.548   3.316  16.896 -1.0716  1.1770 -0.7336
 5223TIP3    H237085   6.662   3.223  16.860 -0.8537  1.0219  0.3439
 5224TIP3   OH237086   3.846   4.835  13.375 -0.2107 -0.3835 -0.3139
 5224TIP3    H137087   3.780   4.765  13.370 -0.2049 -0.2906 -2.8103
 5224TIP3    H237088   3.924   4.791  13.408 -1.3403 -0.5755  2.3403
 5225TIP3   OH237089   4.737   1.234  14.322 -0.2843 -0.0117  0.0683
 5225TIP3    H137090   4.754   1.164  14.385 -1.2175  0.6189  1.0669
 5225TIP3    H237091   4.678   1.195  14.257 -0.9828 -0.1075  0.7437
 5226TIP3   OH237092   2.579   4.433   5.424  0.0783  0.2620 -0.0055
 5226TIP3    H137093   2.558   4.508   5.368  1.9544  1.4445  0.7860
 5226TIP3    H237094   2.588   4.360   5.363  2.3655  1.5716 -1.3970
 5227TIP3   OH237095   2.492   1.447  14.501 -0.0844  0.1178 -0.1454
 5227TIP3    H137096   2.409   1.410  14.532  0.8173 -0.5738  1.5685
 5227TIP3    H237097   2.468   1.533  14.466 -1.7733 -0.7915 -1.3829
 5228TIP3   OH237098   5.123   5.211  12.399 -0.1321 -0.0361 -0.7892
 5228TIP3    H137099   5.035   5.226  12.365 -0.2657  0.4283 -0.2673
 5228TIP3    H237100   5.109   5.189  12.491  0.2783 -0.2582 -0.7805
 5229TIP3   OH237101   3.347   5.415   0.494  0.1445  0.5977 -0.1293
 5229TIP3    H137102   3.347   5.337   0.549  1.3441  2.1249  2.2350
 5229TIP3    H237103   3.436   5.420   0.459 -0.5031 -0.1500 -1.9820
 5230TIP3   OH237104   1.638   2.187   1.431  0.2123  0.3138 -0.0968
 5230TIP3    H137105   1.629   2.221   1.342  0.6599 -0.2711 -0.3721
 5230TIP3    H237106   1.571   2.233   1.481 -1.4436 -0.8154 -1.1707
 5231TIP3   OH237107   4.249   1.945   1.154 -0.5412 -0.3410 -0.2512
 5231TIP3    H137108   4.339   1.972   1.170 -0.3596 -1.1831  0.1658
 5231TIP3    H237109   4.196   2.013   1.197 -0.1353  0.6094 -1.2042
 5232TIP3   OH237110   1.286   0.245   0.553 -0.3629 -0.4541  0.0848
 5232TIP3    H137111   1.260   0.164   0.510  1.0612 -0.4397 -0.8791
 5232TIP3    H237112   1.378   0.232   0.574  0.1002  1.1825 -0.7888
 5233TIP3   OH237113   0.957   3.659   3.794 -0.1139  0.1277  0.0831
 5233TIP3    H137114   0.942   3.572   3.757 -0.6698 -0.1424  0.9137
 5233TIP3    H237115   0.921   3.654   3.882  2.4287  0.3323  1.2151
 5234TIP3   OH237116   4.841   6.239   5.059  0.0326 -0.4722  0.5659
 5234TIP3    H137117   4.764   6.278   5.017  0.6850  0.7663  0.5091
 5234TIP3    H237118   4.883   6.188   4.989  0.6800  0.9476 -0.1148
 5235TIP3   OH237119   6.446   4.514  13.148 -0.3898 -0.3263 -0.3851
 5235TIP3    H137120   6.459   4.453  13.221 -0.1227  0.9808  0.6825
 5235TIP3    H237121   6.380   4.471  13.093  0.2312 -1.8605  0.0048
 5236TIP3   OH237122   4.667   0.637   0.840 -0.2667 -0.1372 -0.5091
 5236TIP3    H137123   4.574   0.657   0.846 -0.3046 -0.4809  0.0564
 5236TIP3    H237124   4.693   0.670   0.754 -1.4270 -2.1849 -1.7242
 5237TIP3   OH237125   4.801   0.548  14.346  0.4540 -0.5315  0.2015
 5237TIP3    H137126   4.796   0.534  14.251  2.2678 -0.3472  0.0358
 5237TIP3    H237127   4.803   0.459  14.383 -2.2294 -0.6282  0.2594
 5238TIP3   OH237128   1.281   4.818  13.314 -0.0020 -0.8442 -0.0429
 5238TIP3    H137129   1.333   4.843  13.237  0.3477 -0.2064  0.3944
 5238TIP3    H237130   1.190   4.835  13.288  0.0813 -1.0188 -0.4573
 5239TIP3   OH237131   3.843   0.712   0.522 -0.2645 -0.1669  0.2313
 5239TIP3    H137132   3.774   0.777   0.510  2.0985  2.7655  1.2010
 5239TIP3    H237133   3.837   0.656   0.445 -3.6154 -0.0455  0.2708
 5240TIP3   OH237134   5.187   3.906   5.128  0.3575  0.4968  0.0549
 5240TIP3    H137135   5.165   3.853   5.204  1.0462 -0.9657 -0.7267
 5240TIP3    H237136   5.104   3.946   5.101 -0.3287 -0.7918  0.2191
 5241TIP3   OH237137   0.789   4.198  15.453  0.7898  0.1560 -0.4679
 5241TIP3    H137138   0.796   4.243  15.537  0.8725  1.0380 -0.9349
 5241TIP3    H237139   0.722   4.131  15.467  1.3350 -0.2007  0.5099
 5242TIP3   OH237140   5.237   2.959   4.627  0.3718  0.5015 -0.3545
 5242TIP3    H137141   5.264   2.888   4.685  4.0233  0.7631 -1.4927
 5242TIP3    H237142   5.173   2.919   4.568  1.3048 -1.4711 -0.0970
 5243TIP3   OH237143   4.683   6.316  11.990 -0.4877  0.4272  0.1599
 5243TIP3    H137144   4.627   6.312  11.912 -1.4080  1.9851  0.6941
 5243TIP3    H237145   4.698   6.410  12.003  0.2881  0.1408  1.4161
 5244TIP3   OH237146   4.723   5.086  12.951  0.1922 -0.0022 -0.1023
 5244TIP3    H137147   4.759   5.039  13.026 -0.9703 -1.0052 -0.1336
 5244TIP3    H237148   4.724   5.023  12.879 -1.3554 -0.0241 -0.1562
 5245TIP3   OH237149   3.635   2.011   3.615  0.3539  0.2465 -0.4239
 5245TIP3    H137150   3.583   1.949   3.563  2.1909 -0.1879 -1.8774
 5245TIP3    H237151   3.577   2.086   3.628 -1.8508 -1.6007  1.1560
 5246TIP3   OH237152   2.720   0.031   3.940  0.1878 -0.4551 -0.3708
 5246TIP3    H137153   2.780   0.072   4.002 -0.6821 -0.6514  0.6421
 5246TIP3    H237154   2.759   0.046   3.854  0.9297  0.6919  0.1461
 5247TIP3   OH237155   6.578   0.055   2.433  0.1004  0.3604  0.2553
 5247TIP3    H137156   6.614  -0.019   2.481 -1.0406  0.9371  2.1289
 5247TIP3    H237157   6.650   0.117   2.425  1.1941 -1.0816 -1.7425
 5248TIP3   OH237158   0.263   1.033  17.110 -0.2881  0.3139 -0.2198
 5248TIP3    H137159   0.169   1.050  17.116 -0.2696  0.4230 -0.2350
 5248TIP3    H237160   0.285   1.049  17.018  0.0592  1.9339  0.1193
 5249TIP3   OH237161   4.143   5.034   4.438  0.5710  0.0827  0.1587
 5249TIP3    H137162   4.109   5.117   4.404  0.0085 -0.8354 -1.6801
 5249TIP3    H237163   4.176   4.989   4.360  1.8015 -1.0016  1.2692
 5250TIP3   OH237164   4.636   6.592  12.010  0.6542 -0.1147 -0.0485
 5250TIP3    H137165   4.568   6.594  12.078  1.5291 -0.4612  0.8604
 5250TIP3    H237166   4.687   6.672  12.025  1.6587 -0.8472  0.5785
 5251TIP3   OH237167   3.503   0.111  14.022 -0.0813 -0.1005  0.2705
 5251TIP3    H137168   3.563   0.048  13.983 -1.1918 -0.9028 -0.2232
 5251TIP3    H237169   3.510   0.096  14.116 -0.6779 -1.3473  0.1466
 5252TIP3   OH237170   0.803   6.555   5.180  0.0990  0.2382  0.4549
 5252TIP3    H137171   0.854   6.537   5.101 -2.1878  1.1130 -1.3519
 5252TIP3    H237172   0.826   6.645   5.203 -1.3407  1.0337 -1.0222
 5253TIP3   OH237173   6.521   1.194   1.815  0.1536 -0.3713  0.2803
 5253TIP3    H137174   6.520   1.204   1.719  1.7476  1.2499  0.3739
 5253TIP3    H237175   6.476   1.111   1.831 -0.3323 -0.5821 -1.8568
 5254TIP3   OH237176   3.759   6.412   0.016 -0.7673 -0.0980 -0.1442
 5254TIP3    H137177   3.807   6.421  -0.066 -0.4945 -0.2550 -0.0003
 5254TIP3    H237178   3.825   6.420   0.084 -0.7754 -1.3660  0.0355
 5255TIP3   OH237179   0.141   2.622  15.924  0.1288  0.1625  0.5514
 5255TIP3    H137180   0.191   2.610  16.005 -0.6998  1.5653  1.3159
 5255TIP3    H237181   0.199   2.591  15.855  0.9796 -0.7929  1.6415
 5256TIP3   OH237182   1.368   2.002   6.554 -0.4014 -0.0713  0.1542
 5256TIP3    H137183   1.308   1.928   6.547  0.1573 -0.5555  0.3952
 5256TIP3    H237184   1.311   2.079   6.554 -1.0148 -0.5157  0.2753
 5257TIP3   OH237185   1.209   4.246   0.443 -0.0858  0.1793 -0.2489
 5257TIP3    H137186   1.146   4.253   0.514  0.7419  1.0436  0.4314
 5257TIP3    H237187   1.177   4.307   0.376 -0.2658  0.2115 -0.1342
 5258TIP3   OH237188   0.925   1.290  17.047 -0.6441  0.0774  0.1000
 5258TIP3    H137189   0.838   1.252  17.040  0.5228 -2.8966  0.3797
 5258TIP3    H237190   0.978   1.240  16.985  1.9858 -2.0350  3.6820
 5259TIP3   OH237191   1.615   1.036  15.372  0.3309 -0.0949 -0.0894
 5259TIP3    H137192   1.548   1.104  15.367  1.3849  1.0955  1.2511
 5259TIP3    H237193   1.591   0.974  15.303 -2.3905  0.0419  0.5951
 5260TIP3   OH237194   2.569   1.008   1.712 -0.6793 -0.3839  0.3503
 5260TIP3    H137195   2.483   1.031   1.748  0.0323  1.2074  1.1730
 5260TIP3    H237196   2.595   0.930   1.760 -1.4072 -0.5099  0.5494
 5261TIP3   OH237197   6.514   3.714  13.387  0.0911  0.1136  0.0540
 5261TIP3    H137198   6.507   3.626  13.351 -0.4302 -0.3942  1.3545
 5261TIP3    H237199   6.502   3.772  13.311  0.3972 -0.9129 -0.8030
 5262TIP3   OH237200   1.712   4.016   1.246 -0.2812 -0.4264  0.1618
 5262TIP3    H137201   1.775   4.088   1.252 -0.2390 -0.2984 -1.5348
 5262TIP3    H237202   1.758   3.947   1.199 -2.1078  0.6099 -3.4977
 5263TIP3   OH237203   5.989   6.622   0.995 -0.5090 -0.1591  0.2293
 5263TIP3    H137204   6.059   6.591   0.938  0.4391  1.5584  0.3882
 5263TIP3    H237205   5.912   6.628   0.938 -0.5082 -1.8405  0.0061
 5264TIP3   OH237206   0.599   0.330  16.863  0.2128  0.5502  0.3517
 5264TIP3    H137207   0.670   0.320  16.800  0.4724 -1.6582  0.9153
 5264TIP3    H237208   0.529   0.273  16.830 -0.1081  0.3218  1.3970
 5265TIP3   OH237209   2.375   3.891  15.716 -0.6714  0.3070 -0.2709
 5265TIP3    H137210   2.443   3.861  15.657  0.7451 -0.1689  1.5180
 5265TIP3    H237211   2.294   3.881  15.667  0.5565  1.5783 -2.7364
 5266TIP3   OH237212   5.833   5.126  15.966 -1.0497 -0.0290 -0.7518
 5266TIP3    H137213   5.778   5.194  15.925 -2.8996  0.3884  2.1117
 5266TIP3    H237214   5.770   5.068  16.009  0.6485 -1.9168 -0.7058
 5267TIP3   OH237215   4.495   0.061  15.449 -0.4159  0.0623 -0.2789
 5267TIP3    H137216   4.585   0.063  15.417 -0.7005  0.8983 -1.0682
 5267TIP3    H237217   4.501   0.016  15.534  0.5473 -1.0308 -0.8962
 5268TIP3   OH237218   5.587   4.703  14.974  0.3020 -0.0350 -0.0302
 5268TIP3    H137219   5.613   4.618  14.938 -0.1965  0.4928 -1.7386
 5268TIP3    H237220   5.609   4.697  15.067  2.0919 -1.3082 -0.4722
 5269TIP3   OH237221   3.222   5.458   5.211 -0.6567  0.0161 -0.1586
 5269TIP3    H137222   3.142   5.509   5.221 -1.6396 -1.5710  0.5214
 5269TIP3    H237223   3.241   5.426   5.300  1.3505  1.2172 -0.1022
 5270TIP3   OH237224   3.810   1.503  11.905 -0.2546 -0.3603 -0.3408
 5270TIP3    H137225   3.880   1.439  11.918 -1.6136 -1.6334  1.1036
 5270TIP3    H237226   3.767   1.475  11.825 -1.1108 -1.5818  0.5095
 5271TIP3   OH237227   6.185   0.731  13.829 -0.5210  0.4534 -0.0320
 5271TIP3    H137228   6.174   0.693  13.916 -0.7057  0.6997  0.0515
 5271TIP3    H237229   6.182   0.825  13.842  2.6914  0.6546  0.1486
 5272TIP3   OH237230   0.322   2.334   5.642 -1.1949 -0.7873 -0.0333
 5272TIP3    H137231   0.238   2.291   5.622 -1.2585 -0.6041 -0.1610
 5272TIP3    H237232   0.342   2.385   5.564 -0.1172 -2.1593 -0.7060
 5273TIP3   OH237233   5.390   2.610  13.688  0.2427 -0.0268 -0.9426
 5273TIP3    H137234   5.325   2.543  13.710 -0.0997  0.7605  0.6159
 5273TIP3    H237235   5.407   2.597  13.595  0.1876 -2.2476 -0.7015
 5274TIP3   OH237236   4.384   2.191   4.756  0.3112  0.5421  0.6407
 5274TIP3    H137237   4.402   2.274   4.800 -0.0670  1.0387 -0.1091
 5274TIP3    H237238   4.291   2.196   4.733  0.8737  1.0832 -1.7824
 5275TIP3   OH237239   2.356   1.884  13.714  0.1632 -0.0702 -0.0059
 5275TIP3    H137240   2.397   1.968  13.731  1.0718 -0.7718  1.4927
 5275TIP3    H237241   2.430   1.823  13.705 -0.5038 -0.8917 -0.0315
 5276TIP3   OH237242   0.748   5.088   2.242  0.1853 -0.1089  0.3934
 5276TIP3    H137243   0.682   5.110   2.308  1.8978  0.0809  2.1221
 5276TIP3    H237244   0.727   5.145   2.167 -1.8350 -0.3676  0.7178
 5277TIP3   OH237245   6.312   3.486  15.432 -0.2385  0.0492  0.3108
 5277TIP3    H137246   6.370   3.491  15.355 -0.1756  0.2257  0.3697
 5277TIP3    H237247   6.359   3.534  15.500  0.2287 -1.0349  0.7915
 5278TIP3   OH237248   2.542   1.230   5.830  0.2840  0.4549  0.5429
 5278TIP3    H137249   2.514   1.206   5.741  0.3069  0.7363  0.4588
 5278TIP3    H237250   2.486   1.304   5.853  0.7679  0.8519  0.4786
 5279TIP3   OH237251   3.114   0.006  16.860 -0.2900  0.1665 -0.2673
 5279TIP3    H137252   3.132  -0.083  16.830 -1.0889  0.3158 -1.2408
 5279TIP3    H237253   3.117   0.001  16.956 -0.8540 -1.0280 -0.3020
 5280TIP3   OH237254   3.119   2.974   5.508  0.1692 -0.0238 -0.3471
 5280TIP3    H137255   3.083   3.050   5.554 -1.1564  1.9053 -4.1572
 5280TIP3    H237256   3.066   2.900   5.539  0.4002  0.8031  2.2472
 5281TIP3   OH237257   3.981   3.726  12.140 -0.1397 -0.1017 -0.1366
 5281TIP3    H137258   4.044   3.655  12.126  0.0790 -0.0893  0.7500
 5281TIP3    H237259   3.924   3.723  12.063  0.4310 -0.6467 -0.5498
 5282TIP3   OH237260   6.038   0.033   2.299  0.2153  0.1569 -0.0004
 5282TIP3    H137261   6.102   0.102   2.318 -0.1504  0.1548  1.3203
 5282TIP3    H237262   6.035   0.029   2.204  1.1939  1.0782 -0.0895
 5283TIP3   OH237263   4.735   1.515   6.389  0.2439  0.0202 -0.1572
 5283TIP3    H137264   4.769   1.604   6.398  0.1262  0.4633 -3.2649
 5283TIP3    H237265   4.640   1.527   6.383  0.2672 -0.2311 -1.1343
 5284TIP3   OH237266   5.516   5.012   1.423 -0.3445  0.5084 -0.5848
 5284TIP3    H137267   5.438   5.066   1.431 -1.1960 -0.6021 -1.0436
 5284TIP3    H237268   5.489   4.927   1.459  0.7156  0.1595 -0.5789
 5285TIP3   OH237269   2.046   6.147   0.170  0.2446  0.5470  0.1374
 5285TIP3    H137270   2.123   6.108   0.211  0.7526  2.7532  1.4892
 5285TIP3    H237271   1.973   6.123   0.227 -0.0482 -1.2016 -0.9198
 5286TIP3   OH237272   5.807   0.430  14.846  0.1320  0.4072 -0.4671
 5286TIP3    H137273   5.770   0.343  14.862  0.1962  0.2397 -1.1810
 5286TIP3    H237274   5.870   0.417  14.775  2.0031  0.5945  1.0882
 5287TIP3   OH237275   5.262   2.859   1.038 -0.9236  0.4509  0.5166
 5287TIP3    H137276   5.305   2.799   0.978 -1.7818 -2.7637  2.8290
 5287TIP3    H237277   5.333   2.914   1.073 -0.1000  0.8330 -1.6114
 5288TIP3   OH237278   0.700   1.087  11.587 -0.2934  0.2688  0.2127
 5288TIP3    H137279   0.773   1.142  11.559  0.7590 -1.5226 -0.7505
 5288TIP3    H237280   0.633   1.098  11.519  0.5021 -0.6947 -0.7746
 5289TIP3   OH237281   4.928   3.669   5.776 -0.4906 -0.6346  0.3264
 5289TIP3    H137282   4.881   3.589   5.798 -0.3107 -0.6482  0.6720
 5289TIP3    H237283   4.867   3.739   5.797 -0.5444 -0.6722  0.2959
 5290TIP3   OH237284   4.736   3.507  13.906  0.7130  0.2627  0.2209
 5290TIP3    H137285   4.703   3.592  13.936 -0.1712 -0.6024  1.8113
 5290TIP3    H237286   4.676   3.483  13.835  0.9998  0.9694 -0.2788
 5291TIP3   OH237287   2.907   4.932  17.000  0.1599  0.6322  0.2302
 5291TIP3    H137288   2.846   4.987  17.049 -1.6969 -1.2926  0.2309
 5291TIP3    H237289   2.906   4.848  17.046  0.4998 -0.3815 -1.5123
 5292TIP3   OH237290   1.689   0.261   1.677 -0.3876 -0.0086  0.1079
 5292TIP3    H137291   1.679   0.258   1.772  0.5010 -0.6431  0.1870
 5292TIP3    H237292   1.660   0.175   1.647 -0.1112 -0.0161 -0.1389
 5293TIP3   OH237293   3.108   3.366  16.664  0.2860  0.5062 -0.1556
 5293TIP3    H137294   3.121   3.426  16.591  0.2503  0.3455 -0.2937
 5293TIP3    H237295   3.110   3.423  16.742  0.2900  0.6797 -0.2816
 5294TIP3   OH237296   0.113   1.129  15.395  0.2342  0.3749  0.2392
 5294TIP3    H137297   0.193   1.086  15.365  0.3893  0.3079  0.7428
 5294TIP3    H237298   0.137   1.221  15.407  0.7620  0.0049  2.2469
 5295TIP3   OH237299   1.755   1.503   6.209 -0.3402 -0.1049  0.2610
 5295TIP3    H137300   1.661   1.497   6.226 -0.3872 -2.1415 -0.4261
 5295TIP3    H237301   1.781   1.587   6.246 -2.6745  1.1535 -0.7357
 5296TIP3   OH237302   4.792   1.469   1.754  0.9732  0.1187 -0.3947
 5296TIP3    H137303   4.746   1.455   1.671 -0.6955 -2.0495  0.8011
 5296TIP3    H237304   4.883   1.444   1.736  1.0055  1.1917 -1.9225
 5297TIP3   OH237305   5.128   2.687  15.011  0.1703  0.3179 -0.0266
 5297TIP3    H137306   5.181   2.759  15.046 -1.2267  0.8951  1.0329
 5297TIP3    H237307   5.139   2.692  14.916 -0.6850  2.6233 -0.0682
 5298TIP3   OH237308   6.106   0.832   4.678 -0.0020  0.5367  0.2351
 5298TIP3    H137309   6.122   0.885   4.600 -2.4799 -0.2958 -0.9377
 5298TIP3    H237310   6.026   0.782   4.657  0.6770 -1.6038  2.3340
 5299TIP3   OH237311   4.507   2.710   2.461  0.0443  0.2402 -0.5987
 5299TIP3    H137312   4.488   2.781   2.399 -2.4469 -0.9995 -1.3872
 5299TIP3    H237313   4.424   2.663   2.470  1.3643 -2.0350  0.6112
 5300TIP3   OH237314   0.740   6.295  16.750 -0.1396 -0.0033 -0.0028
 5300TIP3    H137315   0.826   6.284  16.711 -0.4616  0.7810 -1.0157
 5300TIP3    H237316   0.695   6.212  16.733 -0.3322  0.3721 -1.5392
 5301TIP3   OH237317   3.706   3.579  14.929 -0.3502  0.0778  0.4206
 5301TIP3    H137318   3.796   3.609  14.934 -0.4910  0.3665  1.3438
 5301TIP3    H237319   3.700   3.510  14.996 -0.4909 -0.8136 -0.4805
 5302TIP3   OH237320   0.685   2.987  16.425  0.5280 -0.1050 -0.1344
 5302TIP3    H137321   0.618   3.056  16.421  1.7205  1.0674 -0.6416
 5302TIP3    H237322   0.717   2.990  16.515  2.0178  1.4892 -0.6539
 5303TIP3   OH237323   0.668   0.597  14.116  0.5694 -0.5577  0.0122
 5303TIP3    H137324   0.722   0.538  14.062  2.0984 -0.3209  1.2206
 5303TIP3    H237325   0.642   0.543  14.190  0.0608 -0.3502 -0.0155
 5304TIP3   OH237326   4.930   3.307   3.389 -0.0972  0.4019  0.3756
 5304TIP3    H137327   5.017   3.308   3.430 -1.2540  0.2043  3.1004
 5304TIP3    H237328   4.880   3.372   3.439 -1.8414 -0.3716 -0.2914
 5305TIP3   OH237329   1.981   2.369  13.739 -0.3264 -0.3004  0.3184
 5305TIP3    H137330   1.936   2.295  13.780 -0.9541 -0.0015  0.1812
 5305TIP3    H237331   2.005   2.426  13.812 -2.6135  0.8843  0.2326
 5306TIP3   OH237332   4.999   2.805   6.770 -0.4153  0.2674  0.0113
 5306TIP3    H137333   5.012   2.720   6.811  1.3766  0.4290 -0.1180
 5306TIP3    H237334   5.083   2.850   6.782 -0.7013  1.3077 -1.5555
 5307TIP3   OH237335   3.168   0.547   0.331  0.0955  0.2860 -0.0900
 5307TIP3    H137336   3.076   0.547   0.358 -0.0951  1.1098 -0.7304
 5307TIP3    H237337   3.201   0.633   0.357  0.4591  0.3084 -0.6102
 5308TIP3   OH237338   1.021   5.196  15.955  0.3456 -0.2065 -0.4126
 5308TIP3    H137339   1.049   5.120  15.904  1.4380 -0.9585  1.2231
 5308TIP3    H237340   0.990   5.159  16.037  1.3781  1.1391  0.6248
 5309TIP3   OH237341   1.993   4.925   2.580 -0.3081 -0.6951  0.1536
 5309TIP3    H137342   1.978   4.999   2.521  0.5434 -0.4306  0.2590
 5309TIP3    H237343   1.995   4.848   2.523 -0.1809 -0.5182 -0.0828
 5310TIP3   OH237344   1.140   3.370   6.177  0.6583  0.1453  0.2056
 5310TIP3    H137345   1.086   3.299   6.212 -0.2711  0.7834  0.1057
 5310TIP3    H237346   1.091   3.402   6.102  0.5240  1.6036  0.8852
 5311TIP3   OH237347   6.051   2.767   5.111 -0.0265 -0.2993 -0.6630
 5311TIP3    H137348   5.981   2.769   5.046 -0.3137 -1.3514 -0.4062
 5311TIP3    H237349   6.008   2.789   5.193 -0.3372 -2.1322 -0.2927
 5312TIP3   OH237350   2.947   4.107  10.529  0.1377 -0.0669  0.3363
 5312TIP3    H137351   3.034   4.132  10.497  0.0674 -0.0634  0.1498
 5312TIP3    H237352   2.888   4.170  10.489  0.0837  0.1134  0.7006
 5313TIP3   OH237353   5.246   3.231   0.980 -0.3407  0.0746 -0.7007
 5313TIP3    H137354   5.184   3.164   1.006  2.1759 -1.0045  3.6624
 5313TIP3    H237355   5.288   3.197   0.901 -1.9471 -1.4320 -0.9554
 5314TIP3   OH237356   3.604   0.507  16.379 -0.4759  0.8683 -0.4064
 5314TIP3    H137357   3.675   0.469  16.430  0.4290  1.6289 -1.0682
 5314TIP3    H237358   3.599   0.598  16.407 -2.2486  0.4651  0.7521
 5315TIP3   OH237359   3.703   0.822   5.327 -0.3061 -0.1729  0.5866
 5315TIP3    H137360   3.745   0.799   5.244 -0.3249 -0.6572  0.7070
 5315TIP3    H237361   3.616   0.855   5.302 -1.5051 -3.0858  0.5461
 5316TIP3   OH237362   5.445   1.135  14.484  0.1131  0.0357 -0.4618
 5316TIP3    H137363   5.534   1.170  14.488  0.3296 -0.5592  3.1661
 5316TIP3    H237364   5.398   1.194  14.426  2.2270  1.9935 -0.2907
 5317TIP3   OH237365   5.874   3.258  14.055  0.2086  0.6455 -0.2342
 5317TIP3    H137366   5.864   3.286  14.146 -1.8972  1.9494 -0.8006
 5317TIP3    H237367   5.964   3.225  14.050 -0.0790 -0.9660  2.6717
 5318TIP3   OH237368   1.307   2.134  16.148 -0.4633  0.7877  0.4084
 5318TIP3    H137369   1.299   2.144  16.243 -1.3868 -1.2218  0.5819
 5318TIP3    H237370   1.217   2.127  16.117 -0.1643  1.3002 -0.6125
 5319TIP3   OH237371   4.171   1.665   6.183 -0.4829 -0.0437 -0.1602
 5319TIP3    H137372   4.231   1.733   6.215 -0.6344 -0.5649  1.3428
 5319TIP3    H237373   4.095   1.672   6.242 -0.2823 -1.8229  0.3521
 5320TIP3   OH237374   1.384   2.593   0.346 -0.0906  0.7910 -0.4272
 5320TIP3    H137375   1.401   2.686   0.326  0.0156  0.9542  0.4025
 5320TIP3    H237376   1.448   2.546   0.294  0.5636  1.2408 -0.0411
 5321TIP3   OH237377   6.279   1.330   5.448 -0.0475 -0.3624  0.4397
 5321TIP3    H137378   6.228   1.265   5.497 -0.5870 -0.9644 -0.8531
 5321TIP3    H237379   6.366   1.291   5.442 -0.0098 -0.3390  0.8274
 5322TIP3   OH237380   6.012   5.446   0.290 -0.5426 -0.0613  0.2468
 5322TIP3    H137381   6.082   5.414   0.233  0.9596 -1.7203  2.8237
 5322TIP3    H237382   5.931   5.432   0.240  0.6436 -1.7218 -1.3217
 5323TIP3   OH237383   5.970   1.188   3.025  0.3391  0.3523  0.0581
 5323TIP3    H137384   6.030   1.162   3.095  0.6655  1.1511  0.0892
 5323TIP3    H237385   6.006   1.270   2.992  0.5355 -0.2992 -1.4571
 5324TIP3   OH237386   5.676   0.822  16.293  0.1301 -0.7980 -0.1255
 5324TIP3    H137387   5.683   0.773  16.212  3.8229  0.8785 -1.0254
 5324TIP3    H237388   5.588   0.859  16.291 -0.8036 -2.9182 -2.0093
 5325TIP3   OH237389   5.760   5.875  17.053  0.1337  0.5387 -0.6793
 5325TIP3    H137390   5.761   5.971  17.058 -0.8148  0.5063  0.3444
 5325TIP3    H237391   5.669   5.853  17.035 -0.0086 -0.2477  0.8870
 5326TIP3   OH237392   1.861   3.957   3.429 -0.1751  0.0578  0.0999
 5326TIP3    H137393   1.802   4.023   3.392 -1.7469 -1.6719 -0.6717
 5326TIP3    H237394   1.878   3.897   3.356  1.5961 -0.1584  0.6489
 5327TIP3   OH237395   5.500   3.316   5.811  0.0056 -0.0396  0.4712
 5327TIP3    H137396   5.483   3.238   5.758 -0.3936  0.2239  0.2009
 5327TIP3    H237397   5.439   3.382   5.776 -0.5426  0.0261  1.5081
 5328TIP3   OH237398   2.966   3.676  13.891 -0.2439 -0.3284  0.4374
 5328TIP3    H137399   2.971   3.584  13.864 -2.4464 -0.1225 -0.8292
 5328TIP3    H237400   2.915   3.719  13.823  0.4673  1.8008  1.1727
 5329TIP3   OH237401   3.954   5.695  14.874 -0.0207 -0.1178 -0.5401
 5329TIP3    H137402   3.954   5.791  14.864  0.9596 -0.1249 -0.6199
 5329TIP3    H237403   3.868   5.669  14.841  1.2820  0.3114 -4.8513
 5330TIP3   OH237404   5.963   0.856  15.495  0.3707 -0.2133  0.4795
 5330TIP3    H137405   5.882   0.842  15.446  0.2082 -0.2546  0.7595
 5330TIP3    H237406   5.939   0.918  15.564  0.5461 -0.3163  0.6337
 5331TIP3   OH237407   5.292   6.754  15.447  0.1183 -0.2204  0.0398
 5331TIP3    H137408   5.321   6.715  15.365  1.0446  0.2879  0.1200
 5331TIP3    H237409   5.344   6.833  15.457  1.3456 -1.1736  1.9855
 5332TIP3   OH237410   0.393   2.492  13.331 -0.0939 -0.0478 -0.4032
 5332TIP3    H137411   0.436   2.410  13.355 -0.7369 -0.7582 -1.6436
 5332TIP3    H237412   0.456   2.537  13.274  0.5003  0.6143  0.7371
 5333TIP3   OH237413   5.067   2.591  15.341 -0.9382  0.1346 -0.1910
 5333TIP3    H137414   4.975   2.618  15.332 -0.3907  3.9265  2.9380
 5333TIP3    H237415   5.065   2.521  15.406 -1.6208  0.2368 -0.0969
 5334TIP3   OH237416   5.300   6.208  13.046 -0.9036  0.0659 -0.0257
 5334TIP3    H137417   5.226   6.244  12.997 -1.0176  2.1227  1.5237
 5334TIP3    H237418   5.376   6.226  12.990 -1.1334  1.5842  0.0995
 5335TIP3   OH237419   2.623   4.157   4.445 -1.0017 -1.1638 -0.1455
 5335TIP3    H137420   2.670   4.200   4.374 -2.2740 -1.7420 -1.3714
 5335TIP3    H237421   2.680   4.169   4.522  1.3076 -2.1628 -1.6088
 5336TIP3   OH237422   4.081   6.423   1.130  0.1000 -0.3960  0.2529
 5336TIP3    H137423   4.084   6.357   1.061  0.0619 -0.5099  0.3592
 5336TIP3    H237424   4.004   6.399   1.182 -0.0601 -0.1183  0.1438
 5337TIP3   OH237425   3.570   3.683  12.323 -0.1070 -0.0728 -0.4135
 5337TIP3    H137426   3.550   3.592  12.343  2.0443 -0.1611  1.8168
 5337TIP3    H237427   3.534   3.697  12.235 -0.1529 -3.1819 -1.0002
 5338TIP3   OH237428   2.395   4.409   4.388 -0.1666 -0.4126 -0.1583
 5338TIP3    H137429   2.435   4.465   4.322 -3.0920  3.0619  0.6735
 5338TIP3    H237430   2.430   4.441   4.471 -1.9787  0.3944  0.3460
 5339TIP3   OH237431   2.849   2.253   2.934 -0.3837  0.2777  0.2870
 5339TIP3    H137432   2.758   2.245   2.906  0.1616 -0.5118 -1.4199
 5339TIP3    H237433   2.846   2.306   3.013 -2.2633  0.7715 -0.0765
 5340TIP3   OH237434   4.642   4.458  13.982  0.8209 -0.0153  0.0469
 5340TIP3    H137435   4.630   4.366  13.958  0.5408 -0.5970  2.2122
 5340TIP3    H237436   4.734   4.476  13.966  0.5691 -0.2040 -1.7960
 5341TIP3   OH237437   6.351   4.011   3.746 -0.3834 -0.6117  0.2685
 5341TIP3    H137438   6.354   4.003   3.651  0.0679  1.9458  0.0186
 5341TIP3    H237439   6.257   4.008   3.767 -0.4918 -1.0480 -0.2629
 5342TIP3   OH237440   0.885   4.294  13.306 -0.0004  0.1109 -0.3347
 5342TIP3    H137441   0.972   4.257  13.317  0.0997  0.5305  0.3322
 5342TIP3    H237442   0.899   4.389  13.299 -0.5286  0.4195  1.8861
 5343TIP3   OH237443   0.293   0.169   5.542 -0.3563  0.2853 -0.2024
 5343TIP3    H137444   0.244   0.092   5.571  1.0962  0.1317  2.0892
 5343TIP3    H237445   0.233   0.242   5.556 -1.5504 -0.3003 -1.8859
 5344TIP3   OH237446   5.904   4.163  12.002  0.4812 -0.2004 -0.1310
 5344TIP3    H137447   5.844   4.140  11.932  1.3687 -1.0325 -0.6433
 5344TIP3    H237448   5.983   4.193  11.956  0.4573  0.9316  0.5230
 5345TIP3   OH237449   2.333   5.446  14.768 -0.2739 -0.1456  0.7342
 5345TIP3    H137450   2.294   5.410  14.847  0.1840 -0.6430  0.7333
 5345TIP3    H237451   2.387   5.519  14.799 -1.4276  0.7608  0.7056
 5346TIP3   OH237452   0.624   3.616   4.319  0.5409 -0.0281 -0.6039
 5346TIP3    H137453   0.690   3.551   4.294 -0.0375 -0.8705  0.0071
 5346TIP3    H237454   0.606   3.598   4.411 -0.1287  0.5608 -0.6138
 5347TIP3   OH237455   2.441   4.253  14.129 -0.7972 -0.2686  0.7344
 5347TIP3    H137456   2.514   4.314  14.117 -1.0004 -0.0548  0.5951
 5347TIP3    H237457   2.451   4.223  14.220 -1.0209  0.3958  0.9848
 5348TIP3   OH237458   5.446   5.141   5.133  0.4753 -0.1243  0.7471
 5348TIP3    H137459   5.415   5.155   5.043  3.5214 -0.7870 -0.5302
 5348TIP3    H237460   5.465   5.047   5.137  1.3877  0.0824  1.7118
 5349TIP3   OH237461   0.802   1.734  12.052 -0.1970  0.5792 -0.8801
 5349TIP3    H137462   0.803   1.641  12.031  0.1451  0.6307 -1.1097
 5349TIP3    H237463   0.711   1.761  12.041 -0.6047 -0.0427  0.6437
 5350TIP3   OH237464   5.322   0.151  11.695  0.1168 -0.9338  0.4215
 5350TIP3    H137465   5.410   0.180  11.670 -0.7905  0.9400 -0.7416
 5350TIP3    H237466   5.277   0.137  11.612 -1.8949  2.0606  0.8940
 5351TIP3   OH237467   6.154   0.248   1.506 -0.1264 -0.1575 -0.2114
 5351TIP3    H137468   6.074   0.244   1.453 -0.1976 -1.6430 -0.0388
 5351TIP3    H237469   6.181   0.339   1.502 -1.0724  0.0916 -1.4035
 5352TIP3   OH237470   5.256   3.795   6.924 -0.5960  0.8099 -0.2881
 5352TIP3    H137471   5.343   3.828   6.904 -1.0752  2.3680  0.0807
 5352TIP3    H237472   5.257   3.704   6.893  1.0660  0.8758 -0.4958
 5353TIP3   OH237473   6.170   1.235   1.191  0.1054  0.2519  0.4057
 5353TIP3    H137474   6.195   1.225   1.099  0.9025 -1.1857  0.7463
 5353TIP3    H237475   6.075   1.247   1.188  0.1221  0.2652 -0.6034
 5354TIP3   OH237476   4.685   3.839  16.741 -0.3868 -0.0432 -0.2270
 5354TIP3    H137477   4.756   3.876  16.794 -0.6095  2.1271 -1.3106
 5354TIP3    H237478   4.731   3.787  16.674  0.1425  0.4653 -0.2733
 5355TIP3   OH237479   1.834   3.813   6.578  0.2496 -0.3903  0.6003
 5355TIP3    H137480   1.807   3.775   6.494 -0.5093  1.7908 -0.2405
 5355TIP3    H237481   1.797   3.902   6.576  0.4834 -0.1691  3.1266
 5356TIP3   OH237482   4.299   5.203   1.531  0.1796  0.7333  0.9129
 5356TIP3    H137483   4.341   5.242   1.608  0.8422  0.2131  0.8309
 5356TIP3    H237484   4.348   5.237   1.457  0.6159 -0.0499  0.8275
 5357TIP3   OH237485   2.351   5.657   1.560 -0.7813  0.8990 -0.2655
 5357TIP3    H137486   2.405   5.723   1.604  0.3072  0.3633 -0.7624
 5357TIP3    H237487   2.361   5.578   1.613  0.7348  0.1758 -1.5243
 5358TIP3   OH237488   1.520   0.090   5.579 -0.1310  0.4078  0.4098
 5358TIP3    H137489   1.544   0.163   5.636  2.1414  0.3521 -0.3523
 5358TIP3    H237490   1.593   0.028   5.588 -0.0078  0.0990 -1.9842
 5359TIP3   OH237491   4.921   5.642  15.099  0.5490 -0.0594  0.0382
 5359TIP3    H137492   4.863   5.713  15.130  0.7982  1.2168 -2.2363
 5359TIP3    H237493   4.863   5.567  15.088  0.3097 -0.3684  2.6977
 5360TIP3   OH237494   4.520   1.450   4.847  0.2825  0.3644  0.5538
 5360TIP3    H137495   4.480   1.439   4.934 -1.1804 -1.7937 -0.3018
 5360TIP3    H237496   4.491   1.374   4.797  0.2730  1.9943 -2.1603
 5361TIP3   OH237497   1.962   6.334  11.744 -0.0518 -0.0006 -0.0070
 5361TIP3    H137498   1.942   6.326  11.651 -1.8638  1.4718  0.1871
 5361TIP3    H237499   1.926   6.419  11.769  0.7095 -0.2047  1.9705
 5362TIP3   OH237500   5.174   5.121  15.501 -0.0671  0.1974  0.0414
 5362TIP3    H137501   5.243   5.066  15.537  0.1329  0.9176  0.7960
 5362TIP3    H237502   5.189   5.207  15.541 -1.7175  0.2395  0.6286
 5363TIP3   OH237503   6.470   0.217  15.507 -0.0024  0.3019  0.7076
 5363TIP3    H137504   6.466   0.167  15.425 -2.0035  0.3026  0.7553
 5363TIP3    H237505   6.413   0.170  15.567  0.9066  0.6866  1.8947
 5364TIP3   OH237506   2.683   1.486  11.671  0.0738  0.2579 -0.2667
 5364TIP3    H137507   2.684   1.437  11.588 -1.7686 -0.9725  0.3748
 5364TIP3    H237508   2.671   1.419  11.738 -0.1071  1.3817  0.8517
 5365TIP3   OH237509   2.333   4.475  17.070  0.1517 -0.8324  0.6577
 5365TIP3    H137510   2.401   4.439  17.127 -1.0015 -1.5305  1.6478
 5365TIP3    H237511   2.279   4.530  17.128  1.1057  1.5344 -0.5530
 5366TIP3   OH237512   5.126   2.686   5.057 -0.1820  0.4670 -0.0385
 5366TIP3    H137513   5.119   2.685   5.153 -1.7991  1.0013 -0.1229
 5366TIP3    H237514   5.106   2.596   5.031 -0.9784  0.6017  0.0756
 5367TIP3   OH237515   3.936   0.168  14.023 -0.2277 -0.3447 -0.4889
 5367TIP3    H137516   3.934   0.118  13.941  2.4204 -1.4937  0.0295
 5367TIP3    H237517   4.000   0.238  14.006  1.5240 -1.4872  0.9580
 5368TIP3   OH237518   3.063   6.060  17.064 -0.2194  0.5512  0.1412
 5368TIP3    H137519   3.068   6.143  17.017  2.0790  0.3501 -0.1086
 5368TIP3    H237520   3.076   5.993  16.997 -1.7310 -0.0329  0.3864
 5369TIP3   OH237521   1.117   2.927   4.866 -0.3702 -0.0493 -0.3120
 5369TIP3    H137522   1.210   2.940   4.884 -0.1468 -1.0289 -0.6875
 5369TIP3    H237523   1.112   2.918   4.771 -0.7963 -0.3236 -0.2663
 5370TIP3   OH237524   5.492   0.989   6.415 -0.5979  0.1732  0.4578
 5370TIP3    H137525   5.410   0.956   6.378 -0.7692  0.6530  0.3942
 5370TIP3    H237526   5.560   0.945   6.365 -0.8277  1.1602 -0.7809
 5371TIP3   OH237527   1.290   4.530  12.807  0.1532 -0.7663 -0.2004
 5371TIP3    H137528   1.280   4.619  12.776  1.0799 -0.3383  0.6612
 5371TIP3    H237529   1.306   4.478  12.728 -0.7319 -0.2421 -0.7402
 5372TIP3   OH237530   0.840   4.594   5.416  0.0658 -0.2105  0.5445
 5372TIP3    H137531   0.931   4.565   5.419  0.2245 -0.1170 -1.8106
 5372TIP3    H237532   0.843   4.688   5.434  0.8598  0.4088 -2.2955
 5373TIP3   OH237533   5.260   6.665  12.412  0.3847 -0.3667 -0.5082
 5373TIP3    H137534   5.175   6.708  12.423  1.1494  1.0808  0.1099
 5373TIP3    H237535   5.324   6.737  12.418  1.6358 -1.3433 -1.4352
 5374TIP3   OH237536   2.326   3.234   0.366 -0.1649 -0.2843  0.6956
 5374TIP3    H137537   2.314   3.143   0.341 -1.0122 -0.1968  0.7401
 5374TIP3    H237538   2.357   3.230   0.457  0.6041 -0.5381  0.4315
 5375TIP3   OH237539   1.283   1.113   3.351 -0.0758 -0.4572  0.3469
 5375TIP3    H137540   1.272   1.078   3.439 -1.7702  0.0123  0.3545
 5375TIP3    H237541   1.360   1.171   3.358 -0.7872  0.3824  1.7949
 5376TIP3   OH237542   1.919   3.728  11.008  0.7445  0.0133  0.6523
 5376TIP3    H137543   1.915   3.823  10.996  1.8604  0.0527  0.4490
 5376TIP3    H237544   1.905   3.692  10.920  0.9533  0.0145  0.6179
 5377TIP3   OH237545   6.484   2.848  12.697 -0.6329 -0.5394 -0.0244
 5377TIP3    H137546   6.406   2.883  12.655  0.0793  0.9252 -0.1912
 5377TIP3    H237547   6.556   2.873  12.639  0.2425  0.4582  1.4117
 5378TIP3   OH237548   4.267   2.829   6.732  0.2195 -0.0814 -0.1546
 5378TIP3    H137549   4.357   2.861   6.741  0.4641  0.0518 -2.5502
 5378TIP3    H237550   4.275   2.735   6.719 -0.0757 -0.2079  0.5097
 5379TIP3   OH237551   3.427   3.916   3.497 -0.4152  0.1385 -0.4566
 5379TIP3    H137552   3.396   3.838   3.542 -0.9689 -0.7730 -2.3144
 5379TIP3    H237553   3.383   3.989   3.541 -0.8917 -0.6900  0.4770
 5380TIP3   OH237554   3.370   4.333   4.333 -0.3358  0.1585 -0.2797
 5380TIP3    H137555   3.441   4.298   4.278 -0.4497  0.3446 -0.5456
 5380TIP3    H237556   3.290   4.303   4.291 -0.4157  0.0397 -0.0395
 5381TIP3   OH237557   4.201   4.015  12.193  0.1991 -0.3835  0.0468
 5381TIP3    H137558   4.132   4.069  12.233  0.3945  0.4562 -0.7307
 5381TIP3    H237559   4.252   3.983  12.267 -0.3144 -0.0393  0.5581
 5382TIP3   OH237560   1.180   0.027   4.250  0.1968  0.4007 -0.5159
 5382TIP3    H137561   1.248   0.062   4.308 -0.5292 -0.3443  0.8590
 5382TIP3    H237562   1.136   0.105   4.216 -0.6794  0.9130  1.6127
 5383TIP3   OH237563   2.322   6.474   5.692  0.5022 -0.3861  0.3990
 5383TIP3    H137564   2.383   6.545   5.673  1.2550 -0.9253  0.7246
 5383TIP3    H237565   2.366   6.422   5.760 -0.6164 -0.4245  1.1203
 5384TIP3   OH237566   0.538   3.726   3.543 -0.1953 -0.5270 -0.5498
 5384TIP3    H137567   0.525   3.686   3.457 -0.5801 -0.3534 -0.5743
 5384TIP3    H237568   0.453   3.720   3.586  0.3826 -2.1267  0.4774
 5385TIP3   OH237569   3.615   2.624  11.163  0.2131  0.0378 -0.0036
 5385TIP3    H137570   3.572   2.541  11.184 -0.9793  0.5452 -0.3771
 5385TIP3    H237571   3.569   2.656  11.085 -1.1004  2.2639  1.5643
 5386TIP3   OH237572   2.467   0.334   0.930 -0.0139 -0.0381 -0.2038
 5386TIP3    H137573   2.379   0.297   0.928  0.1057 -0.3108 -1.7126
 5386TIP3    H237574   2.510   0.298   0.853  1.2967  0.4092  0.2889
 5387TIP3   OH237575   1.836   1.619  15.418 -0.0774  0.3911 -0.3429
 5387TIP3    H137576   1.806   1.570  15.495  2.4147  0.6752  0.9376
 5387TIP3    H237577   1.803   1.708  15.431 -0.6692  0.1538 -0.2199
 5388TIP3   OH237578   2.102   3.128   4.889  0.2738  0.4262  0.2196
 5388TIP3    H137579   2.088   3.208   4.939 -0.9442  0.3634  0.0019
 5388TIP3    H237580   2.190   3.099   4.914  0.9759  2.1415 -0.1509
 5389TIP3   OH237581   6.645   4.947   1.971  0.5428  0.2198 -0.2630
 5389TIP3    H137582   6.638   4.948   1.876 -1.4034  1.4237 -0.1731
 5389TIP3    H237583   6.708   5.017   1.991 -0.2372  1.0513 -0.6409
 5390TIP3   OH237584   3.717   0.854  13.104 -0.3424 -0.1562 -0.1678
 5390TIP3    H137585   3.809   0.826  13.109 -0.8641 -2.7571 -2.4323
 5390TIP3    H237586   3.679   0.798  13.036 -4.1292 -0.6648  2.0654
 5391TIP3   OH237587   4.400   4.055  15.175 -0.1328  0.6420 -0.2544
 5391TIP3    H137588   4.437   4.104  15.101 -1.3010  0.7174 -0.8116
 5391TIP3    H237589   4.379   4.123  15.239 -2.4216  1.0314 -1.3137
 5392TIP3   OH237590   6.236   2.874  13.212  0.1118 -0.6148  0.6570
 5392TIP3    H137591   6.259   2.826  13.291  1.8362  1.8381  1.7683
 5392TIP3    H237592   6.311   2.933  13.197 -0.4432 -0.5449 -2.4430
 5393TIP3   OH237593   0.216   0.150  17.287  0.1949 -0.5808 -0.3807
 5393TIP3    H137594   0.146   0.186  17.231 -0.3749 -0.9189  0.1143
 5393TIP3    H237595   0.235   0.065  17.249  2.2569  0.5773 -2.1813
 5394TIP3   OH237596   0.018   5.482   2.038 -0.2761  0.6158  0.0924
 5394TIP3    H137597   0.031   5.561   2.091 -1.4546 -0.2254  1.6975
 5394TIP3    H237598  -0.055   5.503   1.981  0.0275  1.0001 -0.1637
 5395TIP3   OH237599   5.879   5.690  12.167  0.3437  0.0128 -0.0481
 5395TIP3    H137600   5.856   5.744  12.243 -1.0967 -0.1617 -0.3362
 5395TIP3    H237601   5.806   5.629  12.158  1.5145 -1.4105 -0.2762
 5396TIP3   OH237602   6.732   2.321  14.228 -0.0647  0.0526 -0.4443
 5396TIP3    H137603   6.645   2.328  14.269 -0.4504  0.9231 -1.3505
 5396TIP3    H237604   6.719   2.356  14.139  1.0993 -0.2987 -0.7671
 5397TIP3   OH237605   0.498   2.171   6.451 -0.0877 -0.0417  0.3129
 5397TIP3    H137606   0.452   2.234   6.507  0.7049  1.6117 -0.8318
 5397TIP3    H237607   0.477   2.086   6.489 -0.5947  0.9408  2.3654
 5398TIP3   OH237608   6.384   6.128  13.683 -0.5764  0.2207 -0.1564
 5398TIP3    H137609   6.467   6.163  13.650 -0.5426  1.6737  1.3057
 5398TIP3    H237610   6.347   6.081  13.609  1.5847 -0.5640 -0.8262
 5399TIP3   OH237611   1.219   3.321   3.728 -0.1283 -0.1306  0.3963
 5399TIP3    H137612   1.295   3.343   3.782  0.2534  0.9157 -0.5432
 5399TIP3    H237613   1.144   3.337   3.785  0.3087 -0.3470  1.0530
 5400TIP3   OH237614   1.209   4.925  11.819  0.2739 -0.1732  0.5225
 5400TIP3    H137615   1.249   5.000  11.863  1.1092 -0.6520  0.6024
 5400TIP3    H237616   1.131   4.906  11.871 -1.4062  2.1983 -0.9447
 5401TIP3   OH237617   0.742   4.870   6.270  0.4231 -0.4013  0.6079
 5401TIP3    H137618   0.722   4.886   6.363 -0.0697  0.9274  0.2999
 5401TIP3    H237619   0.812   4.932   6.250 -0.3253  0.2009 -0.2109
 5402TIP3   OH237620   5.227   5.570  12.031 -0.0907  0.0340 -0.3898
 5402TIP3    H137621   5.187   5.643  12.078 -1.5511 -0.3184 -1.0206
 5402TIP3    H237622   5.214   5.591  11.938  1.1349 -0.1412 -0.6167
 5403TIP3   OH237623   4.111   6.094   5.750 -0.3256  0.5175 -0.7487
 5403TIP3    H137624   4.064   6.036   5.810  0.5845  1.2751  0.7698
 5403TIP3    H237625   4.061   6.091   5.669 -1.4151 -0.8174 -0.0649
 5404TIP3   OH237626   2.601   4.633   3.340  0.6663  0.3880  0.2047
 5404TIP3    H137627   2.592   4.728   3.340 -0.7715  0.2979  1.6037
 5404TIP3    H237628   2.532   4.603   3.281  0.4146  0.1688  0.6118
 5405TIP3   OH237629   6.267   3.699   0.731 -0.4483  0.0192 -1.4649
 5405TIP3    H137630   6.297   3.777   0.684  0.8939  0.3448 -0.1266
 5405TIP3    H237631   6.307   3.626   0.683  0.9003  0.3501 -0.8972
 5406TIP3   OH237632   2.812   3.008   2.651 -0.0391 -0.2534  0.3403
 5406TIP3    H137633   2.897   2.964   2.659 -0.2942 -1.0339 -1.0094
 5406TIP3    H237634   2.751   2.952   2.699  0.0050 -0.2553  0.3949
 5407TIP3   OH237635   3.926   1.017   3.096 -0.0728  0.2826  0.2985
 5407TIP3    H137636   3.851   1.065   3.061 -0.6636  0.4616  1.7508
 5407TIP3    H237637   3.953   1.068   3.173  0.4656 -0.7059  0.7818
 5408TIP3   OH237638   0.251   5.214   3.321  0.2068 -0.1714 -0.5796
 5408TIP3    H137639   0.230   5.259   3.239  0.8241 -0.8724 -1.1341
 5408TIP3    H237640   0.345   5.199   3.317  0.0579 -1.3055 -0.3079
 5409TIP3   OH237641   3.031   3.623   6.145  0.4337  0.2047 -0.2063
 5409TIP3    H137642   3.115   3.615   6.098  0.8494 -1.7944  0.7526
 5409TIP3    H237643   2.965   3.599   6.080  0.8829 -1.0644 -0.2348
 5410TIP3   OH237644   4.931   3.151  16.284 -0.2393 -0.4743 -0.3480
 5410TIP3    H137645   5.010   3.202  16.264  0.2675 -0.7937  0.7264
 5410TIP3    H237646   4.868   3.176  16.217  0.8609 -0.3941 -1.3788
 5411TIP3   OH237647   5.860   1.285  15.756 -0.0516 -0.1135  0.1203
 5411TIP3    H137648   5.862   1.363  15.701  0.9226 -0.4009 -0.2566
 5411TIP3    H237649   5.854   1.319  15.845 -2.1471  0.3556 -0.1359
 5412TIP3   OH237650   5.332   4.617   4.130 -0.2577  0.9471 -0.2006
 5412TIP3    H137651   5.264   4.656   4.185 -0.8786  0.3999 -0.5722
 5412TIP3    H237652   5.336   4.673   4.053 -1.5257  0.0040 -0.9813
 5413TIP3   OH237653   4.325   3.570   1.617 -0.6128  0.0504  0.1858
 5413TIP3    H137654   4.233   3.541   1.618 -0.6586  0.2001  0.5418
 5413TIP3    H237655   4.362   3.533   1.698 -1.4813  3.5354  2.3767
 5414TIP3   OH237656   0.871   0.117   2.947  0.4152 -0.5685 -0.1300
 5414TIP3    H137657   0.935   0.046   2.946  1.8690  0.7047 -0.0272
 5414TIP3    H237658   0.798   0.084   2.894  1.8026 -1.4539 -1.5775
 5415TIP3   OH237659   4.892   1.188   2.581  0.1028 -0.0255  0.7209
 5415TIP3    H137660   4.930   1.193   2.493 -1.1763 -0.7956  0.0987
 5415TIP3    H237661   4.892   1.094   2.601  0.4101  0.1523  1.5542
 5416TIP3   OH237662   1.911   4.017  12.231  0.0090  0.2954 -0.3269
 5416TIP3    H137663   1.913   4.107  12.198  2.3501  0.3992 -0.0368
 5416TIP3    H237664   1.944   3.964  12.159 -1.9727 -0.4865 -0.7336
 5417TIP3   OH237665   5.825   1.076  12.682  0.0260 -0.1990 -0.2732
 5417TIP3    H137666   5.837   1.048  12.592 -0.7591  0.7621 -0.6919
 5417TIP3    H237667   5.780   1.003  12.725 -3.2572  0.8223 -1.6882
 5418TIP3   OH237668   1.084   0.237  11.308  0.1179  0.3120 -0.3931
 5418TIP3    H137669   1.163   0.200  11.347  0.2732  0.6090 -0.4218
 5418TIP3    H237670   1.066   0.315  11.361 -0.6176 -0.1979  0.1204
 5419TIP3   OH237671   1.850   2.004  11.611 -0.0428  0.0949 -0.0431
 5419TIP3    H137672   1.784   2.046  11.665 -0.2239  1.3194 -1.1631
 5419TIP3    H237673   1.932   2.016  11.659 -0.4998 -0.7203  0.9613
 5420TIP3   OH237674   5.949   3.949   2.077 -0.2145  0.0473 -0.5099
 5420TIP3    H137675   6.007   3.993   2.015 -0.9675 -0.7786 -1.8627
 5420TIP3    H237676   5.957   3.999   2.158  1.5761  0.5614 -0.9592
 5421TIP3   OH237677   2.915   0.293   0.416 -0.2233 -0.0196 -0.3068
 5421TIP3    H137678   2.826   0.327   0.404 -0.1273 -0.4167 -2.5121
 5421TIP3    H237679   2.932   0.243   0.337  2.8254  1.9564 -1.0594
 5422TIP3   OH237680   2.683   5.566  11.733 -0.1163  0.1044 -0.1847
 5422TIP3    H137681   2.597   5.562  11.689 -0.8790  1.6137  1.0551
 5422TIP3    H237682   2.739   5.611  11.670 -1.1806  2.1803  0.2477
 5423TIP3   OH237683   0.426   4.253   3.371  0.8873  0.1903  0.3034
 5423TIP3    H137684   0.452   4.260   3.463  0.3613 -0.2351  0.4910
 5423TIP3    H237685   0.493   4.302   3.323  0.6044  1.2984  1.0022
 5424TIP3   OH237686   0.243   3.625  16.604 -0.3247  0.2131  0.0777
 5424TIP3    H137687   0.332   3.646  16.633 -0.5032  0.4661  0.4591
 5424TIP3    H237688   0.255   3.570  16.526  0.1636  0.6709 -0.1786
 5425TIP3   OH237689   0.287   2.788  11.125  0.1611 -0.0107 -0.1020
 5425TIP3    H137690   0.214   2.796  11.186  0.1943 -0.7285  0.0465
 5425TIP3    H237691   0.292   2.873  11.081 -2.3732 -0.7140 -1.9498
 5426TIP3   OH237692   6.405   6.360   1.239  0.1100  0.0834  0.2231
 5426TIP3    H137693   6.336   6.426   1.241 -1.0548 -0.9504 -1.8883
 5426TIP3    H237694   6.481   6.403   1.279 -1.4498  1.5843  1.7500
 5427TIP3   OH237695   1.997   6.373  14.859  0.4636 -0.1681  0.8649
 5427TIP3    H137696   1.923   6.422  14.895  0.9064  2.2412 -1.1884
 5427TIP3    H237697   2.074   6.412  14.900  0.7311 -0.4982  0.6813
 5428TIP3   OH237698   5.927   6.660   5.196 -0.4995  0.0712  0.4612
 5428TIP3    H137699   5.906   6.675   5.104 -1.4804 -0.3962  0.5936
 5428TIP3    H237700   5.856   6.702   5.244 -1.1397 -1.4767  0.9357
 5429TIP3   OH237701   4.530   2.979   2.345 -0.5127  0.1006 -0.4254
 5429TIP3    H137702   4.478   3.057   2.325 -0.9330 -0.1732 -0.4032
 5429TIP3    H237703   4.594   2.974   2.274 -0.6788  0.2966 -0.5904
 5430TIP3   OH237704   2.321   1.956  10.916  0.3867 -0.2409  1.0165
 5430TIP3    H137705   2.235   1.995  10.930  0.5489 -0.2483  2.0815
 5430TIP3    H237706   2.301   1.870  10.879 -0.1142 -0.5629  1.9826
 5431TIP3   OH237707   4.703   4.111   1.391 -0.5277 -0.0112  0.3582
 5431TIP3    H137708   4.709   4.205   1.370 -1.9635 -0.0572 -0.3411
 5431TIP3    H237709   4.611   4.089   1.378 -0.4213 -1.3036  1.5220
 5432TIP3   OH237710   1.749   5.951  15.136  0.4462 -0.7148  0.1702
 5432TIP3    H137711   1.785   6.034  15.105 -2.3513  0.0994 -1.2471
 5432TIP3    H237712   1.729   5.967  15.228  0.3286  0.0517  0.0227
 5433TIP3   OH237713   0.075   2.329   1.646 -0.1645 -0.0934 -0.5883
 5433TIP3    H137714   0.032   2.244   1.635  0.0391 -0.0458 -1.8758
 5433TIP3    H237715   0.162   2.318   1.608  0.3691  0.3152  0.4604
 5434TIP3   OH237716   2.661   5.104   4.088  0.1522 -0.1426  0.5549
 5434TIP3    H137717   2.603   5.180   4.081  0.8543  0.4065  0.5846
 5434TIP3    H237718   2.749   5.139   4.073  0.4399 -1.0397  0.0047
 5435TIP3   OH237719   4.899   4.287  15.681 -0.1687  0.1239 -0.1633
 5435TIP3    H137720   4.981   4.296  15.730  0.0087 -0.8436 -0.2578
 5435TIP3    H237721   4.920   4.225  15.610 -0.7979  0.4049 -0.6031
 5436TIP3   OH237722   2.197   3.230   5.725 -0.5328  0.1863 -0.4909
 5436TIP3    H137723   2.205   3.234   5.630 -0.2486  1.6205 -0.4177
 5436TIP3    H237724   2.103   3.222   5.740 -0.6591  0.8411 -0.8814
 5437TIP3   OH237725   2.333   1.703   0.333  0.4757  0.1947  0.4425
 5437TIP3    H137726   2.377   1.766   0.276  0.9920  0.3953  1.0522
 5437TIP3    H237727   2.336   1.620   0.284 -0.4176  0.6721 -0.4663
 5438TIP3   OH237728   6.045   5.156   1.552  0.3805  0.1362  0.2051
 5438TIP3    H137729   6.106   5.120   1.488  0.9620 -1.0170  1.3570
 5438TIP3    H237730   6.091   5.232   1.589  2.0917 -1.8111  2.4374
 5439TIP3   OH237731   6.588   2.096  12.940  0.2156  0.6479  0.0567
 5439TIP3    H137732   6.501   2.132  12.923  0.0042  1.0363  1.7398
 5439TIP3    H237733   6.639   2.171  12.972  0.6737  0.0799  0.6855
 5440TIP3   OH237734   6.413   5.663  16.399  0.1863 -0.0937 -0.2184
 5440TIP3    H137735   6.488   5.605  16.384 -0.4257 -0.8324 -0.4964
 5440TIP3    H237736   6.338   5.611  16.371 -0.2326  1.4384 -2.1329
 5441TIP3   OH237737   2.944   4.897   0.173 -0.5161  0.0239 -1.0353
 5441TIP3    H137738   2.980   4.834   0.236  1.6824  0.0119 -2.2038
 5441TIP3    H237739   2.917   4.971   0.227  0.7964 -0.2056 -0.0028
 5442TIP3   OH237740   5.591   6.372  14.162 -0.1625  0.2829 -0.3271
 5442TIP3    H137741   5.676   6.395  14.199  0.9497  0.3691 -2.7660
 5442TIP3    H237742   5.609   6.350  14.071 -2.7220 -0.0365 -0.8391
 5443TIP3   OH237743   3.645   0.788  11.626  0.3667 -0.2876 -0.0968
 5443TIP3    H137744   3.715   0.822  11.681  0.0014  0.7172 -0.2381
 5443TIP3    H237745   3.595   0.731  11.684 -0.4958  1.3825  0.8821
 5444TIP3   OH237746   1.101   4.831   1.438  0.0009 -0.1202  0.2654
 5444TIP3    H137747   1.187   4.849   1.399  0.4469 -2.2059  0.1973
 5444TIP3    H237748   1.121   4.797   1.525 -0.8299  0.3857  0.6654
 5445TIP3   OH237749   4.855   3.113   2.473  0.1837  0.4951  0.4928
 5445TIP3    H137750   4.913   3.117   2.548  0.6650 -0.7971  0.2125
 5445TIP3    H237751   4.869   3.026   2.435 -2.2897 -0.0845  0.7027
 5446TIP3   OH237752   2.397   0.235   3.095 -0.1198 -0.2585 -0.4638
 5446TIP3    H137753   2.372   0.219   3.186 -0.7314  2.5541 -0.0502
 5446TIP3    H237754   2.472   0.178   3.080 -2.8566 -4.4479  0.2135
 5447TIP3   OH237755   6.661   3.195   3.379 -0.9313  0.7389 -0.4925
 5447TIP3    H137756   6.610   3.151   3.311 -0.0371  1.5006 -1.7137
 5447TIP3    H237757   6.692   3.275   3.337 -0.4680  1.3122  0.8814
 5448TIP3   OH237758   2.910   6.047   6.248  0.0762 -0.3799  0.2866
 5448TIP3    H137759   2.850   6.116   6.275  0.4854 -0.4734  1.4848
 5448TIP3    H237760   2.901   6.044   6.153 -3.5192 -1.9538  0.5129
 5449TIP3   OH237761   5.429   1.799   2.191  0.2919  0.0655  0.3674
 5449TIP3    H137762   5.462   1.850   2.117 -0.6750  2.8152  1.7215
 5449TIP3    H237763   5.464   1.843   2.268 -1.7206 -0.4720  1.6434
 5450TIP3   OH237764   2.421   0.595  13.012  0.6002  0.9929 -0.0364
 5450TIP3    H137765   2.421   0.557  13.099  0.2965  1.2230  0.0670
 5450TIP3    H237766   2.392   0.524  12.954 -1.1077  1.3794  0.3057
 5451TIP3   OH237767   0.737   4.460   3.210  0.0932  0.1400 -0.1688
 5451TIP3    H137768   0.778   4.436   3.293  0.5242  0.0210 -0.4091
 5451TIP3    H237769   0.799   4.521   3.169 -1.2925  2.2500  0.7224
 5452TIP3   OH237770   0.740   0.386  14.735  0.3094  0.1062  0.5014
 5452TIP3    H137771   0.802   0.434  14.680  0.3071 -0.1008  0.3170
 5452TIP3    H237772   0.782   0.384  14.821  1.0292 -0.8911  0.1419
 5453TIP3   OH237773   0.835   2.608   0.732 -0.2103 -0.0626  0.5230
 5453TIP3    H137774   0.794   2.600   0.818 -0.8202  0.0273  0.2453
 5453TIP3    H237775   0.928   2.591   0.748 -0.4422 -0.8851  1.0681
 5454TIP3   OH237776   3.405   0.019   6.513 -0.0051 -0.1609 -0.2566
 5454TIP3    H137777   3.406  -0.064   6.560 -0.1543  0.2264  0.4377
 5454TIP3    H237778   3.477   0.070   6.552 -1.3346  0.9024  0.9375
 5455TIP3   OH237779   5.137   3.183  16.908 -0.6781  0.5109  0.4761
 5455TIP3    H137780   5.201   3.113  16.894 -1.6210 -0.2485 -0.1517
 5455TIP3    H237781   5.133   3.193  17.003  0.1324  0.3462  0.5372
 5456TIP3   OH237782   5.102   1.637  13.665  0.1405  0.5281  0.0722
 5456TIP3    H137783   5.125   1.721  13.704 -1.0347  0.5144  0.8568
 5456TIP3    H237784   5.106   1.575  13.739 -1.6443  0.4056  0.0960
 5457TIP3   OH237785   0.459   0.423   3.312  0.4995 -0.1564 -0.4945
 5457TIP3    H137786   0.405   0.345   3.303 -0.6949  0.6262 -0.3925
 5457TIP3    H237787   0.511   0.426   3.231  0.0291 -0.6677 -0.8213
 5458TIP3   OH237788   3.425   0.954  14.433  0.1065  0.2820  0.3670
 5458TIP3    H137789   3.498   0.951  14.495  0.2524  0.5554  0.2073
 5458TIP3    H237790   3.448   0.889  14.366  0.4592  0.7534  0.0316
 5459TIP3   OH237791   3.292   1.804  13.512 -0.2135  0.0838 -0.1376
 5459TIP3    H137792   3.381   1.787  13.543 -0.5607 -0.9662  0.3192
 5459TIP3    H237793   3.304   1.851  13.430  0.7648 -0.3574 -0.2583
 5460TIP3   OH237794   2.505   5.735   2.329 -0.4319 -0.4031 -0.7334
 5460TIP3    H137795   2.467   5.811   2.373 -0.3283  0.5001 -2.1651
 5460TIP3    H237796   2.434   5.699   2.277 -0.2450 -0.7870 -0.7296
 5461TIP3   OH237797   3.287   2.853  11.711 -0.4491  0.6484  0.1289
 5461TIP3    H137798   3.214   2.857  11.772 -1.4912  0.1531 -1.0527
 5461TIP3    H237799   3.249   2.822  11.629  0.9311  1.2054 -0.7643
 5462TIP3   OH237800   4.273   6.426  16.244 -0.1159  0.1948  0.0043
 5462TIP3    H137801   4.268   6.401  16.152 -2.2049 -1.9027  0.5806
 5462TIP3    H237802   4.267   6.521  16.243 -0.9982  0.1762 -2.0042
 5463TIP3   OH237803   2.348   1.342   4.655 -0.0058 -0.5067  0.5292
 5463TIP3    H137804   2.356   1.303   4.742 -0.9707 -2.0894 -0.0476
 5463TIP3    H237805   2.286   1.414   4.666 -1.6593 -1.9122  0.8373
 5464TIP3   OH237806   3.936   5.677   4.461 -0.0495  0.8267  0.2408
 5464TIP3    H137807   3.854   5.715   4.492  1.4016  2.8172  1.9103
 5464TIP3    H237808   3.986   5.751   4.427  1.3745 -0.1922  0.0013
 5465TIP3   OH237809   0.649   0.117  16.150  0.0649 -0.3744 -0.5171
 5465TIP3    H137810   0.594   0.071  16.213  0.1594 -0.1441 -0.2641
 5465TIP3    H237811   0.589   0.174  16.102 -0.3127 -1.8268 -1.8570
 5466TIP3   OH237812   1.570   3.774  17.144 -0.7599 -0.2150  0.6700
 5466TIP3    H137813   1.599   3.829  17.071 -1.5880  0.9422  1.1756
 5466TIP3    H237814   1.586   3.685  17.115  1.3289  0.2961  0.1228
 5467TIP3   OH237815   3.405   0.656   3.462  0.1407 -0.0367  0.2783
 5467TIP3    H137816   3.432   0.701   3.382 -1.3832 -0.8864 -0.7721
 5467TIP3    H237817   3.487   0.639   3.509  1.0638  0.6091 -1.0311
 5468TIP3   OH237818   0.138   2.139   4.635  0.3318  0.2233 -0.2230
 5468TIP3    H137819   0.069   2.073   4.634 -0.2266  0.7944 -0.1615
 5468TIP3    H237820   0.187   2.122   4.716 -0.3133  0.3850  0.2117
 5469TIP3   OH237821   5.041   3.562   0.210 -0.3002 -0.3339 -0.5535
 5469TIP3    H137822   4.965   3.610   0.243 -0.8304 -1.2338 -0.4018
 5469TIP3    H237823   5.003   3.497   0.150  0.3412 -0.8318 -0.4333
 5470TIP3   OH237824   1.399   4.681   5.075  0.0004 -0.0573 -0.6997
 5470TIP3    H137825   1.317   4.730   5.079  0.3124  0.4691 -0.7167
 5470TIP3    H237826   1.463   4.744   5.041 -0.0860 -1.1117 -2.9785
 5471TIP3   OH237827   4.034   1.106  14.586 -0.3817  0.1127 -0.8166
 5471TIP3    H137828   3.957   1.049  14.585 -1.0467  0.9894 -0.8391
 5471TIP3    H237829   4.104   1.051  14.622 -1.7551  0.1650  2.2751
 5472TIP3   OH237830   5.234   2.750  16.694  0.1638 -0.4211 -0.2948
 5472TIP3    H137831   5.261   2.661  16.717 -0.7627 -0.0785  2.4637
 5472TIP3    H237832   5.192   2.741  16.608  0.1290 -2.6234 -0.1018
 5473TIP3   OH237833   6.218   3.356   5.984 -0.0532 -0.3209 -0.1930
 5473TIP3    H137834   6.173   3.279   5.950  1.1793 -2.3214  2.3507
 5473TIP3    H237835   6.158   3.393   6.048  1.1806 -2.2226  2.2367
 5474TIP3   OH237836   1.239   1.447   5.738 -0.3748 -0.0030  0.0224
 5474TIP3    H137837   1.193   1.515   5.690 -1.1593 -0.3601  0.2497
 5474TIP3    H237838   1.273   1.491   5.816 -1.6343 -0.0363  0.6203
 5475TIP3   OH237839   5.388   5.711  11.403  0.2930  0.0885 -0.2971
 5475TIP3    H137840   5.434   5.723  11.486 -2.1239  1.5270  0.9613
 5475TIP3    H237841   5.318   5.648  11.424 -0.0138  0.0442 -1.3871
 5476TIP3   OH237842   0.670   2.475   1.158 -0.3930 -0.0982 -0.0331
 5476TIP3    H137843   0.745   2.480   1.218 -0.6270  1.1086  0.1769
 5476TIP3    H237844   0.652   2.381   1.150  2.5710 -0.6371 -1.8825
 5477TIP3   OH237845   3.415   5.895  12.570  0.6893 -0.2296  0.3533
 5477TIP3    H137846   3.349   5.927  12.508  1.7505 -1.0438 -1.2811
 5477TIP3    H237847   3.372   5.824  12.617  0.3643 -0.7392 -0.6857
 5478TIP3   OH237848   2.797   0.938   4.569  0.5381  0.0141 -0.4187
 5478TIP3    H137849   2.800   0.848   4.537 -1.1535 -0.4172  0.5367
 5478TIP3    H237850   2.743   0.934   4.647  1.0272  1.7590  0.0571
 5479TIP3   OH237851   2.076   5.172  16.862 -0.2146 -0.3561 -0.6422
 5479TIP3    H137852   2.101   5.235  16.795 -0.7458  0.9328  0.3262
 5479TIP3    H237853   1.980   5.170  16.858 -0.3301  0.6323  0.8161
 5480TIP3   OH237854   6.651   2.541   4.368 -0.2188 -0.0913  0.4495
 5480TIP3    H137855   6.567   2.514   4.329 -0.3059  1.0769 -0.2075
 5480TIP3    H237856   6.700   2.459   4.376 -0.7664 -0.5763 -0.7544
 5481TIP3   OH237857   1.407   1.168  13.264  0.0512 -0.1110  0.0962
 5481TIP3    H137858   1.453   1.203  13.341 -1.7026  2.2536  0.1864
 5481TIP3    H237859   1.435   1.225  13.192 -2.8842  1.6998  0.2442
 5482TIP3   OH237860   3.419   0.315  14.951 -0.0942  0.0660  0.4564
 5482TIP3    H137861   3.425   0.284  15.042 -0.9706  0.9956  0.8471
 5482TIP3    H237862   3.488   0.267  14.905 -1.2112 -2.2878  1.0593
 5483TIP3   OH237863   2.668   6.054   4.054  0.4523 -0.2598  0.0701
 5483TIP3    H137864   2.602   6.090   4.113  0.2602 -1.2520  0.4816
 5483TIP3    H237865   2.682   5.965   4.086 -0.1441 -1.0642 -1.7927
 5484TIP3   OH237866   0.538   5.942  14.625  0.1422 -0.5535 -0.7252
 5484TIP3    H137867   0.518   5.957  14.533 -0.4192 -2.0330 -0.8734
 5484TIP3    H237868   0.624   5.901  14.625 -0.2136 -1.3297 -0.6795
 5485TIP3   OH237869   5.215   0.094  16.430  0.5309 -0.3693  0.8032
 5485TIP3    H137870   5.200   0.109  16.337  3.7433  0.6441  0.3284
 5485TIP3    H237871   5.129   0.107  16.471 -0.5419  1.2955 -1.7554
 5486TIP3   OH237872   2.192   1.825  16.515 -0.4748 -0.3701 -0.1331
 5486TIP3    H137873   2.223   1.894  16.456 -0.1182 -0.0711  0.3934
 5486TIP3    H237874   2.117   1.786  16.469  0.8507 -1.3302 -1.5822
 5487TIP3   OH237875   2.958   6.567   2.216  0.2939 -0.7441 -0.2130
 5487TIP3    H137876   3.041   6.523   2.201  0.1207 -1.1477  0.0120
 5487TIP3    H237877   2.931   6.598   2.129 -0.4567 -2.6253 -0.6820
 5488TIP3   OH237878   2.737   1.543   2.303 -0.3887  0.1041 -0.6895
 5488TIP3    H137879   2.813   1.555   2.360 -0.0129 -1.6953 -0.7333
 5488TIP3    H237880   2.768   1.570   2.217  0.3337 -0.9024 -0.7659
 5489TIP3   OH237881   2.109   5.705   0.080  0.0467  0.1175 -0.4188
 5489TIP3    H137882   2.072   5.684   0.166 -0.7953  1.1695 -0.5046
 5489TIP3    H237883   2.059   5.651   0.019 -0.3092  0.3808 -0.3707
 5490TIP3   OH237884   5.900   4.286   1.401  0.0707 -0.3239 -0.1616
 5490TIP3    H137885   5.914   4.278   1.307 -0.6544 -0.4203 -0.2621
 5490TIP3    H237886   5.875   4.377   1.415  0.7457 -0.1558  0.0203
 5491TIP3   OH237887   3.054   5.989   2.214  0.1636  0.3740 -0.6566
 5491TIP3    H137888   3.121   6.033   2.162  3.0577 -0.7540  1.7891
 5491TIP3    H237889   3.100   5.959   2.292 -3.2309 -0.6399  1.1785
 5492TIP3   OH237890   6.293   4.443   5.778 -0.3030  0.3600  0.5072
 5492TIP3    H137891   6.369   4.494   5.804  1.3836 -0.4883 -2.2597
 5492TIP3    H237892   6.309   4.356   5.815  0.1829  0.1434 -0.1936
 5493TIP3   OH237893   1.702   2.282  14.726  0.1770 -0.0297  0.6544
 5493TIP3    H137894   1.777   2.341  14.732  0.7061 -0.3914 -1.6501
 5493TIP3    H237895   1.683   2.258  14.817  4.1972 -1.5446  1.2944
 5494TIP3   OH237896   6.135   2.178  13.095  0.3829  0.0845  0.8482
 5494TIP3    H137897   6.093   2.105  13.139  1.6839 -2.6199 -1.9752
 5494TIP3    H237898   6.096   2.256  13.134 -3.1093 -2.1005  2.1787
 5495TIP3   OH237899   4.360   6.199   4.268  0.3963  0.5424  0.3223
 5495TIP3    H137900   4.282   6.152   4.240  0.2207  1.7280 -1.3095
 5495TIP3    H237901   4.427   6.131   4.277 -0.6693 -0.4254  1.3278
 5496TIP3   OH237902   1.784   3.338  15.765  0.5280  0.1840 -0.7078
 5496TIP3    H137903   1.838   3.261  15.747 -0.0013  0.0393 -1.7650
 5496TIP3    H237904   1.717   3.307  15.825  0.1806 -0.2441 -1.3091
 5497TIP3   OH237905   0.891   5.386   3.368 -0.4549 -0.5404  0.7228
 5497TIP3    H137906   0.871   5.357   3.457  1.5028 -0.9086  1.0853
 5497TIP3    H237907   0.913   5.305   3.321 -1.3732 -0.3350 -0.0856
 5498TIP3   OH237908   3.100   6.455  15.575  0.4790  0.7491 -0.0547
 5498TIP3    H137909   3.043   6.407  15.635 -0.7222  0.4465 -1.4062
 5498TIP3    H237910   3.156   6.387  15.537  0.0213  0.6785 -0.6058
 5499TIP3   OH237911   3.103   0.892  17.036  0.0190 -0.4636  0.3092
 5499TIP3    H137912   3.030   0.933  16.989 -1.0812 -2.2301  0.3861
 5499TIP3    H237913   3.163   0.864  16.966  0.9286  1.4229  0.2661
 5500TIP3   OH237914   6.240   0.530  11.386 -0.1974  0.0945 -0.3789
 5500TIP3    H137915   6.240   0.597  11.318 -0.2315  0.5438  0.0648
 5500TIP3    H237916   6.284   0.570  11.460  0.2843 -0.5667 -0.2931
 5501TIP3   OH237917   6.117   6.506  17.343  0.5744 -0.2252  0.0673
 5501TIP3    H137918   6.076   6.481  17.260  0.9236  0.8673 -0.4513
 5501TIP3    H237919   6.045   6.546  17.393 -0.0087 -2.2194  0.9361
 5502TIP3   OH237920   0.936   0.732  16.470 -0.6141  0.7282 -0.3418
 5502TIP3    H137921   1.010   0.716  16.411  1.1138  2.6301  1.1483
 5502TIP3    H237922   0.862   0.751  16.411 -0.0103 -1.3030 -1.8757
 5503TIP3   OH237923   2.090   2.103   1.564  0.1500 -0.2345 -0.1483
 5503TIP3    H137924   2.176   2.146   1.562 -0.4578  1.0095 -0.4721
 5503TIP3    H237925   2.097   2.034   1.498  1.2110 -0.7967  0.5197
 5504TIP3   OH237926   2.868   2.223   2.458  0.2015 -0.8151 -0.1342
 5504TIP3    H137927   2.860   2.275   2.538  0.6608  1.0462 -1.2348
 5504TIP3    H237928   2.944   2.166   2.473  0.3822 -0.3724  0.6810
 5505TIP3   OH237929   3.241   0.591  13.092 -0.1699 -0.2631 -0.3158
 5505TIP3    H137930   3.194   0.551  13.166  0.1691  0.6463  0.4128
 5505TIP3    H237931   3.217   0.537  13.017 -3.2771  0.7630 -0.1937
 5506TIP3   OH237932   3.409   6.717   5.665  0.5222 -0.6617 -0.2619
 5506TIP3    H137933   3.360   6.748   5.589  1.8549 -0.1266 -0.9192
 5506TIP3    H237934   3.476   6.783   5.680  0.4429 -0.8751  1.2483
 5507TIP3   OH237935   0.279   5.276  14.473 -0.0932  0.3776  0.1853
 5507TIP3    H137936   0.226   5.266  14.552 -0.9493 -1.9924 -0.5986
 5507TIP3    H237937   0.221   5.249  14.401  1.2054  0.7794 -1.0698
 5508TIP3   OH237938   0.911   0.481   5.731 -0.3193  0.2437 -0.1490
 5508TIP3    H137939   0.898   0.445   5.819  1.0286 -0.2152 -0.1151
 5508TIP3    H237940   0.874   0.415   5.672 -0.5932  0.2273  0.0378
 5509TIP3   OH237941   0.075   2.571   1.542 -0.0045  0.8308 -0.7105
 5509TIP3    H137942   0.153   2.573   1.597 -0.9944  1.7086  0.7188
 5509TIP3    H237943   0.028   2.492   1.570 -0.2268  0.9584 -0.7223
 5510TIP3   OH237944   3.906   1.843   4.333 -0.2254  0.1047 -0.0088
 5510TIP3    H137945   3.819   1.884   4.339 -0.0553  0.2826  1.5555
 5510TIP3    H237946   3.899   1.786   4.257 -1.5428  0.5269 -0.2463
 5511TIP3   OH237947   4.253   4.730   6.050  0.4392 -0.4359 -0.8084
 5511TIP3    H137948   4.236   4.655   5.992 -0.8930 -0.7778 -0.0071
 5511TIP3    H237949   4.263   4.804   5.991 -0.4127 -0.8633 -1.5049
 5512TIP3   OH237950   5.371   3.806  13.793  0.3439 -0.0090 -0.2412
 5512TIP3    H137951   5.450   3.803  13.739 -0.4117 -1.2268 -1.3070
 5512TIP3    H237952   5.321   3.880  13.758  0.7654  0.4361  0.0921
 5513TIP3   OH237953   6.641   1.681   3.421 -0.5661  0.4336 -0.1683
 5513TIP3    H137954   6.688   1.765   3.417 -2.3754  1.4822 -0.6570
 5513TIP3    H237955   6.550   1.706   3.437 -1.1156 -1.4681 -0.1348
 5514TIP3   OH237956   6.653   5.944  13.510  0.1111  0.4167 -0.5263
 5514TIP3    H137957   6.674   5.999  13.586  2.1089 -0.6347 -0.2601
 5514TIP3    H237958   6.655   5.854  13.544 -2.8663  0.0507 -1.0011
 5515TIP3   OH237959   1.806   3.089   6.261  0.2438  0.3355  0.2301
 5515TIP3    H137960   1.811   3.013   6.203 -2.0346 -0.6884  1.2703
 5515TIP3    H237961   1.891   3.090   6.305  0.4952 -1.3545 -0.1240
 5516TIP3   OH237962   0.121   5.628  13.737  0.4346 -0.1580  0.5119
 5516TIP3    H137963   0.142   5.561  13.802 -0.7766 -1.2649 -0.1822
 5516TIP3    H237964   0.192   5.622  13.673 -0.7534 -2.4343 -0.7406
 5517TIP3   OH237965   2.384   0.783  10.811 -0.4520  0.1074 -0.0386
 5517TIP3    H137966   2.410   0.735  10.890  1.0590  3.8702  1.9954
 5517TIP3    H237967   2.463   0.784  10.757 -1.3688 -2.1080 -1.5801
 5518TIP3   OH237968   0.043   2.114   0.465 -0.1357  0.4603  0.3134
 5518TIP3    H137969   0.027   2.156   0.381 -0.4507  0.6644  0.4710
 5518TIP3    H237970  -0.042   2.075   0.489  0.2487 -0.6250 -0.0211
 5519TIP3   OH237971   0.788   2.525   0.357 -0.0870 -0.2939  0.6865
 5519TIP3    H137972   0.825   2.601   0.312 -0.5477  0.6333  1.8204
 5519TIP3    H237973   0.720   2.561   0.413 -0.8812 -1.6577  0.6442
 5520TIP3   OH237974   3.332   0.573  15.166  0.0224 -0.2399 -0.2582
 5520TIP3    H137975   3.293   0.520  15.237  1.7868  0.5133  1.3445
 5520TIP3    H237976   3.419   0.536  15.154  0.4817  0.9291 -0.6302
 5521TIP3   OH237977   2.007   2.475  17.082  0.1139 -0.3755  0.0583
 5521TIP3    H137978   2.013   2.458  17.176  0.7825 -0.2865  0.0396
 5521TIP3    H237979   2.047   2.562  17.072 -0.3033 -0.2209 -0.2594
 5522TIP3   OH237980   1.236   1.370  12.587  0.3926 -0.3176 -0.0781
 5522TIP3    H137981   1.291   1.373  12.666  0.1836 -0.9658  0.0957
 5522TIP3    H237982   1.174   1.442  12.600 -0.2429 -1.0033  0.8080
 5523TIP3   OH237983   5.128   6.595   2.970 -0.0462  0.3144 -0.5800
 5523TIP3    H137984   5.124   6.503   2.997 -2.7436  0.5656  0.2046
 5523TIP3    H237985   5.219   6.608   2.943  0.9919 -1.9987  1.3349
 5524TIP3   OH237986   4.303   4.360  14.262 -0.2085 -0.1503 -0.2206
 5524TIP3    H137987   4.369   4.314  14.210  0.1158  1.8308 -1.6570
 5524TIP3    H237988   4.241   4.291  14.287 -0.2758 -1.2901 -3.0881
 5525TIP3   OH237989   3.282   2.763  12.646 -0.1385  0.0759  0.0270
 5525TIP3    H137990   3.223   2.724  12.581 -0.3383  1.3032 -0.5540
 5525TIP3    H237991   3.356   2.796  12.596  0.9114 -1.1566  0.7199
 5526TIP3   OH237992   2.110   1.441  15.562 -0.1282  0.3534  0.2057
 5526TIP3    H137993   2.142   1.527  15.589 -0.7547  0.8138 -0.4929
 5526TIP3    H237994   2.167   1.416  15.489  0.2458  0.0321  0.6006
 5527TIP3   OH237995   3.908   6.577  16.487  0.9247 -0.0986 -0.1998
 5527TIP3    H137996   3.852   6.566  16.411  1.0555  0.2604 -0.3507
 5527TIP3    H237997   3.848   6.591  16.560  0.8192  0.6104 -0.4148
 5528TIP3   OH237998   2.991   5.545  11.234  0.1209 -0.6503  0.0102
 5528TIP3    H137999   2.928   5.506  11.174  2.8330 -0.8465 -2.9492
 5528TIP3    H238000   2.950   5.626  11.264 -1.5106 -0.7440 -1.8016
 5529TIP3   OH238001   5.250   2.039  15.144  0.2266 -0.2103  0.3269
 5529TIP3    H138002   5.207   2.107  15.196 -1.1943 -0.0620 -0.9700
 5529TIP3    H238003   5.182   1.972  15.131  0.8516 -0.7001 -0.4914
 5530TIP3   OH238004   5.280   5.061  17.334 -0.4746  0.1197  0.2124
 5530TIP3    H138005   5.290   5.137  17.277  1.9262  0.5126  1.0180
 5530TIP3    H238006   5.189   5.063  17.363 -0.6144  2.3650 -0.2445
 5531TIP3   OH238007   5.033   4.587  15.162  0.0263  0.3451 -0.0402
 5531TIP3    H138008   4.976   4.580  15.085  1.4976  0.5119 -1.1895
 5531TIP3    H238009   5.015   4.674  15.197 -1.6908 -0.2586  0.7029
 5532TIP3   OH238010   0.501   2.389  11.433 -0.0935  0.5142  0.0538
 5532TIP3    H138011   0.423   2.377  11.378 -0.0065  2.7035 -0.6341
 5532TIP3    H238012   0.467   2.411  11.519 -0.2380  0.4763  0.0061
 5533TIP3   OH238013   5.544   4.227  16.857  0.0761  0.5768  0.1886
 5533TIP3    H138014   5.600   4.301  16.833  0.7801  0.4129  1.2224
 5533TIP3    H238015   5.531   4.179  16.776  0.2458  1.4090 -0.3462
 5534TIP3   OH238016   6.713   0.322   0.804 -0.2008  0.2864  0.2740
 5534TIP3    H138017   6.666   0.293   0.882 -0.9270 -0.9365 -0.5764
 5534TIP3    H238018   6.756   0.243   0.770 -0.5513  0.6080 -0.9859
 5535TIP3   OH238019   1.407   2.755  14.268 -0.1059 -0.4801 -0.3643
 5535TIP3    H138020   1.488   2.718  14.304 -0.9889 -1.9940  0.1483
 5535TIP3    H238021   1.407   2.846  14.297 -0.4003 -1.4010  2.9033
 5536TIP3   OH238022   0.388   5.651   1.066  0.2276 -0.2534 -0.0661
 5536TIP3    H138023   0.327   5.594   1.019 -1.8361  1.2778  0.6038
 5536TIP3    H238024   0.471   5.643   1.018 -0.5133 -2.2663 -1.1271
 5537TIP3   OH238025   1.838   3.477   0.927  0.2387  0.0496 -0.5767
 5537TIP3    H138026   1.851   3.487   1.022  0.3236 -0.7630 -0.4903
 5537TIP3    H238027   1.890   3.546   0.888  0.1490  0.4393 -0.0222
 5538TIP3   OH238028   0.339   3.630   2.633 -0.1855  0.2849 -0.4968
 5538TIP3    H138029   0.409   3.693   2.616 -0.3683  0.5189 -0.3810
 5538TIP3    H238030   0.310   3.602   2.546  2.3779 -2.4232 -0.6183
 5539TIP3   OH238031   2.241   1.258  11.311 -0.3227  0.1735  0.8194
 5539TIP3    H138032   2.236   1.303  11.226 -0.7139 -1.9090 -0.3215
 5539TIP3    H238033   2.153   1.224  11.326 -0.4837  1.2126  2.5289
 5540TIP3   OH238034   0.166   0.125   3.453  0.9330  0.4129  0.2248
 5540TIP3    H138035   0.089   0.181   3.465 -0.0768 -1.4225  3.9649
 5540TIP3    H238036   0.207   0.157   3.373 -1.7270  3.8032 -0.0078
 5541TIP3   OH238037   0.436   6.187   4.465 -0.0204  0.2235 -0.8111
 5541TIP3    H138038   0.369   6.126   4.496 -1.1558  0.6712 -2.2583
 5541TIP3    H238039   0.461   6.237   4.543  1.5071 -2.5245  0.5940
 5542TIP3   OH238040   0.158   5.505  15.107 -0.4191 -0.1056 -0.7885
 5542TIP3    H138041   0.132   5.513  15.199 -0.8930  1.1260 -1.0186
 5542TIP3    H238042   0.091   5.552  15.059  0.9468  1.0712 -1.6000
 5543TIP3   OH238043   3.432   3.159  11.592 -0.3007 -0.5882 -0.3079
 5543TIP3    H138044   3.519   3.199  11.597 -0.8323  0.6057 -0.3438
 5543TIP3    H238045   3.408   3.144  11.684 -0.1496 -0.7211 -0.2889
 5544TIP3   OH238046   6.033   3.006  14.572  0.4934  0.0022  0.1589
 5544TIP3    H138047   6.116   3.039  14.608  0.5181 -0.1677  0.2574
 5544TIP3    H238048   6.047   2.912  14.563  0.0813 -0.1200  0.7809
 5545TIP3   OH238049   5.007   0.731  14.647 -0.7705  0.2598  0.1178
 5545TIP3    H138050   5.038   0.821  14.656 -0.0505  0.4190 -2.9978
 5545TIP3    H238051   4.944   0.735  14.575 -2.0232 -1.4807  1.0475
 5546TIP3   OH238052   1.277   3.996   0.340  0.0687 -0.0353 -0.5681
 5546TIP3    H138053   1.239   4.079   0.368 -1.4467 -1.4593  1.8879
 5546TIP3    H238054   1.372   4.011   0.341 -0.1866  1.7765 -0.6650
 5547TIP3   OH238055   1.060   6.116   0.338 -0.2937  0.0281  0.5256
 5547TIP3    H138056   1.075   6.140   0.247  0.0216 -0.7063  0.3824
 5547TIP3    H238057   1.130   6.160   0.386  1.1794 -1.7339  0.0908
 5548TIP3   OH238058   4.233   3.263   5.161 -0.3274 -0.0353 -0.2477
 5548TIP3    H138059   4.204   3.176   5.134 -1.1474  0.3561 -0.6365
 5548TIP3    H238060   4.177   3.324   5.113  0.2438  0.7142  0.0142
 5549TIP3   OH238061   5.081   4.000  14.061  0.1064 -0.5258  0.3745
 5549TIP3    H138062   5.126   3.920  14.033 -0.0069 -0.4985  0.1094
 5549TIP3    H238063   5.083   3.997  14.157 -1.6061 -1.8313  0.4252
 5550TIP3   OH238064   2.943   0.242  12.998 -0.4040  0.4183 -0.0641
 5550TIP3    H138065   2.959   0.319  13.052  0.5512 -0.5719  1.1566
 5550TIP3    H238066   2.942   0.169  13.061  0.3718 -0.7367 -1.3276
 5551TIP3   OH238067   3.772   0.781   1.295  0.3246 -0.1484  0.4651
 5551TIP3    H138068   3.800   0.858   1.343  1.9878  0.2568 -1.0715
 5551TIP3    H238069   3.807   0.793   1.207 -0.2698 -2.1593 -0.0972
 5552TIP3   OH238070   2.939   2.609  17.347  0.0557  0.0705 -0.0888
 5552TIP3    H138071   2.984   2.681  17.303 -0.9437  2.0153  1.9370
 5552TIP3    H238072   2.869   2.650  17.397  0.4804 -2.0799  2.5101
 5553TIP3   OH238073   5.913   1.433   1.623  0.8943  0.0378 -0.6255
 5553TIP3    H138074   5.980   1.450   1.558  0.6612 -0.4495 -0.9999
 5553TIP3    H238075   5.855   1.368   1.582  1.8718 -1.8504  0.7988
 5554TIP3   OH238076   0.818   0.426  15.385  0.0115  0.0522 -0.0291
 5554TIP3    H138077   0.794   0.517  15.397 -0.0404  0.0156  0.1588
 5554TIP3    H238078   0.818   0.389  15.474  0.8910  0.0843 -0.0036
 5555TIP3   OH238079   6.242   2.045   2.052  0.1774 -0.4929  0.1486
 5555TIP3    H138080   6.218   1.974   2.112 -0.2301  0.4318  1.1041
 5555TIP3    H238081   6.170   2.107   2.058  1.6417  1.2043  1.2686
 5556TIP3   OH238082   5.654   6.605   5.294 -0.3591  0.2500  0.5272
 5556TIP3    H138083   5.681   6.551   5.220  0.2221 -1.3864  1.8658
 5556TIP3    H238084   5.655   6.545   5.369 -0.1948  2.0056  1.9932
 5557TIP3   OH238085   5.415   6.652  15.211 -1.1586 -0.1269  0.8438
 5557TIP3    H138086   5.347   6.668  15.147 -0.7375 -2.6205 -0.3159
 5557TIP3    H238087   5.414   6.558  15.226  0.8487 -0.0174  2.1428
 5558TIP3   OH238088   2.494   6.517  15.051  0.1345 -0.1625 -0.3057
 5558TIP3    H138089   2.473   6.587  15.113 -0.9969  1.0176 -1.9184
 5558TIP3    H238090   2.590   6.513  15.052  0.2359  1.3529 -0.0656
 5559TIP3   OH238091   0.641   1.031  16.701 -0.4411  0.4811 -0.2648
 5559TIP3    H138092   0.573   1.090  16.734  0.9388  1.6407  0.5982
 5559TIP3    H238093   0.608   0.944  16.722 -1.1485  1.0642  1.2249
 5560TIP3   OH238094   5.690   5.680  13.025  0.6330  0.4577  0.1759
 5560TIP3    H138095   5.661   5.589  13.029  0.1460  0.6443  0.9452
 5560TIP3    H238096   5.677   5.705  12.933 -0.9875  0.3159  0.3415
 5561TIP3   OH238097   4.153   1.985  16.884 -0.2867 -0.0563 -0.5981
 5561TIP3    H138098   4.128   1.930  16.809  2.6225 -1.5371 -0.6363
 5561TIP3    H238099   4.119   1.939  16.960 -0.8555 -0.0181 -0.8194
 5562TIP3   OH238100   5.533   3.483  11.164  0.2985 -0.3192  0.1521
 5562TIP3    H138101   5.497   3.399  11.135 -0.5066 -1.0579  2.9869
 5562TIP3    H238102   5.576   3.463  11.247  0.7714  1.9647  0.5255
 5563TIP3   OH238103   6.698   5.928  16.199  0.7622  0.5784  0.1757
 5563TIP3    H138104   6.652   5.848  16.175 -0.1564  1.6052 -1.6804
 5563TIP3    H238105   6.783   5.898  16.230  1.3465 -1.0847 -2.6614
 5564TIP3   OH238106   3.974   4.915   4.069 -0.7454 -0.1757  0.8178
 5564TIP3    H138107   3.974   4.981   4.000  1.1107 -0.6852  0.2682
 5564TIP3    H238108   3.953   4.964   4.149 -1.8961  0.6001  0.0731
 5565TIP3   OH238109   0.639   2.928  13.364 -0.4401  0.6315  0.0588
 5565TIP3    H138110   0.638   2.944  13.270 -0.4974 -0.8174 -0.2031
 5565TIP3    H238111   0.555   2.961  13.395 -0.5310  0.8691 -0.4372
 5566TIP3   OH238112   4.526   3.464  16.256  0.1817  0.2128  0.3243
 5566TIP3    H138113   4.453   3.513  16.219 -0.6420 -0.5647  0.8621
 5566TIP3    H238114   4.572   3.428  16.180  0.3619  1.1798 -0.0383
 5567TIP3   OH238115   2.302   5.747   5.826 -0.1237  0.1183 -0.5735
 5567TIP3    H138116   2.330   5.799   5.901 -2.2773  1.3885 -0.5552
 5567TIP3    H238117   2.217   5.784   5.802 -1.3779 -2.8538 -1.1287
 5568TIP3   OH238118   3.358   3.738  10.650  0.3246  0.3304 -0.4253
 5568TIP3    H138119   3.282   3.794  10.668  0.8755  0.8853  0.2236
 5568TIP3    H238120   3.346   3.663  10.709 -0.2535 -0.1075 -1.0773
 5569TIP3   OH238121   6.335   4.708   3.037 -0.1033 -0.5814 -0.1489
 5569TIP3    H138122   6.322   4.794   2.999  0.9133 -0.4652 -0.2521
 5569TIP3    H238123   6.429   4.703   3.055 -0.4354 -0.9013  1.6858
 5570TIP3   OH238124   3.945   5.294  13.441 -0.8406  0.1391 -0.2383
 5570TIP3    H138125   3.951   5.368  13.502 -1.4928 -1.0335  1.3171
 5570TIP3    H238126   3.864   5.310  13.392 -0.8804  0.5396 -0.0506
 5571TIP3   OH238127   1.933   5.796  16.597 -0.4290  0.9806  0.1670
 5571TIP3    H138128   1.991   5.749  16.537 -1.3463 -0.7504  0.5602
 5571TIP3    H238129   1.859   5.736  16.611 -1.3982  2.3370  1.1461
 5572TIP3   OH238130   0.370   0.877  13.075  0.5403  0.6491  0.2464
 5572TIP3    H138131   0.419   0.839  13.003  1.2971  0.7286  0.7065
 5572TIP3    H238132   0.422   0.953  13.102 -0.7578  1.8124 -0.4266
 5573TIP3   OH238133   5.012   1.352  11.082  0.2869  0.1914 -0.5213
 5573TIP3    H138134   5.063   1.402  11.146  2.3486 -1.8685 -0.4284
 5573TIP3    H238135   4.950   1.302  11.135 -2.1056  2.7681 -0.6406
 5574TIP3   OH238136   1.774   1.514   1.507  0.1300  0.1749 -0.4078
 5574TIP3    H138137   1.703   1.489   1.566  0.6108 -2.4647 -0.8201
 5574TIP3    H238138   1.729   1.549   1.430 -0.5590  1.6199  0.6098
 5575TIP3   OH238139   2.009   0.872  17.359 -0.0259  0.4766 -0.3175
 5575TIP3    H138140   2.083   0.812  17.369  0.0323  0.5209 -0.4884
 5575TIP3    H238141   1.949   0.847  17.430  0.0885  0.3488 -0.2641
 5576TIP3   OH238142   4.671   4.852   3.024  0.3675 -0.2258 -0.2455
 5576TIP3    H138143   4.613   4.795   2.974 -0.6626 -0.1184  0.8044
 5576TIP3    H238144   4.713   4.793   3.087 -0.4004  0.1120  0.5788
 5577TIP3   OH238145   1.833   0.586   2.311 -0.3014 -0.1252 -0.1029
 5577TIP3    H138146   1.848   0.669   2.268 -0.0537  0.1994  0.5899
 5577TIP3    H238147   1.774   0.607   2.384  0.1461 -0.4653  0.3661
 5578TIP3   OH238148   5.759   1.979   1.823  0.2663  0.2175 -0.1944
 5578TIP3    H138149   5.736   1.944   1.736 -0.6772 -0.4827  0.3073
 5578TIP3    H238150   5.786   1.902   1.873 -0.3257  0.4259  0.4697
 5579TIP3   OH238151   1.896   0.069  14.115  0.3209  0.1621  0.5260
 5579TIP3    H138152   1.872  -0.022  14.098  0.7583  0.0723  0.3698
 5579TIP3    H238153   1.962   0.089  14.049  0.9247  0.2941  1.1547
 5580TIP3   OH238154   3.883   4.922  12.661 -0.4165 -0.7240 -0.1993
 5580TIP3    H138155   3.974   4.948  12.678 -0.4982 -0.6163  0.0667
 5580TIP3    H238156   3.834   4.955  12.736 -0.9260  0.6148 -1.0865
 5581TIP3   OH238157   4.952   2.252  14.806  0.0575  1.0550  0.2014
 5581TIP3    H138158   5.046   2.241  14.823  0.1466 -0.2581 -0.9842
 5581TIP3    H238159   4.922   2.311  14.876  2.0387  2.7248 -0.2717
 5582TIP3   OH238160   0.828   6.696   0.341 -0.1237 -0.3620  0.0559
 5582TIP3    H138161   0.895   6.724   0.404 -0.4003 -0.3135  0.3278
 5582TIP3    H238162   0.797   6.613   0.375 -2.1387  0.8743  1.4380
 5583TIP3   OH238163   4.969   6.692   2.677  0.0669  0.5878 -0.3440
 5583TIP3    H138164   5.064   6.701   2.687 -0.1258  2.0391  0.5381
 5583TIP3    H238165   4.955   6.680   2.583  1.1103  0.4899 -0.4934
 5584TIP3   OH238166   5.114   4.910  15.364  0.2125  0.6161 -0.1599
 5584TIP3    H138167   5.173   4.849  15.409 -3.1346 -1.2189  2.1546
 5584TIP3    H238168   5.110   4.986  15.421 -0.5821  0.1697  0.4113
 5585TIP3   OH238169   1.328   0.864  15.476  0.2637  0.0713  0.0742
 5585TIP3    H138170   1.339   0.931  15.409 -1.5528 -1.4423 -1.8816
 5585TIP3    H238171   1.417   0.847  15.508  1.3307  0.2630 -2.5758
 5586TIP3   OH238172   0.459   1.691  15.937  0.3634 -0.5094 -0.1778
 5586TIP3    H138173   0.466   1.679  16.032 -2.8755 -0.4106  0.1828
 5586TIP3    H238174   0.430   1.606  15.904  3.1404 -1.0774 -1.4310
 5587TIP3   OH238175   3.483   5.593  13.014  0.0156 -0.9589 -0.0578
 5587TIP3    H138176   3.451   5.507  13.041 -2.0768 -0.3063 -0.2031
 5587TIP3    H238177   3.496   5.586  12.919 -2.7146 -0.4948 -0.5627
 5588TIP3   OH238178   5.715   3.050  17.009  0.6281 -0.2393  0.0519
 5588TIP3    H138179   5.662   3.118  16.966  0.0012 -0.0655  1.0571
 5588TIP3    H238180   5.680   3.046  17.098  1.5184 -0.9899  0.3781
 5589TIP3   OH238181   1.217   3.332   0.372 -0.1522  0.2100 -0.6925
 5589TIP3    H138182   1.277   3.396   0.411 -0.4946  0.7991 -1.1040
 5589TIP3    H238183   1.251   3.318   0.284 -0.4284  0.2982 -0.8136
 5590TIP3   OH238184   2.584   6.101   0.149  0.1872  0.0653 -0.0345
 5590TIP3    H138185   2.612   6.141   0.067  0.2560  0.1027  0.0068
 5590TIP3    H238186   2.646   6.134   0.214 -0.5686  0.9662  0.2465
 5591TIP3   OH238187   1.144   4.550   0.642  0.0780  0.7055  0.3850
 5591TIP3    H138188   1.139   4.562   0.737  0.7690 -0.0804  0.5384
 5591TIP3    H238189   1.236   4.567   0.620 -0.0469  0.7475 -0.1253
 5592TIP3   OH238190   3.752   4.676  12.861 -0.0673 -0.5033  0.4245
 5592TIP3    H138191   3.749   4.733  12.938  0.4477  1.5434 -0.9873
 5592TIP3    H238192   3.664   4.639  12.856 -0.8908  1.3208  0.5936
 5593TIP3   OH238193   2.895   6.253   5.179 -0.3426  0.3128 -0.0759
 5593TIP3    H138194   2.807   6.248   5.215  0.5339 -0.0043  2.1345
 5593TIP3    H238195   2.881   6.258   5.084 -2.7634  1.6260  0.2523
 5594TIP3   OH238196   3.719   0.574  17.395  0.3543 -0.1944 -0.3519
 5594TIP3    H138197   3.642   0.601  17.345  0.4900 -1.6513 -1.4150
 5594TIP3    H238198   3.793   0.595  17.338  0.8676  1.9717  1.0009
 5595TIP3   OH238199   6.094   6.137  13.786  0.1262 -0.1848 -0.4312
 5595TIP3    H138200   6.057   6.210  13.738  0.0397  0.9455  1.2532
 5595TIP3    H238201   6.179   6.121  13.745 -0.3317  0.1106 -1.5230
 5596TIP3   OH238202   5.568   5.727  12.086 -0.2505  0.4609  1.2363
 5596TIP3    H138203   5.606   5.714  11.999  2.9718 -0.0075  2.5923
 5596TIP3    H238204   5.550   5.638  12.117 -0.1177  0.5501  1.5665
 5597TIP3   OH238205   0.591   2.276  13.639  0.2890 -0.2016  0.3088
 5597TIP3    H138206   0.630   2.358  13.670 -0.4837 -0.1180  1.1052
 5597TIP3    H238207   0.562   2.297  13.550 -2.3760  1.3131  1.4158
 5598TIP3   OH238208   4.417   0.175   2.421  0.0696  0.2214 -0.3313
 5598TIP3    H138209   4.481   0.233   2.460  2.1553 -2.0410 -0.1134
 5598TIP3    H238210   4.413   0.201   2.329  0.8806  0.7442 -0.2233
 5599TIP3   OH238211   6.704   2.229  11.703 -0.6439 -0.2605 -0.7156
 5599TIP3    H138212   6.608   2.229  11.702 -0.7473  1.1039  2.0282
 5599TIP3    H238213   6.729   2.310  11.660 -0.8042  0.2507  0.1397
 5600TIP3   OH238214   2.971   5.502  14.532  0.1838  0.5485 -0.1685
 5600TIP3    H138215   3.020   5.430  14.571  1.6908  1.4123 -0.3735
 5600TIP3    H238216   2.887   5.464  14.508  1.1763 -1.3351 -0.8948
 5601TIP3   OH238217   0.076   5.227  11.468 -0.1525 -0.0166 -0.3631
 5601TIP3    H138218   0.011   5.283  11.510 -2.7249 -2.8386 -0.2189
 5601TIP3    H238219   0.131   5.196  11.540  0.8433  1.6228 -0.3568
 5602TIP3   OH238220   5.100   4.050   6.244  0.1538  0.3001 -0.1770
 5602TIP3    H138221   5.097   4.103   6.324 -0.5689 -1.0577  0.7244
 5602TIP3    H238222   5.075   3.962   6.272  0.2458 -0.2924 -1.8438
 5603TIP3   OH238223   6.111   0.457   5.123  0.1201 -0.3352  0.4224
 5603TIP3    H138224   6.110   0.366   5.151 -0.4566 -0.4910 -0.0758
 5603TIP3    H238225   6.045   0.462   5.053  1.1211  0.1455 -0.5337
 5604TIP3   OH238226   4.456   5.280  13.559 -0.3588 -0.0618 -0.1128
 5604TIP3    H138227   4.425   5.196  13.523  0.7509 -0.5932  0.1262
 5604TIP3    H238228   4.544   5.261  13.591 -0.1061  1.1988 -0.0163
 5605TIP3   OH238229   6.687   0.604   4.426 -0.3954 -0.1559 -0.1567
 5605TIP3    H138230   6.767   0.655   4.445  0.2466 -1.0797 -0.3344
 5605TIP3    H238231   6.629   0.623   4.500 -0.5424  1.5580 -0.6718
 5606TIP3   OH238232   1.267   5.934   2.106 -0.4585  0.1465 -0.3820
 5606TIP3    H138233   1.203   5.959   2.173  0.4566  0.5666  0.3493
 5606TIP3    H238234   1.273   6.012   2.050  1.7418  1.3528  1.3925
 5607TIP3   OH238235   0.084   5.651  11.221 -0.1437  0.9304  0.0900
 5607TIP3    H138236   0.117   5.603  11.145 -0.0695  0.9136  0.1322
 5607TIP3    H238237   0.144   5.626  11.292 -0.7322  0.2550  0.3614
 5608TIP3   OH238238   3.516   1.526  15.886  0.2227  0.2089  0.2181
 5608TIP3    H138239   3.515   1.619  15.908  2.2504  0.4673 -0.5934
 5608TIP3    H238240   3.542   1.482  15.966  0.8485  0.5006  0.1777
 5609TIP3   OH238241   1.277   5.861  15.507  0.1430  0.1657  0.0872
 5609TIP3    H138242   1.227   5.812  15.442  1.2557  0.4625 -1.0622
 5609TIP3    H238243   1.313   5.935  15.457 -0.5961  1.5468  1.5199
 5610TIP3   OH238244   6.594   6.717   4.031  0.0077  0.3842 -0.5971
 5610TIP3    H138245   6.532   6.643   4.034  0.0082  0.4225  0.6599
 5610TIP3    H238246   6.557   6.776   3.966 -1.5798  0.6388  0.4836
 5611TIP3   OH238247   4.876   4.276   4.007 -0.2810  0.3029 -0.4619
 5611TIP3    H138248   4.918   4.199   3.970  3.1769  2.0322 -0.4793
 5611TIP3    H238249   4.906   4.278   4.098 -0.8915  1.3012 -0.2681
 5612TIP3   OH238250   2.753   3.119   1.796 -0.1436  0.4893  0.2915
 5612TIP3    H138251   2.773   3.205   1.833  0.5346  0.1966  0.6112
 5612TIP3    H238252   2.680   3.086   1.849  0.4573  0.3109  1.0163
 5613TIP3   OH238253   5.052   2.830  16.029  0.2393 -0.1642  0.0376
 5613TIP3    H138254   5.007   2.756  16.070  0.0821  0.2865  0.6923
 5613TIP3    H238255   5.097   2.792  15.953 -1.6266 -0.5484 -0.9329
 5614TIP3   OH238256   6.029   4.507  16.245  0.0503  0.1274  0.5123
 5614TIP3    H138257   6.013   4.478  16.335 -1.7001  1.0406  0.5274
 5614TIP3    H238258   6.100   4.571  16.253  2.4750 -2.4077  0.7312
 5615TIP3   OH238259   5.185   1.792   6.759 -0.2651 -0.0204  0.6390
 5615TIP3    H138260   5.245   1.810   6.832 -0.2775 -0.7412  0.8377
 5615TIP3    H238261   5.204   1.701   6.735  2.5000  1.1901 -2.7706
 5616TIP3   OH238262   0.754   6.078   2.006 -0.4566  0.1007 -0.2939
 5616TIP3    H138263   0.705   5.997   2.019 -1.0327  0.6926  1.4513
 5616TIP3    H238264   0.840   6.050   1.974 -0.6306 -1.1943  0.3364
 5617TIP3   OH238265   3.626   3.949  12.871 -0.0983  0.1445 -0.2052
 5617TIP3    H138266   3.661   3.980  12.787 -0.5356  1.0759 -0.0535
 5617TIP3    H238267   3.582   4.025  12.908  0.8152 -0.0048  1.2610
 5618TIP3   OH238268   3.771   3.927   1.546 -0.3393 -0.3424 -0.2533
 5618TIP3    H138269   3.866   3.924   1.548 -0.3389 -1.0258 -0.9254
 5618TIP3    H238270   3.744   3.878   1.624 -0.1480  0.0281  0.0498
 5619TIP3   OH238271   1.599   5.818   4.760 -0.0569  0.0985  0.1614
 5619TIP3    H138272   1.628   5.827   4.669 -0.3611 -1.3314 -0.1101
 5619TIP3    H238273   1.676   5.840   4.812 -0.0292  1.4488 -0.4167
 5620TIP3   OH238274   2.614   1.947   2.115 -0.1027 -0.5663 -0.2058
 5620TIP3    H138275   2.691   2.001   2.103 -1.1570  0.9357 -0.4821
 5620TIP3    H238276   2.646   1.857   2.109  1.3871  0.0255 -1.6767
 5621TIP3   OH238277   2.391   4.113   4.985 -0.2366 -0.3365 -0.3869
 5621TIP3    H138278   2.460   4.051   5.010  1.2818  1.2210 -0.5180
 5621TIP3    H238279   2.367   4.155   5.067 -0.3480 -0.2068 -0.4879
 5622TIP3   OH238280   1.220   6.072   5.030 -0.3679  0.4592  0.1220
 5622TIP3    H138281   1.312   6.069   5.003  0.1868  0.6128  1.8800
 5622TIP3    H238282   1.210   6.000   5.092 -1.0234  1.3879  1.1308
 5623TIP3   OH238283   4.676   5.496  14.489 -0.1757  0.4513  0.0703
 5623TIP3    H138284   4.722   5.503  14.573  1.1354  2.2854 -0.7266
 5623TIP3    H238285   4.586   5.523  14.509 -0.2646 -0.5089  1.1199
 5624TIP3   OH238286   3.818   3.495   2.088  0.0120 -0.1451 -0.3958
 5624TIP3    H138287   3.881   3.521   2.155  2.5032 -1.5875 -1.9933
 5624TIP3    H238288   3.733   3.522   2.122  1.0104 -1.3721  3.6313
 5625TIP3   OH238289   1.975   6.675   0.633 -0.2737 -0.4253  0.0250
 5625TIP3    H138290   2.045   6.611   0.619  0.5611  0.7108 -1.1186
 5625TIP3    H238291   1.904   6.644   0.576 -0.0357 -0.5690 -0.1975
 5626TIP3   OH238292   2.539   0.447  16.141 -0.4324 -0.0525  0.1339
 5626TIP3    H138293   2.634   0.443  16.139 -0.4506 -0.4902 -2.5059
 5626TIP3    H238294   2.511   0.356  16.152 -0.5538  0.0142  0.3887
 5627TIP3   OH238295   2.162   6.146  15.383 -0.4182 -0.0387  0.3518
 5627TIP3    H138296   2.222   6.213  15.350 -1.8754  0.6403 -1.0543
 5627TIP3    H238297   2.142   6.174  15.472 -2.9369  2.9510 -0.9541
 5628TIP3   OH238298   1.849   1.168   1.666 -0.2274 -0.5209  0.3605
 5628TIP3    H138299   1.844   1.246   1.722 -1.3322 -0.4537  0.1989
 5628TIP3    H238300   1.766   1.122   1.682 -1.0667  0.0398 -1.9710
 5629TIP3   OH238301   4.665   4.442  12.720 -0.3915 -0.6666 -0.0495
 5629TIP3    H138302   4.706   4.515  12.674  0.8970 -0.7185  0.9860
 5629TIP3    H238303   4.641   4.380  12.650  0.4270 -0.2080 -0.7483
 5630TIP3   OH238304   4.270   1.556  13.112 -0.1064  0.2133 -0.6200
 5630TIP3    H138305   4.194   1.499  13.102 -0.9617  1.0733  0.6152
 5630TIP3    H238306   4.301   1.539  13.202 -0.5722  1.8848 -0.1169
 5631TIP3   OH238307   3.659   6.713  13.852  0.6120 -0.1929  0.0297
 5631TIP3    H138308   3.640   6.740  13.762  0.2766 -0.5542 -0.0092
 5631TIP3    H238309   3.722   6.643  13.844 -0.7592 -1.4698 -0.0293
 5632TIP3   OH238310   3.532   5.803  16.194 -0.0616 -0.1246 -0.6405
 5632TIP3    H138311   3.499   5.727  16.241 -0.1401 -0.0943 -0.6475
 5632TIP3    H238312   3.627   5.793  16.197 -0.0548  0.1231 -0.0718
 5633TIP3   OH238313   6.523   5.052   3.523  0.1701 -0.2501 -0.2144
 5633TIP3    H138314   6.576   5.050   3.443 -0.7492 -2.2057 -0.8412
 5633TIP3    H238315   6.452   4.989   3.506  0.2910 -1.1768  2.3694
 5634TIP3   OH238316   4.377   2.695  14.201  0.0135  0.2874  0.4830
 5634TIP3    H138317   4.394   2.703  14.295  0.8082 -2.0483  0.6038
 5634TIP3    H238318   4.362   2.602  14.187  1.2197  0.3682 -1.9100
 5635TIP3   OH238319   2.627   6.509  11.358 -0.4112  0.2092  0.0457
 5635TIP3    H138320   2.606   6.457  11.435  1.1146  0.1241  0.4511
 5635TIP3    H238321   2.629   6.599  11.389  0.5821  0.1416  0.2288
 5636TIP3   OH238322   2.103   0.399   5.080  0.4554  1.0040 -0.4576
 5636TIP3    H138323   2.085   0.379   5.172  1.6602 -1.1701 -0.6264
 5636TIP3    H238324   2.128   0.491   5.080  0.6131  1.0010  1.4406
 5637TIP3   OH238325   1.757   5.713  15.030 -0.5071 -0.0262  0.2299
 5637TIP3    H138326   1.767   5.801  15.067 -0.9755 -0.2436  0.8892
 5637TIP3    H238327   1.683   5.675  15.078 -1.8957  0.0932 -1.7041
 5638TIP3   OH238328   3.641   0.428  17.017 -0.0666  0.4301 -0.1502
 5638TIP3    H138329   3.595   0.474  17.087 -0.3826 -0.0604 -0.0349
 5638TIP3    H238330   3.641   0.336  17.044 -0.9571  0.0963 -1.1902
 5639TIP3   OH238331   1.804   6.381   5.950 -0.0682 -0.2163  0.1814
 5639TIP3    H138332   1.844   6.468   5.956 -1.9294  0.7224 -0.2516
 5639TIP3    H238333   1.871   6.321   5.983  0.3386  1.6441  3.1419
 5640TIP3   OH238334   6.230   2.079   5.781  0.1213  0.5139  0.5628
 5640TIP3    H138335   6.215   2.166   5.744 -2.5201  0.2844  0.8898
 5640TIP3    H238336   6.194   2.085   5.870  1.4506 -0.4576  1.1940
 5641TIP3   OH238337   0.504   1.663   4.420  0.5165 -0.0577  0.8842
 5641TIP3    H138338   0.512   1.617   4.503  1.4501 -1.5915 -0.0228
 5641TIP3    H238339   0.594   1.687   4.396  0.3149 -0.0601  0.0822
 5642TIP3   OH238340   5.367   5.254  14.457  0.1679  0.0753 -0.4669
 5642TIP3    H138341   5.438   5.190  14.454  0.2397  0.1864 -1.4141
 5642TIP3    H238342   5.380   5.301  14.539  0.1111 -1.1249  0.2542
 5643TIP3   OH238343   5.701   2.787   0.169  0.0200  0.3502 -0.4801
 5643TIP3    H138344   5.793   2.789   0.196 -0.2455 -2.2081  0.9884
 5643TIP3    H238345   5.663   2.868   0.204  1.2653  0.3961  0.8581
 5644TIP3   OH238346   0.491   5.705  16.721 -0.4643  0.2710 -0.2587
 5644TIP3    H138347   0.410   5.660  16.698 -0.5617 -0.3027  1.1207
 5644TIP3    H238348   0.557   5.668  16.663 -1.0026  0.0495 -0.7337
 5645TIP3   OH238349   0.722   2.827   0.979 -0.2299  0.2846  0.5200
 5645TIP3    H138350   0.807   2.789   1.004  0.2708  0.3996 -0.9089
 5645TIP3    H238351   0.682   2.852   1.062  1.1579  0.2615  1.2309
 5646TIP3   OH238352   6.703   1.607  14.933 -0.2292 -0.0992 -0.0154
 5646TIP3    H138353   6.736   1.566  15.013 -0.4039  0.7017  0.4869
 5646TIP3    H238354   6.777   1.658  14.901 -0.0384 -0.7257 -0.5893
 5647TIP3   OH238355   3.682   4.331  15.270 -0.8139  0.4609  0.4158
 5647TIP3    H138356   3.772   4.354  15.293 -1.1259  1.2122  0.9338
 5647TIP3    H238357   3.675   4.237  15.291 -0.7748  0.8668  2.5304
 5648TIP3   OH238358   3.366   1.316   3.640 -0.1012  0.0443  0.2364
 5648TIP3    H138359   3.422   1.392   3.657  2.8418 -1.9900  0.2388
 5648TIP3    H238360   3.333   1.330   3.551  2.8110  0.0325 -0.9536
 5649TIP3   OH238361   5.892   4.518  16.769 -0.0423  0.1265  0.5702
 5649TIP3    H138362   5.934   4.490  16.850  1.3005 -3.5421 -1.1990
 5649TIP3    H238363   5.798   4.508  16.786 -0.0838  2.8964  2.6897
 5650TIP3   OH238364   1.905   4.607   2.730 -0.2103 -0.6601 -0.5010
 5650TIP3    H138365   1.860   4.662   2.795 -2.2255  0.1573 -2.4507
 5650TIP3    H238366   1.862   4.629   2.647 -0.1775 -4.2186 -1.6123
 5651TIP3   OH238367   4.310   2.956   3.957 -0.6421 -0.5585  0.1331
 5651TIP3    H138368   4.269   2.946   4.042 -0.2029  0.2779  0.4501
 5651TIP3    H238369   4.401   2.979   3.977 -0.0025 -2.3287 -0.5407
 5652TIP3   OH238370   1.189   4.940  16.735  0.0835 -0.6647  0.3905
 5652TIP3    H138371   1.154   4.863  16.689 -0.3495 -0.5478  0.5238
 5652TIP3    H238372   1.171   5.013  16.676 -0.3752 -0.5299  0.6903
 5653TIP3   OH238373   2.399   3.722   4.803 -0.0807  0.5596 -0.0547
 5653TIP3    H138374   2.364   3.634   4.818  2.9387 -0.6520  0.7050
 5653TIP3    H238375   2.395   3.733   4.708  0.6748 -1.0198 -0.3165
 5654TIP3   OH238376   2.159   6.419   6.078  0.0443 -0.1361  0.2140
 5654TIP3    H138377   2.114   6.447   6.158 -1.5833  2.7487 -1.5672
 5654TIP3    H238378   2.212   6.494   6.052  0.5658 -1.0288 -1.4362
 5655TIP3   OH238379   1.095   1.265  12.130  0.4720  0.3207 -0.0887
 5655TIP3    H138380   1.122   1.185  12.176  0.6618  0.1345 -0.5145
 5655TIP3    H238381   1.019   1.238  12.079 -1.1778  1.0731  1.8421
 5656TIP3   OH238382   3.404   5.392   1.355  0.0646  0.2096  1.0227
 5656TIP3    H138383   3.472   5.328   1.379  0.1318  0.1254  0.6079
 5656TIP3    H238384   3.404   5.455   1.428  1.8764  1.2668  0.1711
 5657TIP3   OH238385   4.398   3.344   1.169  0.1401 -0.2463  0.0198
 5657TIP3    H138386   4.481   3.302   1.146 -1.3031 -3.1620 -0.3398
 5657TIP3    H238387   4.386   3.324   1.262 -0.0147  0.5142  0.1708
 5658TIP3   OH238388   5.348   4.779  15.441  0.1763 -0.6058 -0.2176
 5658TIP3    H138389   5.405   4.811  15.511  0.4385 -0.1926 -0.6144
 5658TIP3    H238390   5.329   4.688  15.465  1.6040 -0.9895 -0.4314
 5659TIP3   OH238391   1.959   4.297  15.326 -0.2447 -0.0529 -0.5227
 5659TIP3    H138392   1.886   4.305  15.265 -1.6820 -0.9614  1.0052
 5659TIP3    H238393   1.950   4.373  15.385 -0.3306 -0.4840  0.0325
 5660TIP3   OH238394   3.193   0.932  14.622  0.0573  0.1486  0.6501
 5660TIP3    H138395   3.275   0.941  14.573  0.1297 -0.3463  0.6835
 5660TIP3    H238396   3.177   0.838  14.627 -0.4405  0.2348  0.7702
 5661TIP3   OH238397   3.744   3.900   4.122 -0.4493  0.0600 -0.3078
 5661TIP3    H138398   3.748   3.835   4.052  0.8648 -0.9521  0.6820
 5661TIP3    H238399   3.810   3.873   4.185 -1.4531  1.0721  1.2485
 5662TIP3   OH238400   2.210   1.875   2.822 -0.0972 -0.2262  0.4861
 5662TIP3    H138401   2.130   1.867   2.771  0.1225 -1.4735  0.2947
 5662TIP3    H238402   2.276   1.828   2.770  1.2764  2.4471 -0.3632
 5663TIP3   OH238403   3.203   2.732  11.470  0.2022  0.1648  0.0432
 5663TIP3    H138404   3.232   2.642  11.456  1.4515  0.7851 -1.5967
 5663TIP3    H238405   3.247   2.783  11.402 -1.3279  1.8609  0.2391
 5664TIP3   OH238406   2.618   2.959  12.651 -0.1205 -0.1296 -0.5324
 5664TIP3    H138407   2.547   3.010  12.613  0.1897  1.2584  0.6288
 5664TIP3    H238408   2.623   2.989  12.742  1.8452 -0.2621 -0.5378
 5665TIP3   OH238409   3.737   4.174  12.423  0.3406  0.1053  0.4218
 5665TIP3    H138410   3.775   4.123  12.495  1.1416  0.6558  0.4007
 5665TIP3    H238411   3.684   4.110  12.375  0.9975 -0.6222  0.6290
 5666TIP3   OH238412   5.154   3.711   5.345  0.1382  0.4569  0.0729
 5666TIP3    H138413   5.209   3.731   5.421  1.9095 -2.2348 -0.3372
 5666TIP3    H238414   5.073   3.677   5.383  0.4771  0.3969  0.7558
 5667TIP3   OH238415   0.424   0.759   2.851 -0.1062 -0.3545  0.8472
 5667TIP3    H138416   0.430   0.723   2.762 -1.8358 -0.3894  0.6987
 5667TIP3    H238417   0.348   0.714   2.889  0.1427  0.2287  2.0704
 5668TIP3   OH238418   2.620   6.403  13.374  0.1048  0.0578 -0.7698
 5668TIP3    H138419   2.685   6.356  13.426  0.6031 -0.0372 -1.4657
 5668TIP3    H238420   2.659   6.489  13.359 -0.2394  0.2463 -0.5969
 5669TIP3   OH238421   4.935   6.000  14.061 -0.6002  0.6685 -0.8004
 5669TIP3    H138422   4.850   5.980  14.021 -0.7932  0.3608 -0.2428
 5669TIP3    H238423   4.916   6.005  14.155  0.8085 -4.2457  0.0212
 5670TIP3   OH238424   0.353   5.972   2.658 -0.4099 -0.0443 -0.0400
 5670TIP3    H138425   0.358   5.910   2.730 -1.4194 -0.9425 -0.7126
 5670TIP3    H238426   0.263   5.967   2.627 -0.4140  1.4862 -0.3683
 5671TIP3   OH238427   5.352   1.314   3.130  0.8320 -0.2091 -0.2712
 5671TIP3    H138428   5.372   1.289   3.040  0.0699 -0.3534 -0.4129
 5671TIP3    H238429   5.399   1.251   3.184  0.7985 -0.5033 -0.5819
 5672TIP3   OH238430   1.153   3.599  12.943 -0.0747 -0.4460 -0.0455
 5672TIP3    H138431   1.216   3.529  12.929  1.3735  0.9064 -0.4928
 5672TIP3    H238432   1.141   3.638  12.857 -0.6294  0.0684  0.2597
 5673TIP3   OH238433   6.564   5.766  12.598 -0.1480  0.2179  0.5635
 5673TIP3    H138434   6.574   5.676  12.565 -0.5661 -0.3795  1.9621
 5673TIP3    H238435   6.536   5.817  12.522  0.9203 -0.6548 -0.4531
 5674TIP3   OH238436   4.635   6.141  16.301 -0.0081 -0.0916  0.0229
 5674TIP3    H138437   4.703   6.120  16.365  0.5719 -1.4797 -0.9909
 5674TIP3    H238438   4.682   6.188  16.231 -0.4291  0.4694  0.1101
 5675TIP3   OH238439   1.856   3.198   2.335 -0.2331 -0.2479  0.0815
 5675TIP3    H138440   1.830   3.111   2.303  0.7571  0.1531 -1.9507
 5675TIP3    H238441   1.789   3.257   2.300  0.4979  0.1172 -0.7213
 5676TIP3   OH238442   1.625   1.490  11.091 -0.0186  0.0906  0.5737
 5676TIP3    H138443   1.689   1.531  11.150 -0.1539 -0.3983  1.0719
 5676TIP3    H238444   1.641   1.531  11.006 -0.3364  1.3732  1.1031
 5677TIP3   OH238445   3.767   2.716  13.544 -0.7819  0.0951  0.4013
 5677TIP3    H138446   3.788   2.675  13.628  1.1203  1.5657  0.6932
 5677TIP3    H238447   3.835   2.782  13.531 -0.9069 -0.2116 -2.4110
 5678TIP3   OH238448   0.988   2.313   5.901  0.2136  0.6334 -0.3702
 5678TIP3    H138449   0.933   2.247   5.943  1.0335  1.0489  1.4798
 5678TIP3    H238450   0.931   2.356   5.837 -0.2567 -2.0566 -1.9215
 5679TIP3   OH238451   3.262   1.122  13.936 -0.3778  0.0879  0.2486
 5679TIP3    H138452   3.335   1.068  13.903  2.1077  2.4253  1.5073
 5679TIP3    H238453   3.220   1.156  13.857 -0.4279 -1.6214 -0.5170
 5680TIP3   OH238454   6.734   0.719   0.002 -0.6892 -0.2281  0.2440
 5680TIP3    H138455   6.821   0.714   0.042  0.0868  2.8816 -0.7148
 5680TIP3    H238456   6.721   0.634  -0.038  0.9433 -1.5294  2.2294
 5681TIP3   OH238457   0.187   5.910  12.659 -0.3608 -0.4670 -0.3599
 5681TIP3    H138458   0.258   5.887  12.599 -1.9370  1.2391 -3.0711
 5681TIP3    H238459   0.167   5.828  12.704  2.5428 -1.2403 -0.2858
 5682TIP3   OH238460   3.570   0.252  11.812  0.5951 -0.3699  0.7784
 5682TIP3    H138461   3.609   0.300  11.739 -2.1727  0.8941 -0.0022
 5682TIP3    H238462   3.498   0.203  11.772 -0.2019 -0.6610  2.4830
 5683TIP3   OH238463   2.631   3.065   1.154  0.1342  0.6088  0.1340
 5683TIP3    H138464   2.580   3.003   1.206  0.7096  1.4821  1.8173
 5683TIP3    H238465   2.700   3.012   1.115 -0.2636 -0.0684  0.3362
 5684TIP3   OH238466   0.178   0.651  13.703  0.6134 -0.0010  0.3920
 5684TIP3    H138467   0.196   0.652  13.797 -1.3970  2.7596  0.9080
 5684TIP3    H238468   0.230   0.724  13.668  0.4602 -0.2716 -0.4169
 5685TIP3   OH238469   5.127   4.008  15.007 -0.0638  1.3392  0.0310
 5685TIP3    H138470   5.215   3.991  15.041 -0.5713  0.0134  0.7506
 5685TIP3    H238471   5.074   4.023  15.085 -1.0853 -0.9759 -0.1372
 5686TIP3   OH238472   2.581   2.207   4.094  0.4289 -0.5105 -0.0548
 5686TIP3    H138473   2.547   2.271   4.032 -1.4981 -0.9223  0.5077
 5686TIP3    H238474   2.590   2.127   4.042  0.8282 -0.3225 -0.2777
 5687TIP3   OH238475   1.729   0.073   2.384 -0.2077  0.1181  0.2111
 5687TIP3    H138476   1.741   0.162   2.416  1.0466 -0.9485  3.0282
 5687TIP3    H238477   1.818   0.042   2.368 -0.4133 -1.4008  1.7416
 5688TIP3   OH238478   3.351   0.308   0.003  0.1688 -0.1098 -0.1485
 5688TIP3    H138479   3.299   0.230   0.022  1.8257 -0.7309  2.1606
 5688TIP3    H238480   3.287   0.379   0.001 -1.2059 -1.3034 -1.0832
 5689TIP3   OH238481   3.632   1.846  16.910  0.1831 -0.2840 -0.4234
 5689TIP3    H138482   3.615   1.753  16.893  2.2028 -1.2201  2.0447
 5689TIP3    H238483   3.558   1.874  16.965 -0.0599 -0.6331 -0.5663
 5690TIP3   OH238484   5.534   3.539   3.366  0.1587 -0.5403 -0.1305
 5690TIP3    H138485   5.474   3.516   3.437  0.0543 -0.1064 -0.0785
 5690TIP3    H238486   5.490   3.609   3.319  0.6625 -0.1644 -0.0435
 5691TIP3   OH238487   3.131   0.124   4.594  0.5425  0.2538 -0.1270
 5691TIP3    H138488   3.046   0.108   4.552 -0.2161  1.4028  0.8923
 5691TIP3    H238489   3.160   0.037   4.622  0.5632 -0.3999 -2.0120
 5692TIP3   OH238490   5.725   3.769   5.980 -0.2374  0.1336  0.5636
 5692TIP3    H138491   5.767   3.701   5.926  1.0421 -0.0539  1.7353
 5692TIP3    H238492   5.664   3.721   6.036  0.2199  0.0143  0.9661
 5693TIP3   OH238493   6.488   4.153  14.548 -0.0801  0.5795  0.3135
 5693TIP3    H138494   6.462   4.067  14.514 -0.7682  0.6212  0.7240
 5693TIP3    H238495   6.583   4.156  14.534 -0.4954  1.3916 -3.4937
 5694TIP3   OH238496   3.497   1.523   5.095 -0.3658  0.3636 -0.2955
 5694TIP3    H138497   3.585   1.501   5.126  0.1439 -0.0207 -1.9325
 5694TIP3    H238498   3.461   1.440   5.064 -0.9989  0.6691 -0.3972
 5695TIP3   OH238499   1.640   5.328  14.348  0.2740 -0.5088  0.0564
 5695TIP3    H138500   1.612   5.420  14.351  0.4114 -0.4644  2.5533
 5695TIP3    H238501   1.700   5.320  14.422 -0.0930 -2.7151  0.1727
 5696TIP3   OH238502   1.728   6.704   5.675  0.1008 -0.5505 -0.2587
 5696TIP3    H138503   1.667   6.633   5.654  0.3629 -1.5346  2.0425
 5696TIP3    H238504   1.785   6.668   5.743  0.3286  1.8239  0.9045
 5697TIP3   OH238505   2.048   2.012   4.768  0.0674 -0.0319  0.3196
 5697TIP3    H138506   2.052   1.961   4.849  0.3449  0.8648  0.8818
 5697TIP3    H238507   1.962   1.990   4.731 -0.2434 -0.1322  1.0691
 5698TIP3   OH238508   4.954   4.721   2.002  0.1207  0.7915 -0.2068
 5698TIP3    H138509   4.943   4.649   1.940  1.3487  0.7215 -0.3608
 5698TIP3    H238510   4.981   4.795   1.949 -0.3481  1.1600  0.0571
 5699TIP3   OH238511   3.168   2.463   2.031  0.1338  0.0048  0.5280
 5699TIP3    H138512   3.093   2.457   1.972  0.1627  1.5104  0.2783
 5699TIP3    H238513   3.152   2.398   2.098 -1.1771 -0.0116  0.2308
 5700TIP3   OH238514   3.518   1.550   3.751  0.3137  0.2304 -0.1626
 5700TIP3    H138515   3.504   1.483   3.818 -0.3885  0.4707 -0.0645
 5700TIP3    H238516   3.460   1.622   3.776  0.0198  0.3166 -1.0359
 5701TIP3   OH238517   2.496   1.136  14.570  0.4196 -0.6570  0.2676
 5701TIP3    H138518   2.527   1.224  14.549 -2.8138  0.5706  0.1413
 5701TIP3    H238519   2.452   1.146  14.655 -0.4148 -2.0528  0.0236
 5702TIP3   OH238520   0.835   2.671   1.329  0.2446 -0.2140 -0.1119
 5702TIP3    H138521   0.812   2.612   1.401  2.1003  1.0299  1.6019
 5702TIP3    H238522   0.841   2.757   1.370 -0.4814  0.8745 -2.1726
 5703TIP3   OH238523   2.370   3.253   4.610 -0.3734  0.3364 -0.2100
 5703TIP3    H138524   2.373   3.159   4.592  0.3908  0.7003 -2.2079
 5703TIP3    H238525   2.280   3.278   4.593 -0.5207  0.0316  0.0911
 5704TIP3   OH238526   1.468   6.493   5.718 -0.3291  0.0676 -0.1820
 5704TIP3    H138527   1.480   6.576   5.763 -0.6638  0.2875 -0.4897
 5704TIP3    H238528   1.497   6.510   5.628 -1.0685  0.0561 -0.4271
 5705TIP3   OH238529   5.487   2.810  11.928  0.2203  0.6323  0.6150
 5705TIP3    H138530   5.549   2.860  11.876 -1.2579  0.9655 -0.9398
 5705TIP3    H238531   5.506   2.719  11.906 -1.1599  0.7932 -1.5901
 5706TIP3   OH238532   2.415   1.974   1.781  0.5945  0.2572  0.6161
 5706TIP3    H138533   2.362   1.933   1.712  2.8147  0.5272 -1.3938
 5706TIP3    H238534   2.494   1.921   1.785  2.3209  2.5848 -0.0778
 5707TIP3   OH238535   4.568   4.930   1.547 -0.3661 -0.3476  0.4627
 5707TIP3    H138536   4.485   4.898   1.512  0.4139 -0.4167 -1.3984
 5707TIP3    H238537   4.633   4.869   1.514  0.6443  0.7029  0.4527
 5708TIP3   OH238538   6.417   5.730   5.479 -0.2463 -0.6193  0.5078
 5708TIP3    H138539   6.326   5.745   5.507 -0.7509 -0.0105 -1.3353
 5708TIP3    H238540   6.451   5.817   5.462  1.1421 -0.7352  2.3492
 5709TIP3   OH238541   3.135   1.921   0.786  0.0402  0.3589 -0.1196
 5709TIP3    H138542   3.074   1.991   0.810  0.3479  0.3595  0.6868
 5709TIP3    H238543   3.090   1.874   0.715 -1.7001 -0.6781  1.5721
 5710TIP3   OH238544   2.857   2.276   5.929 -0.2950  0.4262  0.0873
 5710TIP3    H138545   2.788   2.336   5.902 -0.3917  0.9305  1.3974
 5710TIP3    H238546   2.895   2.316   6.007  1.1461 -0.1017 -0.3089
 5711TIP3   OH238547   1.115   0.526  12.698  0.4135  0.7519 -0.2518
 5711TIP3    H138548   1.103   0.434  12.723 -0.9290  0.5562 -1.5144
 5711TIP3    H238549   1.098   0.528  12.604 -0.8200  2.4940 -0.0403
 5712TIP3   OH238550   1.964   1.791  13.029 -0.0921  0.0655 -0.3385
 5712TIP3    H138551   2.050   1.756  13.054 -0.0448 -1.7689 -2.6982
 5712TIP3    H238552   1.943   1.747  12.947 -2.5916  1.6822 -0.6864
 5713TIP3   OH238553   3.167   3.621   1.175 -0.4594  0.6806  0.0211
 5713TIP3    H138554   3.146   3.581   1.260 -0.1451 -2.0867 -1.0797
 5713TIP3    H238555   3.099   3.587   1.116  0.8528  0.3586 -1.3523
 5714TIP3   OH238556   4.740   5.658   1.489  0.1407  0.9513  0.1703
 5714TIP3    H138557   4.827   5.672   1.528  0.1646  0.2293  0.3930
 5714TIP3    H238558   4.758   5.615   1.405 -0.0403 -0.4668  0.8244
 5715TIP3   OH238559   0.560   0.544  12.922  0.1432  0.2481  0.5731
 5715TIP3    H138560   0.587   0.518  12.834  1.0871  1.4664  0.4772
 5715TIP3    H238561   0.603   0.629  12.937 -0.0777  0.1215  2.1641
 5716TIP3   OH238562   1.035   4.273   0.659 -0.5437 -0.4201  0.1368
 5716TIP3    H138563   1.039   4.369   0.655 -0.4569 -0.4085  0.4699
 5716TIP3    H238564   0.951   4.255   0.703 -0.6041 -0.4980 -0.0109
 5717TIP3   OH238565   0.886   3.150   4.778  0.1344  0.5236 -0.3460
 5717TIP3    H138566   0.865   3.206   4.852  1.4383  0.2739  0.2525
 5717TIP3    H238567   0.943   3.082   4.815 -0.1351 -0.2790 -1.3572
 5718TIP3   OH238568   4.777   3.301  14.133 -0.1776 -0.4365  0.3195
 5718TIP3    H138569   4.695   3.337  14.166 -0.2627 -0.9707  0.7065
 5718TIP3    H238570   4.791   3.347  14.050 -1.8405 -1.6388 -0.7058
 5719TIP3   OH238571   6.544   5.738   2.132 -0.0104  0.0445 -0.0161
 5719TIP3    H138572   6.539   5.674   2.203 -1.4188 -1.0418 -1.0382
 5719TIP3    H238573   6.474   5.801   2.150  0.5818  0.6166  0.3303
 5720TIP3   OH238574   1.781   2.372  11.466  0.3050  0.5489 -0.1533
 5720TIP3    H138575   1.841   2.348  11.536  0.3069  0.3153 -0.2346
 5720TIP3    H238576   1.737   2.451  11.498 -0.9463 -0.5070  0.8587
 5721TIP3   OH238577   1.650   0.891   1.951  0.5085  0.7146  0.1252
 5721TIP3    H138578   1.693   0.821   1.903 -0.6799  0.3787 -0.4988
 5721TIP3    H238579   1.581   0.846   2.001 -0.5059  1.4519 -0.5690
 5722TIP3   OH238580   2.255   0.385  16.719  0.3139  0.6994 -1.1356
 5722TIP3    H138581   2.237   0.477  16.734 -0.4844  0.6588 -1.7818
 5722TIP3    H238582   2.222   0.368  16.631 -0.3495 -0.4052 -0.6992
 5723TIP3   OH238583   3.844   4.055   0.289  0.2357  0.5382  0.0905
 5723TIP3    H138584   3.889   4.049   0.205 -2.1159  1.4740 -1.3452
 5723TIP3    H238585   3.763   4.004   0.277  0.5193 -0.5452  2.3205
 5724TIP3   OH238586   4.068   1.542   4.373 -0.5189  0.3847  0.0106
 5724TIP3    H138587   4.070   1.473   4.439  1.3388  0.5662  0.1731
 5724TIP3    H238588   4.153   1.538   4.330 -0.7240  1.9818 -0.6209
 5725TIP3   OH238589   2.936   3.014   2.213  0.0432  0.2722 -0.1210
 5725TIP3    H138590   2.998   2.947   2.243  3.8014  2.3507 -2.4028
 5725TIP3    H238591   2.891   2.973   2.140  0.6234 -0.5191 -0.0534
 5726TIP3   OH238592   5.275   4.647  14.571  0.3504 -0.1205  0.2057
 5726TIP3    H138593   5.187   4.610  14.577  0.1132  0.1791 -1.0848
 5726TIP3    H238594   5.263   4.740  14.589  0.4903 -0.1773  0.5896
 5727TIP3   OH238595   3.065   5.390   0.645  0.2383  0.6492  0.3799
 5727TIP3    H138596   3.117   5.310   0.643  0.8824  1.0039  1.5858
 5727TIP3    H238597   3.006   5.383   0.571  0.8013 -0.5932  0.0303
 5728TIP3   OH238598   3.192   5.529  14.106 -0.6180  0.4624  0.0182
 5728TIP3    H138599   3.183   5.562  14.196 -0.9764 -0.5515  0.3770
 5728TIP3    H238600   3.179   5.434  14.115 -0.0497  0.2803 -1.0237
 5729TIP3   OH238601   2.725   2.861   4.742  0.1817 -0.3187  0.1406
 5729TIP3    H138602   2.790   2.906   4.795  1.1495 -0.1003 -1.1636
 5729TIP3    H238603   2.750   2.768   4.748  0.3816 -0.2785 -0.0167
 5730TIP3   OH238604   2.628   2.601   2.745  0.3361 -0.2951  0.2938
 5730TIP3    H138605   2.532   2.602   2.749  0.3330 -1.6272  1.7412
 5730TIP3    H238606   2.654   2.691   2.763 -0.6254 -0.1493  1.0319
 5731TIP3   OH238607   2.648   6.147  15.358  0.0013 -0.1840  0.6264
 5731TIP3    H138608   2.629   6.241  15.353  0.9751  0.0494  1.0130
 5731TIP3    H238609   2.586   6.114  15.423  0.9371  0.5854  1.9916
 5732TIP3   OH238610   4.587   5.593  11.617  0.7031 -0.1216  0.3849
 5732TIP3    H138611   4.531   5.567  11.544  0.0222 -0.6007  1.0594
 5732TIP3    H238612   4.564   5.685  11.632  0.3572 -0.2115  0.4243
 5733TIP3   OH238613   4.015   5.890  11.123 -0.0209 -0.2294 -0.1620
 5733TIP3    H138614   3.960   5.945  11.067 -0.4349 -0.2021  0.2583
 5733TIP3    H238615   4.026   5.809  11.073 -1.0483 -0.5124  0.0368
 5734TIP3   OH238616   3.359   4.031   2.965 -0.5953  0.4372  0.0933
 5734TIP3    H138617   3.299   4.098   2.933  0.0275 -0.0462 -2.2799
 5734TIP3    H238618   3.446   4.071   2.958 -0.4513  0.4662  1.7099
 5735TIP3   OH238619   5.823   6.135   0.761 -0.0841  0.0850  0.0757
 5735TIP3    H138620   5.793   6.123   0.851 -0.4415  0.8594  0.0673
 5735TIP3    H238621   5.898   6.077   0.753  0.9871  1.2160  1.3929
 5736TIP3   OH238622   2.885   5.224   2.496  0.2989 -0.9066  0.6024
 5736TIP3    H138623   2.863   5.168   2.571  2.5713 -0.3649  1.7755
 5736TIP3    H238624   2.859   5.174   2.419 -1.3056 -1.8637  1.7281
 5737TIP3   OH238625   0.379   5.140  11.906  0.0592 -0.1149 -0.4896
 5737TIP3    H138626   0.472   5.163  11.911 -0.0017 -0.0910  0.9847
 5737TIP3    H238627   0.335   5.203  11.964 -0.4471 -2.1326  1.4764
 5738TIP3   OH238628   3.909   1.642  14.988  0.0456  0.2571  0.0756
 5738TIP3    H138629   3.822   1.631  15.027  0.4294 -0.5142  0.7496
 5738TIP3    H238630   3.959   1.567  15.020  0.6177  0.0331 -1.2598
 5739TIP3   OH238631   0.962   2.170  12.895 -0.5975 -0.2905 -0.5544
 5739TIP3    H138632   0.869   2.158  12.880 -1.0631  0.1065  1.6661
 5739TIP3    H238633   0.978   2.263  12.877 -0.6542 -0.3452 -0.8799
 5740TIP3   OH238634   4.187   5.137  10.721 -0.2553 -0.3718 -0.1144
 5740TIP3    H138635   4.176   5.049  10.755 -0.3040  0.4573  2.1894
 5740TIP3    H238636   4.282   5.145  10.707 -0.2740 -0.8463 -0.5312
 5741TIP3   OH238637   1.340   4.053   4.889  0.0615 -0.7747 -0.0727
 5741TIP3    H138638   1.296   4.033   4.971  0.2470  1.8375  0.7578
 5741TIP3    H238639   1.268   4.067   4.827 -0.3354  1.6515  0.8242
 5742TIP3   OH238640   0.738   2.910  15.863 -0.1642 -0.4219 -0.3609
 5742TIP3    H138641   0.766   2.976  15.800 -0.1145 -0.9502 -0.9077
 5742TIP3    H238642   0.684   2.850  15.812 -1.0697 -0.2351  0.3600
 5743TIP3   OH238643   3.311   3.851   0.408 -0.2155  0.4564  0.8369
 5743TIP3    H138644   3.368   3.781   0.377 -0.5333  0.6800 -0.2711
 5743TIP3    H238645   3.279   3.894   0.329 -0.9289  1.1377  1.4722
 5744TIP3   OH238646   3.958   4.638  11.386 -0.6868  0.1722  0.5972
 5744TIP3    H138647   3.870   4.659  11.353 -0.8279 -2.6319 -1.0791
 5744TIP3    H238648   3.949   4.552  11.426  0.7504  1.0988  3.1505
 5745TIP3   OH238649   6.373   0.687  12.062 -0.1861  0.0044  0.5324
 5745TIP3    H138650   6.363   0.599  12.097 -1.1972 -0.9330 -1.9338
 5745TIP3    H238651   6.288   0.729  12.079 -0.1799  0.0419  0.4695
 5746TIP3   OH238652   1.697   4.737   0.180 -0.6190 -0.1408  0.5451
 5746TIP3    H138653   1.783   4.724   0.220  0.0519  0.1307 -0.7515
 5746TIP3    H238654   1.657   4.650   0.181  0.2892 -0.5923 -0.1662
 5747TIP3   OH238655   5.496   2.318  13.327 -0.1952 -0.5695  0.6128
 5747TIP3    H138656   5.525   2.349  13.241  0.7635 -2.1146  0.3345
 5747TIP3    H238657   5.505   2.395  13.384 -0.2908  0.3281 -0.5370
 5748TIP3   OH238658   2.433   3.809  15.950 -0.2254 -0.1301 -0.2991
 5748TIP3    H138659   2.417   3.834  15.859  2.9226 -0.9174 -1.1752
 5748TIP3    H238660   2.449   3.892  15.995  0.0292  0.1527 -0.8941
 5749TIP3   OH238661   6.433   2.601  16.972 -0.4742 -0.2493  0.0944
 5749TIP3    H138662   6.528   2.592  16.973 -0.5552 -1.2994  0.4879
 5749TIP3    H238663   6.415   2.674  16.913  0.5318 -0.6394 -0.7193
 5750TIP3   OH238664   3.949   6.234   3.581 -0.2279 -0.4807  0.0988
 5750TIP3    H138665   3.865   6.271   3.553 -0.5053  0.2255  1.7387
 5750TIP3    H238666   3.926   6.146   3.612 -0.2596 -0.5218 -0.0413
 5751TIP3   OH238667   1.767   3.379  14.567  0.0668  0.6152 -0.9344
 5751TIP3    H138668   1.820   3.398  14.490  1.0857  2.3501  0.1173
 5751TIP3    H238669   1.828   3.384  14.641 -0.7280 -1.6504 -0.0042
 5752TIP3   OH238670   4.009   0.965  13.333  0.0341 -0.6084  0.0331
 5752TIP3    H138671   3.994   0.881  13.377 -0.8274 -0.7243 -0.4444
 5752TIP3    H238672   3.993   0.945  13.240  0.5310 -0.0774 -0.1668
 5753TIP3   OH238673   5.168   5.479  15.244  0.1279 -0.2333 -0.4412
 5753TIP3    H138674   5.171   5.385  15.223  0.3587 -0.2216 -0.4662
 5753TIP3    H238675   5.135   5.520  15.164 -3.0540 -0.5910  0.5604
 5754TIP3   OH238676   1.014   2.422  15.499  0.0297 -0.1752  0.4173
 5754TIP3    H138677   1.083   2.360  15.474  0.2268  0.1998  0.0205
 5754TIP3    H238678   1.046   2.460  15.581 -0.4540 -1.1468  1.0806
 5755TIP3   OH238679   3.121   0.033  10.455  0.1410  0.0094 -0.6313
 5755TIP3    H138680   3.163   0.047  10.540  0.5664 -0.6021 -0.7389
 5755TIP3    H238681   3.102   0.122  10.423 -0.0455  0.2486  0.1050
 5756TIP3   OH238682   5.885   5.011   1.245  0.5022 -0.2692  0.1560
 5756TIP3    H138683   5.921   4.939   1.296 -0.5177 -1.5741 -0.8813
 5756TIP3    H238684   5.955   5.036   1.184  0.0250 -2.2235 -1.2888
 5757TIP3   OH238685   1.735   1.816   6.077  0.6978  0.1753  0.1166
 5757TIP3    H138686   1.734   1.810   6.173 -0.2208  0.6455  0.1402
 5757TIP3    H238687   1.762   1.729   6.048 -2.8144 -1.2665  0.7081
 5758TIP3   OH238688   2.932   3.750   3.380 -0.1437 -0.0357  0.3576
 5758TIP3    H138689   2.952   3.838   3.412 -0.2975  0.2061 -0.2004
 5758TIP3    H238690   2.925   3.697   3.460 -1.3938  0.7386  0.7876
 5759TIP3   OH238691   0.394   1.756  17.214  0.4211  0.5588 -0.0441
 5759TIP3    H138692   0.304   1.726  17.224  0.4787  0.0556 -1.0013
 5759TIP3    H238693   0.387   1.837  17.163  0.5963 -0.1019 -1.1295
 5760TIP3   OH238694   3.506   3.237   1.068 -0.1536  0.1518 -0.0987
 5760TIP3    H138695   3.432   3.295   1.089  0.3269 -0.1156  2.7137
 5760TIP3    H238696   3.579   3.296   1.050 -0.5319  0.4103 -0.8144
 5761TIP3   OH238697   6.213   5.397  14.105 -0.1102 -0.2628 -0.3328
 5761TIP3    H138698   6.179   5.452  14.175 -0.1283 -0.3690 -0.2571
 5761TIP3    H238699   6.184   5.308  14.129  2.2671 -0.7564  1.0305
 5762TIP3   OH238700   0.357   5.452  16.425 -0.4533  0.0902 -0.2935
 5762TIP3    H138701   0.412   5.515  16.378 -0.3109 -0.6504 -1.1645
 5762TIP3    H238702   0.276   5.448  16.374  0.2131 -1.7270 -1.3408
 5763TIP3   OH238703   0.943   5.848  15.119 -0.0998  0.0171  0.2905
 5763TIP3    H138704   0.987   5.872  15.037 -0.7450 -2.1957 -0.7808
 5763TIP3    H238705   0.850   5.843  15.094 -0.5910  1.2974  1.6959
 5764TIP3   OH238706   3.942   2.250   2.988 -0.1315 -0.1886 -0.5736
 5764TIP3    H138707   4.007   2.290   3.044  0.9227 -0.4427 -1.5895
 5764TIP3    H238708   3.878   2.319   2.971  1.3971  0.9460 -1.9051
 5765TIP3   OH238709   0.334   5.852  13.345 -0.4269  0.4835  0.2055
 5765TIP3    H138710   0.248   5.873  13.309  0.7055  2.2617 -1.6866
 5765TIP3    H238711   0.390   5.924  13.317  2.2486 -1.7757 -0.7829
 5766TIP3   OH238712   6.561   5.524  14.169  0.0505 -0.3627 -0.0683
 5766TIP3    H138713   6.552   5.501  14.076 -0.3816 -0.3997 -0.0208
 5766TIP3    H238714   6.636   5.473  14.200  0.8683  0.4434 -0.6527
 5767TIP3   OH238715   5.999   4.784   1.355 -0.0591  0.7833  0.1232
 5767TIP3    H138716   6.081   4.771   1.308 -0.6162  0.0014 -0.6552
 5767TIP3    H238717   6.025   4.784   1.447  0.8100  0.5081 -0.1088
 5768TIP3   OH238718   2.915   2.580   0.785 -0.0761  0.3035 -0.4026
 5768TIP3    H138719   2.999   2.553   0.748 -0.0892 -0.1240 -0.1264
 5768TIP3    H238720   2.930   2.582   0.880 -0.4409  0.0114 -0.3388
 5769TIP3   OH238721   2.830   0.528  14.756  0.0533 -0.3509  0.4790
 5769TIP3    H138722   2.773   0.605  14.760 -0.5817 -0.7218 -1.0291
 5769TIP3    H238723   2.842   0.511  14.663  0.2970 -1.9945  0.7780
 5770TIP3   OH238724   0.071   0.089   4.127 -0.3080  0.2910  0.2778
 5770TIP3    H138725   0.053   0.161   4.187  0.4119  0.6135  0.1282
 5770TIP3    H238726  -0.014   0.065   4.091 -0.5190  1.2843  0.0854
 5771TIP3   OH238727   5.034   0.630   0.428 -0.5336 -0.1948  0.5843
 5771TIP3    H138728   4.974   0.701   0.449 -0.4888  0.2350 -0.6310
 5771TIP3    H238729   5.121   0.665   0.450 -0.7103 -0.9243  2.6214
 5772TIP3   OH238730   5.660   3.970   2.968 -0.1110 -0.0710 -0.4600
 5772TIP3    H138731   5.604   4.015   3.031 -0.3462 -0.2835 -0.5137
 5772TIP3    H238732   5.608   3.967   2.888  0.0777 -0.0470 -0.5835
 5773TIP3   OH238733   2.955   4.835   1.251 -0.1424  0.1879 -0.1629
 5773TIP3    H138734   2.950   4.866   1.342 -0.1562 -1.7181  0.5375
 5773TIP3    H238735   3.048   4.830   1.232 -0.1485  1.2561 -0.5151
 5774TIP3   OH238736   5.712   0.362   5.790  0.2761  0.4509  0.0237
 5774TIP3    H138737   5.729   0.428   5.722  0.2253  0.3055 -0.1325
 5774TIP3    H238738   5.731   0.406   5.872  1.2517  0.3564 -0.1305
 5775TIP3   OH238739   6.156   1.967  13.490 -0.1368 -0.2808 -0.1946
 5775TIP3    H138740   6.165   2.031  13.560  2.3991  0.1923 -0.8516
 5775TIP3    H238741   6.238   1.918  13.491 -0.5824 -1.1665 -1.9666
 5776TIP3   OH238742   1.076   1.634   5.596 -0.0453  0.3160 -0.3998
 5776TIP3    H138743   1.094   1.700   5.663  0.6429  1.3125 -1.5200
 5776TIP3    H238744   0.985   1.650   5.571 -1.6999 -2.5298  2.8721
 5777TIP3   OH238745   5.555   3.952  16.696 -0.5458 -0.4029 -0.2651
 5777TIP3    H138746   5.487   3.911  16.749 -1.2383  0.6162 -0.3257
 5777TIP3    H238747   5.532   3.930  16.606 -2.4427  2.1435 -0.5265
 5778TIP3   OH238748   2.662   3.526  13.869 -0.0490 -0.7546  0.7563
 5778TIP3    H138749   2.723   3.537  13.943  0.0539  0.0359  0.5699
 5778TIP3    H238750   2.586   3.482  13.907 -0.1256 -0.0890  1.4148
 5779TIP3   OH238751   1.154   5.210   5.337  0.1598 -0.0739  0.3792
 5779TIP3    H138752   1.079   5.257   5.373 -0.2198 -0.5051  0.1623
 5779TIP3    H238753   1.228   5.239   5.391 -0.0728  0.7135  0.2930
 5780TIP3   OH238754   1.720   3.897  16.314  0.4339 -0.5076  0.0801
 5780TIP3    H138755   1.717   3.938  16.400  0.6573  0.5220 -0.3872
 5780TIP3    H238756   1.793   3.836  16.319  1.4142  0.6332  0.1775
 5781TIP3   OH238757   4.786   1.730  13.928  0.3425  0.0903  0.0959
 5781TIP3    H138758   4.711   1.780  13.960  0.9811  0.4965  0.9917
 5781TIP3    H238759   4.758   1.698  13.842 -0.5563  0.9061  0.0628
 5782TIP3   OH238760   3.105   0.175  13.551 -0.4069  0.0049 -0.5660
 5782TIP3    H138761   3.068   0.213  13.631 -0.8776 -1.9266  0.1728
 5782TIP3    H238762   3.193   0.213  13.546  0.0052 -0.5598  1.4242
 5783TIP3   OH238763   2.597   3.594  16.682 -0.0097 -0.3397  0.7405
 5783TIP3    H138764   2.591   3.688  16.698  2.2588  0.0381 -0.1517
 5783TIP3    H238765   2.524   3.575  16.623  0.8364  1.4035 -1.0036
 5784TIP3   OH238766   4.355   2.663  11.091 -0.1589 -0.4225  0.4590
 5784TIP3    H138767   4.276   2.717  11.090  0.9565  1.3150 -0.6169
 5784TIP3    H238768   4.403   2.690  11.013  1.5697 -1.3242  1.1486
 5785TIP3   OH238769   0.489   1.116   1.363  0.3031  0.1969 -0.0025
 5785TIP3    H138770   0.425   1.180   1.331  0.7235  0.2813 -0.7059
 5785TIP3    H238771   0.553   1.168   1.411 -1.7207 -0.1986  3.4231
 5786TIP3   OH238772   0.107   1.880   3.192  0.3062  0.6900  0.1357
 5786TIP3    H138773   0.091   1.931   3.112 -1.6482  1.4593  0.9476
 5786TIP3    H238774   0.097   1.943   3.263  0.0970 -0.3577  1.0656
 5787TIP3   OH238775   3.703   5.520  11.485  0.6618  0.5416  0.4743
 5787TIP3    H138776   3.625   5.520  11.540 -0.3824 -1.6938 -0.8484
 5787TIP3    H238777   3.694   5.598  11.430  0.8619  1.8585  2.2416
 5788TIP3   OH238778   0.079   5.182  11.192 -0.2955 -0.1798 -0.0698
 5788TIP3    H138779   0.058   5.093  11.220 -2.9399  0.7301  1.1687
 5788TIP3    H238780   0.092   5.232  11.273 -1.3394  1.0586 -0.6179
 5789TIP3   OH238781   3.401   2.487  15.816  0.3566  0.0446 -0.4216
 5789TIP3    H138782   3.476   2.444  15.776  1.6904  1.0925  0.8351
 5789TIP3    H238783   3.395   2.450  15.904  1.1046  1.8155  0.4377
 5790TIP3   OH238784   2.706   1.771  13.785  0.0737 -0.3868 -0.3264
 5790TIP3    H138785   2.740   1.853  13.820 -0.4178 -0.2780 -0.0991
 5790TIP3    H238786   2.703   1.712  13.860 -1.8386  0.1199  0.0601
 5791TIP3   OH238787   3.833   1.669  14.095  0.1497 -0.3329  0.1757
 5791TIP3    H138788   3.820   1.735  14.163  1.1513  0.3471 -0.2632
 5791TIP3    H238789   3.843   1.587  14.143 -0.8625 -0.1331  0.7431
 5792TIP3   OH238790   3.121   4.791   0.740  0.2732 -0.3597  0.0763
 5792TIP3    H138791   3.161   4.736   0.807  1.2367  0.8655  0.5528
 5792TIP3    H238792   3.027   4.775   0.747  0.5757 -2.9283 -0.7128
 5793TIP3   OH238793   0.099   1.744   0.178 -0.1067  0.0213 -0.2589
 5793TIP3    H138794   0.166   1.682   0.148  0.1212  0.0072  0.2720
 5793TIP3    H238795   0.091   1.728   0.272 -1.8624 -0.9650 -0.5143
 5794TIP3   OH238796   2.485   2.188  16.337  0.6148  0.1665 -0.1770
 5794TIP3    H138797   2.535   2.223  16.264 -1.6531  2.2452 -0.8888
 5794TIP3    H238798   2.409   2.146  16.295 -0.1922  0.4863  0.9277
 5795TIP3   OH238799   0.754   3.914   1.683  0.1539 -0.2485 -0.2270
 5795TIP3    H138800   0.778   3.935   1.593  0.8027  0.0226 -0.0013
 5795TIP3    H238801   0.838   3.902   1.728 -0.1538 -2.0302 -0.0248
 5796TIP3   OH238802   0.778   0.498   0.683 -0.4726  0.0891 -0.6203
 5796TIP3    H138803   0.833   0.573   0.703 -2.1451  0.9393  1.1403
 5796TIP3    H238804   0.826   0.450   0.615  1.5702  1.6590 -0.3769
 5797TIP3   OH238805   0.138   1.382  15.566 -0.3704 -0.3188  0.0366
 5797TIP3    H138806   0.140   1.409  15.658  0.0233  1.3611 -0.4352
 5797TIP3    H238807   0.224   1.407  15.532 -0.7223 -0.4126 -0.9320
 5798TIP3   OH238808   4.994   3.706   3.335  0.0316 -0.2875  0.6012
 5798TIP3    H138809   5.073   3.656   3.311 -1.2044 -2.2215  0.3616
 5798TIP3    H238810   5.026   3.795   3.348  2.0481 -0.7320 -0.7660
 5799TIP3   OH238811   6.133   5.274  14.910  0.3560 -0.0608  0.7498
 5799TIP3    H138812   6.200   5.302  14.847 -0.0481 -1.0693 -0.1522
 5799TIP3    H238813   6.183   5.229  14.979  0.6702 -0.3651  0.3334
 5800TIP3   OH238814   4.312   3.506  10.702 -0.5848  0.4700  0.3404
 5800TIP3    H138815   4.249   3.434  10.693 -0.0228 -0.0491  0.4436
 5800TIP3    H238816   4.384   3.468  10.752  1.4525 -0.0779 -2.7258
 5801TIP3   OH238817   2.081   1.420  15.180 -0.7630 -0.1703  0.1010
 5801TIP3    H138818   2.079   1.515  15.165 -0.1268 -0.3116 -0.9886
 5801TIP3    H238819   2.160   1.406  15.231 -1.6253  0.0347  1.5283
 5802TIP3   OH238820   0.796   1.901   1.485 -0.5597  0.3907 -0.1490
 5802TIP3    H138821   0.850   1.970   1.523  1.4778 -1.3730  0.3809
 5802TIP3    H238822   0.859   1.842   1.443 -2.3929  0.0732 -2.7006
 5803TIP3   OH238823   0.327   2.711   4.646 -0.3457  0.3574  0.0243
 5803TIP3    H138824   0.304   2.741   4.734  1.3883 -0.5184  0.8137
 5803TIP3    H238825   0.319   2.615   4.650  2.5420  0.0411  0.1577
 5804TIP3   OH238826   2.150   3.611  15.023  0.0873 -0.2951 -0.8262
 5804TIP3    H138827   2.082   3.657  15.072  0.8736  0.2964 -0.2589
 5804TIP3    H238828   2.142   3.519  15.049  1.4046  0.1837  1.5918
 5805TIP3   OH238829   5.733   0.927   6.270  0.4436  0.2327  0.1132
 5805TIP3    H138830   5.749   0.839   6.236 -1.3720 -0.2338  0.3251
 5805TIP3    H238831   5.816   0.973   6.260  2.0298 -2.0764  1.7780
 5806TIP3   OH238832   3.382   4.620   4.259 -0.4009 -0.4149  0.0734
 5806TIP3    H138833   3.322   4.587   4.327  0.0186 -0.3816  0.4640
 5806TIP3    H238834   3.346   4.585   4.177 -0.8298 -0.5782  0.3245
 5807TIP3   OH238835   6.473   2.946  12.172  0.0346  0.0474 -0.7987
 5807TIP3    H138836   6.499   2.866  12.217  0.4959  0.6332  0.0195
 5807TIP3    H238837   6.548   2.970  12.119  0.1721  0.3128 -0.4900
 5808TIP3   OH238838   5.634   5.320  15.021  0.4798  0.0745 -0.1396
 5808TIP3    H138839   5.708   5.303  14.963  1.2440 -0.8566  1.0348
 5808TIP3    H238840   5.558   5.285  14.975  0.8813  0.4390 -1.0832
 5809TIP3   OH238841   1.651   4.007   4.972 -0.6425  0.4070  0.5621
 5809TIP3    H138842   1.658   3.912   4.963 -2.4495  0.2455  0.3863
 5809TIP3    H238843   1.623   4.020   5.062 -3.3859  0.4825 -0.1872
 5810TIP3   OH238844   6.023   4.405  10.809  0.8866 -0.1800 -0.1819
 5810TIP3    H138845   5.962   4.425  10.738  0.7520  0.5200  0.1276
 5810TIP3    H238846   6.026   4.309  10.811  1.6106 -0.2298 -1.7505
 5811TIP3   OH238847   3.443   1.198  16.536 -0.1105 -0.2183  0.7763
 5811TIP3    H138848   3.402   1.227  16.618  0.2476  1.6641  0.3459
 5811TIP3    H238849   3.468   1.279  16.492  0.2988 -1.2117 -0.9089
 5812TIP3   OH238850   3.167   3.642   3.272  0.2665 -0.1288  0.4542
 5812TIP3    H138851   3.086   3.671   3.314  1.4299  0.0474  2.7649
 5812TIP3    H238852   3.194   3.717   3.218 -1.4772 -0.5046 -1.0497
 5813TIP3   OH238853   1.470   2.315  15.487  0.3225  0.3605  0.0946
 5813TIP3    H138854   1.477   2.227  15.450  0.6429  0.6736 -0.5829
 5813TIP3    H238855   1.511   2.373  15.423  1.3842  0.8455  1.1810
 5814TIP3   OH238856   1.257   5.044   5.863 -0.3006 -0.3176 -0.1926
 5814TIP3    H138857   1.328   5.087   5.816 -1.5899 -0.2398 -2.2067
 5814TIP3    H238858   1.289   4.955   5.880  1.3120  0.5279  1.5245
 5815TIP3   OH238859   3.660   5.514   1.503  0.4915 -0.5103 -0.3330
 5815TIP3    H138860   3.740   5.564   1.518  0.3033 -0.5615  1.0447
 5815TIP3    H238861   3.650   5.512   1.408  1.7727  0.0397 -0.5080
 5816TIP3   OH238862   2.571   1.724  13.551 -0.4396 -0.4770  0.3617
 5816TIP3    H138863   2.638   1.722  13.619  1.2209 -0.3965 -1.1907
 5816TIP3    H238864   2.599   1.793  13.491 -1.5362 -0.9064 -0.6997
 5817TIP3   OH238865   2.585   0.994   5.949  0.5258  0.0280 -1.1681
 5817TIP3    H138866   2.554   1.075   5.910 -0.2059  0.0302 -0.6041
 5817TIP3    H238867   2.619   1.020   6.035 -1.1820 -0.4569 -0.2977
 5818TIP3   OH238868   1.354   4.733  16.271 -0.1925 -0.0917 -0.1319
 5818TIP3    H138869   1.378   4.768  16.185  0.2109 -1.4278 -0.5928
 5818TIP3    H238870   1.429   4.679  16.296  0.2897  1.3401  1.7015
 5819TIP3   OH238871   2.816   1.892  16.999  0.1272 -0.4567 -0.1695
 5819TIP3    H138872   2.819   1.869  16.907 -0.3692 -1.6182  0.0957
 5819TIP3    H238873   2.731   1.934  17.011  0.6876  0.8390 -0.4689
 5820TIP3   OH238874   3.051   2.936  14.460  0.0032 -0.0374 -0.5237
 5820TIP3    H138875   3.106   2.999  14.414  1.5162 -1.5424 -0.8689
 5820TIP3    H238876   3.002   2.891  14.392 -0.4703  0.1931 -0.3434
 5821TIP3   OH238877   2.277   5.210   1.883 -0.2804 -0.1454  0.7191
 5821TIP3    H138878   2.248   5.145   1.818  0.6323  0.3204 -0.1908
 5821TIP3    H238879   2.261   5.169   1.967 -2.0218 -0.5596  0.2241
 5822TIP3   OH238880   5.182   3.926  11.559 -0.4428 -0.3388 -0.2917
 5822TIP3    H138881   5.262   3.889  11.521 -0.6859 -1.0979 -0.0949
 5822TIP3    H238882   5.159   3.865  11.629 -0.4292  0.6328  0.5764
 5823TIP3   OH238883   1.096   1.524  16.558  0.0536 -0.1770  0.1963
 5823TIP3    H138884   1.037   1.459  16.597  1.6099 -1.1873  0.9723
 5823TIP3    H238885   1.038   1.587  16.516 -1.6174 -0.4465  1.9737
 5824TIP3   OH238886   6.005   2.944  16.040  0.0973  0.8130 -0.7642
 5824TIP3    H138887   6.053   2.997  15.976 -0.8351  0.6844 -1.5818
 5824TIP3    H238888   6.074   2.897  16.088  0.8777  1.9845 -0.7061
 5825TIP3   OH238889   6.525   4.434   4.064 -0.8905  0.3709 -0.3848
 5825TIP3    H138890   6.470   4.476   4.130 -0.5897 -0.4530  0.4073
 5825TIP3    H238891   6.463   4.382   4.012 -1.2620  1.7373 -1.3658
 5826TIP3   OH238892   4.954   2.065  13.831 -0.1786 -0.5556 -0.5809
 5826TIP3    H138893   5.014   2.110  13.890 -0.7959  0.1249 -0.4569
 5826TIP3    H238894   4.936   2.129  13.762 -1.1479 -0.5551 -0.3473
 5827TIP3   OH238895   3.514   0.778  15.235 -0.7266 -0.0853 -0.6589
 5827TIP3    H138896   3.429   0.745  15.205 -0.0797 -3.5359  0.7525
 5827TIP3    H238897   3.578   0.719  15.194  0.6793  0.0330  1.2156
 5828TIP3   OH238898   4.848   5.904  15.483 -0.1753  0.2101  0.4162
 5828TIP3    H138899   4.799   5.876  15.405 -0.3838 -2.6922  1.4584
 5828TIP3    H238900   4.820   5.995  15.497 -2.6534 -0.2182 -1.0017
 5829TIP3   OH238901   4.788   2.280  12.501 -0.0175  0.0755 -0.2068
 5829TIP3    H138902   4.869   2.296  12.550  0.2019 -0.0733 -0.5161
 5829TIP3    H238903   4.719   2.282  12.567  0.3059 -0.3734  0.1500
 5830TIP3   OH238904   4.227   1.449   0.284 -0.2855  0.1738  0.3384
 5830TIP3    H138905   4.164   1.503   0.330 -0.1300  1.6961 -1.1485
 5830TIP3    H238906   4.312   1.491   0.300 -0.1911  0.5661 -1.0376
 5831TIP3   OH238907   0.110   6.702  12.878 -0.9876  0.4772  0.0240
 5831TIP3    H138908   0.151   6.783  12.908  1.2465 -0.5056 -0.1521
 5831TIP3    H238909   0.090   6.654  12.957  0.4448 -0.0362  0.1067
 5832TIP3   OH238910   1.586   5.671  15.963 -0.5887  0.1189  0.1447
 5832TIP3    H138911   1.627   5.753  15.937  0.3273 -0.7987 -1.4762
 5832TIP3    H238912   1.511   5.662  15.903 -0.7115 -0.2038  0.3422
 5833TIP3   OH238913   2.167   4.628   5.388  0.7857 -0.1984  0.2684
 5833TIP3    H138914   2.146   4.719   5.410  0.8038 -0.1415  0.0502
 5833TIP3    H238915   2.261   4.629   5.370  0.7815 -0.2572  0.2461
 5834TIP3   OH238916   1.766   6.349   2.545  0.0276 -0.1983  0.3678
 5834TIP3    H138917   1.694   6.302   2.586 -0.3356 -1.6233 -1.7176
 5834TIP3    H238918   1.742   6.441   2.549 -0.9366 -0.4855  1.4642
 5835TIP3   OH238919   2.952   2.507  11.107  0.3633 -0.0910 -0.2851
 5835TIP3    H138920   2.945   2.493  11.012  0.1656  0.2814 -0.3278
 5835TIP3    H238921   2.861   2.509  11.137  0.4218  0.0166 -0.1193
 5836TIP3   OH238922   0.759   1.398  17.263  0.4631  0.4263 -0.0778
 5836TIP3    H138923   0.704   1.464  17.220 -0.7502  0.0906  0.9145
 5836TIP3    H238924   0.813   1.363  17.192 -0.3313  1.0308 -1.0146
 5837TIP3   OH238925   4.244   6.283   6.427  0.2246 -0.5571 -0.2439
 5837TIP3    H138926   4.257   6.196   6.465  0.9627 -0.9655 -1.3593
 5837TIP3    H238927   4.210   6.336   6.499  0.6946 -1.5180  0.7219
 5838TIP3   OH238928   2.970   4.245   4.482 -0.5903  0.0623 -0.4574
 5838TIP3    H138929   2.929   4.174   4.529  1.1499 -0.3242  0.5729
 5838TIP3    H238930   2.907   4.270   4.415 -1.6254 -1.8009 -0.2260
 5839TIP3   OH238931   6.003   1.380  12.914 -0.6785 -0.0499 -0.4005
 5839TIP3    H138932   5.999   1.294  12.955 -1.5668  0.0410 -0.2725
 5839TIP3    H238933   6.097   1.398  12.906 -0.4728 -1.2817 -0.9908
 5840TIP3   OH238934   1.683   4.318  14.030 -0.3707 -0.3122  0.4861
 5840TIP3    H138935   1.731   4.240  14.002 -0.2196  0.1285 -0.5126
 5840TIP3    H238936   1.746   4.390  14.018 -0.6967  0.0415  0.8607
 5841TIP3   OH238937   2.541   0.243   4.504 -0.3370  0.1482  0.1950
 5841TIP3    H138938   2.492   0.217   4.426 -1.8091  0.5913  0.9344
 5841TIP3    H238939   2.473   0.264   4.569  0.6998 -3.3450  2.7487
 5842TIP3   OH238940   2.374   4.714   0.390  0.2441  0.0228 -0.0620
 5842TIP3    H138941   2.434   4.761   0.448  1.3151  0.7518 -1.6880
 5842TIP3    H238942   2.311   4.780   0.361  0.4164 -0.0557 -0.6251
 5843TIP3   OH238943   1.449   4.164  12.744 -0.0501  0.3474  0.6352
 5843TIP3    H138944   1.532   4.178  12.699 -0.5479  1.1010 -0.0847
 5843TIP3    H238945   1.394   4.119  12.680 -1.2532  2.7006 -0.1101
 5844TIP3   OH238946   1.175   0.261  16.506  0.2267  0.4005 -0.4850
 5844TIP3    H138947   1.239   0.332  16.511  1.9548 -1.1259  0.4716
 5844TIP3    H238948   1.103   0.297  16.455 -0.3325  3.8363  2.3453
 5845TIP3   OH238949   5.143   1.622   5.562  0.3839  0.3623  0.1334
 5845TIP3    H138950   5.133   1.714   5.537  1.1508  0.5375  0.4469
 5845TIP3    H238951   5.225   1.619   5.611  0.7249 -0.6184 -0.4678
 5846TIP3   OH238952   2.159   2.707   5.318  0.3297 -0.1722  0.2038
 5846TIP3    H138953   2.175   2.616   5.292 -1.5142  0.0361 -1.9715
 5846TIP3    H238954   2.068   2.709   5.346  0.5828  0.8794  1.0526
 5847TIP3   OH238955   1.419   5.660   3.010  0.2653  0.7541 -0.4399
 5847TIP3    H138956   1.499   5.706   2.986  0.7676  0.9804  1.5143
 5847TIP3    H238957   1.448   5.572   3.035 -0.2759  0.4018 -1.0244
 5848TIP3   OH238958   0.324   5.685   4.989  0.5046 -0.1528 -0.7712
 5848TIP3    H138959   0.372   5.670   5.070  0.1070  0.8943 -0.3166
 5848TIP3    H238960   0.260   5.614   4.984  2.2198 -1.7280 -1.5255
 5849TIP3   OH238961   3.980   0.195   4.604  0.3227 -0.0503 -0.0889
 5849TIP3    H138962   4.002   0.111   4.644  0.2501  0.1827  0.4537
 5849TIP3    H238963   3.888   0.187   4.579  0.5828 -0.4775 -0.9458
 5850TIP3   OH238964   3.874   0.764  12.601 -0.3457 -0.1753 -0.0418
 5850TIP3    H138965   3.822   0.684  12.588 -1.5717  0.4332  0.8695
 5850TIP3    H238966   3.898   0.791  12.513 -0.1539 -1.3908 -0.3843
 5851TIP3   OH238967   3.801   5.302  12.228  0.3575 -0.5437 -0.3453
 5851TIP3    H138968   3.887   5.341  12.210 -0.4302  0.9228 -1.1358
 5851TIP3    H238969   3.759   5.364  12.288 -0.9283 -0.1412 -1.6059
 5852TIP3   OH238970   3.314   1.927   4.469  0.3397  0.0772 -0.6432
 5852TIP3    H138971   3.385   1.863   4.474 -0.1025 -0.3299  1.1514
 5852TIP3    H238972   3.263   1.901   4.393  0.3579 -1.5073 -0.1402
 5853TIP3   OH238973   5.081   2.658   2.687 -0.0686  0.2060 -0.0488
 5853TIP3    H138974   4.998   2.634   2.729  0.8520 -2.2456  0.5609
 5853TIP3    H238975   5.120   2.722   2.746 -1.4941  1.4129 -0.3484
 5854TIP3   OH238976   1.545   0.220   3.281 -0.3686  0.2481  0.9875
 5854TIP3    H138977   1.633   0.208   3.318 -0.3338 -1.4032  0.4238
 5854TIP3    H238978   1.552   0.301   3.231  0.7571  0.2965  1.1849
 5855TIP3   OH238979   4.823   2.658   5.217  0.2983 -0.7845 -0.1818
 5855TIP3    H138980   4.845   2.729   5.157 -0.1510  0.3214  0.9125
 5855TIP3    H238981   4.899   2.652   5.275 -0.7090  0.6520  1.3875
 5856TIP3   OH238982   1.240   6.224   1.414 -0.1162 -0.4701 -0.2500
 5856TIP3    H138983   1.230   6.154   1.479 -2.3063 -0.0568 -0.0945
 5856TIP3    H238984   1.186   6.197   1.340  1.9673 -0.6932 -1.7958
 5857TIP3   OH238985   2.619   6.489   4.267  0.0873  0.2655 -1.0660
 5857TIP3    H138986   2.537   6.455   4.302  0.1756 -0.7656 -1.8136
 5857TIP3    H238987   2.686   6.453   4.324  0.0713  0.5677 -0.8529
 5858TIP3   OH238988   0.984   5.408   5.506  0.7496  0.4982  0.4411
 5858TIP3    H138989   1.008   5.482   5.450 -0.6427  0.7511  0.1327
 5858TIP3    H238990   0.902   5.435   5.548 -1.0436 -1.6371 -1.3622
 5859TIP3   OH238991   5.515   1.181  11.089 -0.0857  0.0835  0.2811
 5859TIP3    H138992   5.597   1.223  11.063  0.7347 -2.9993 -2.7669
 5859TIP3    H238993   5.489   1.129  11.013 -4.2946 -0.0395  1.5619
 5860TIP3   OH238994   4.907   5.870  11.190 -0.0364 -0.2866  0.0640
 5860TIP3    H138995   4.987   5.863  11.137 -0.7676  0.3372 -1.1733
 5860TIP3    H238996   4.857   5.791  11.168  0.4185 -0.9017  1.1784
 5861TIP3   OH238997   1.001   1.746  12.911 -0.3697  0.0288  0.0262
 5861TIP3    H138998   0.909   1.764  12.929  0.1997  1.3076  1.9641
 5861TIP3    H238999   1.029   1.689  12.982  0.6653  0.7985  0.2558
 5862TIP3   OH239000   5.959   1.399  13.551 -0.3017 -0.0917 -0.0736
 5862TIP3    H139001   5.905   1.361  13.621 -0.4300 -0.4271 -0.3521
 5862TIP3    H239002   6.045   1.411  13.591 -0.3715 -0.2896  0.1405
 5863TIP3   OH239003   5.633   2.597   2.278 -0.0574  0.1819 -0.4063
 5863TIP3    H139004   5.669   2.667   2.332 -0.7859 -0.0993  0.4549
 5863TIP3    H239005   5.597   2.534   2.340 -0.7414 -0.2395 -1.2122
 5864TIP3   OH239006   2.856   3.428  14.751  0.0896 -0.1978  0.1395
 5864TIP3    H139007   2.869   3.379  14.833  0.0105 -0.8330 -0.2235
 5864TIP3    H239008   2.763   3.450  14.752  0.3288  0.8681  0.8039
 5865TIP3   OH239009   3.554   4.834   0.960 -0.8789  0.4988  0.0161
 5865TIP3    H139010   3.541   4.770   1.030 -0.2870 -0.5563 -0.8089
 5865TIP3    H239011   3.491   4.809   0.892  0.7249 -0.5351 -1.1814
 5866TIP3   OH239012   4.775   3.750   1.367  0.2801  0.2502 -0.0220
 5866TIP3    H139013   4.690   3.722   1.400 -0.2959  1.0773 -0.7546
 5866TIP3    H239014   4.827   3.670   1.362 -0.2150 -0.1588  1.0933
 5867TIP3   OH239015   0.216   4.432  11.872  0.1540  0.1522  0.3068
 5867TIP3    H139016   0.281   4.492  11.908  0.5545 -0.0462 -0.0593
 5867TIP3    H239017   0.257   4.346  11.879 -0.5354 -0.1196  1.0976
 5868TIP3   OH239018   3.457   1.295   5.840  0.3466 -0.5427 -0.1200
 5868TIP3    H139019   3.410   1.215   5.864  2.0684 -1.3632  0.7311
 5868TIP3    H239020   3.411   1.328   5.763 -0.3014 -2.4590 -0.6132
 5869TIP3   OH239021   2.591   5.830  13.608 -0.0996 -0.2296 -0.5732
 5869TIP3    H139022   2.662   5.886  13.640  0.8260 -1.3694 -0.5239
 5869TIP3    H239023   2.523   5.837  13.674  0.2331  0.4004 -0.2880
 5870TIP3   OH239024   0.078   5.678   1.422 -0.1377  0.7159  0.0465
 5870TIP3    H139025   0.159   5.729   1.424 -0.3484  1.0457  1.7184
 5870TIP3    H239026   0.091   5.610   1.488 -0.8239  0.1183 -0.4191
 5871TIP3   OH239027   4.513   0.930   0.779 -0.1001 -0.4622 -0.0024
 5871TIP3    H139028   4.503   1.014   0.735 -1.3059 -0.6608 -0.1555
 5871TIP3    H239029   4.522   0.866   0.708  2.2284 -0.3495  0.1202
 5872TIP3   OH239030   3.210   1.439  12.660 -0.1778  0.3208 -0.4515
 5872TIP3    H139031   3.239   1.357  12.622  0.8778  0.0297  0.8923
 5872TIP3    H239032   3.153   1.413  12.733  1.8150  0.6380  1.3232
 5873TIP3   OH239033   5.138   1.760   5.217 -0.1146  0.1131 -0.2556
 5873TIP3    H139034   5.046   1.764   5.191 -0.3988 -2.5636  0.0822
 5873TIP3    H239035   5.170   1.677   5.182  1.8718  0.4619  0.5785
 5874TIP3   OH239036   4.610   1.761   2.142 -0.0521 -0.5031  0.1168
 5874TIP3    H139037   4.548   1.688   2.133 -0.1412 -0.2903 -1.1543
 5874TIP3    H239038   4.669   1.751   2.068 -1.5732  2.1393 -1.6053
 5875TIP3   OH239039   4.146   5.094  15.857  0.1173 -0.1287  0.0060
 5875TIP3    H139040   4.212   5.074  15.924 -0.3128 -0.0097  0.4692
 5875TIP3    H239041   4.067   5.115  15.906 -0.8668 -2.2309 -0.5267
 5876TIP3   OH239042   6.155   4.199  15.915 -0.2774 -0.1072  0.4991
 5876TIP3    H139043   6.169   4.166  15.826  1.4055  0.5172  0.4914
 5876TIP3    H239044   6.069   4.166  15.940 -0.1693 -1.4898 -0.8255
 5877TIP3   OH239045   5.231   1.349  14.939  0.0104  0.0115 -0.6305
 5877TIP3    H139046   5.154   1.363  14.884 -1.5151 -0.1208  1.3855
 5877TIP3    H239047   5.280   1.431  14.932 -3.0088  2.2645  2.0596
 5878TIP3   OH239048   5.610   6.447  14.959 -0.1801  0.0672  0.2257
 5878TIP3    H139049   5.607   6.537  14.928 -0.5405 -0.0128  0.0229
 5878TIP3    H239050   5.702   6.432  14.982  0.1649  0.0387 -1.0818
 5879TIP3   OH239051   1.469   1.229  16.528  0.7623 -0.3569  0.2418
 5879TIP3    H139052   1.544   1.271  16.571  0.4489  0.2549  0.1907
 5879TIP3    H239053   1.509   1.159  16.476  1.5190  1.1183 -1.2553
 5880TIP3   OH239054   1.698   2.819  15.551  0.7435 -0.2542 -0.2324
 5880TIP3    H139055   1.752   2.864  15.616  0.2550 -0.5627  0.3912
 5880TIP3    H239056   1.626   2.781  15.601 -0.6424  1.0205 -1.1672
 5881TIP3   OH239057   3.336   1.510  15.200  0.1989  0.0040  0.0674
 5881TIP3    H139058   3.247   1.475  15.200 -0.0189  0.5457 -0.2604
 5881TIP3    H239059   3.383   1.457  15.135  0.1858 -0.4385  0.4123
 5882TIP3   OH239060   6.689   6.014   0.873  0.0194 -0.3299 -0.1105
 5882TIP3    H139061   6.655   5.972   0.794  0.5872 -1.8663  0.4080
 5882TIP3    H239062   6.635   5.978   0.944  1.0235 -0.8307  0.4344
 5883TIP3   OH239063   2.422   3.479   5.706  0.2096  0.2475  0.3890
 5883TIP3    H139064   2.418   3.393   5.665 -1.3083  1.0320 -1.2533
 5883TIP3    H239065   2.354   3.478   5.772 -0.0285  0.2805  0.1463
 5884TIP3   OH239066   1.966   4.112  13.345 -0.2680 -0.2585  0.0282
 5884TIP3    H139067   2.053   4.118  13.305 -0.7463  0.2256 -0.9959
 5884TIP3    H239068   1.983   4.118  13.439  0.7987 -0.1025 -0.1503
 5885TIP3   OH239069   0.988   0.152   2.478 -0.4438  0.1730  0.3323
 5885TIP3    H139070   1.010   0.174   2.387 -2.1486 -0.3972 -0.2446
 5885TIP3    H239071   1.066   0.177   2.528 -0.5148  3.1290 -0.8730
 5886TIP3   OH239072   2.040   5.806   1.676  0.6568 -0.6857 -0.3246
 5886TIP3    H139073   2.057   5.877   1.739  1.0590 -1.2085  0.1720
 5886TIP3    H239074   2.023   5.851   1.594  2.8784 -0.0231 -0.4907
 5887TIP3   OH239075   1.434   2.812   5.904  0.0424 -0.3242 -0.1052
 5887TIP3    H139076   1.516   2.855   5.929  0.4730 -1.0063 -0.3059
 5887TIP3    H239077   1.431   2.732   5.957  0.3847 -1.1873 -1.3433
 5888TIP3   OH239078   1.364   4.578   0.315 -0.2843 -0.4857 -0.8522
 5888TIP3    H139079   1.291   4.638   0.300 -1.3638 -1.4547  0.3043
 5888TIP3    H239080   1.358   4.555   0.408  1.8543 -0.1494 -0.5637
 5889TIP3   OH239081   5.017   4.673  13.347  0.1111  0.6555  0.0179
 5889TIP3    H139082   5.111   4.659  13.354  0.1641 -0.1289 -1.8365
 5889TIP3    H239083   4.979   4.618  13.416  0.9667  0.6182  0.4742
 5890TIP3   OH239084   1.272   2.495  17.278 -0.6935  0.5366 -0.0985
 5890TIP3    H139085   1.266   2.416  17.332 -0.9158 -0.3900 -1.4132
 5890TIP3    H239086   1.355   2.486  17.231 -0.9495  0.8534 -0.6170
 5891TIP3   OH239087   0.935   5.578   0.220  0.4785 -0.2957  0.2154
 5891TIP3    H139088   0.915   5.630   0.298  0.4164  0.5103 -0.3274
 5891TIP3    H239089   1.027   5.599   0.201  0.1768  0.3423 -0.5508
 5892TIP3   OH239090   5.814   0.852  14.955  0.3374  0.1497 -0.3740
 5892TIP3    H139091   5.879   0.797  14.998  2.1141  0.8411 -2.0132
 5892TIP3    H239092   5.829   0.940  14.991  2.6230  0.9725 -3.0314
 5893TIP3   OH239093   3.550   0.617   0.652  0.2530 -0.2014 -0.6678
 5893TIP3    H139094   3.476   0.556   0.648 -0.6250  0.8565 -0.9077
 5893TIP3    H239095   3.539   0.663   0.735 -0.4153  1.2375 -1.5156
 5894TIP3   OH239096   6.014   1.519   3.170  0.7750 -0.0053 -0.2123
 5894TIP3    H139097   6.013   1.494   3.262  0.8159  0.4710 -0.0789
 5894TIP3    H239098   5.931   1.489   3.135  0.0172  1.3036  0.3921
 5895TIP3   OH239099   5.799   1.953   3.554 -0.2055 -0.1764 -0.1628
 5895TIP3    H139100   5.721   1.951   3.609 -0.5203 -1.7827 -0.6264
 5895TIP3    H239101   5.803   2.043   3.522 -2.2741 -0.2111 -0.6719
 5896TIP3   OH239102   3.503   4.246  13.375 -0.0325  0.6851 -0.0822
 5896TIP3    H139103   3.476   4.338  13.374  0.9650  0.9975 -0.2794
 5896TIP3    H239104   3.481   4.215  13.463 -0.3948  1.1114 -0.0213
 5897TIP3   OH239105   1.707   1.249  12.356 -0.3541 -0.1229  0.0825
 5897TIP3    H139106   1.768   1.318  12.330 -1.2876  0.9459  0.6341
 5897TIP3    H239107   1.655   1.289  12.426 -0.8966 -1.4065  0.4293
 5898TIP3   OH239108   5.493   5.290   4.059 -0.0904  0.3194  0.1044
 5898TIP3    H139109   5.574   5.277   4.010 -1.2967 -0.5546 -1.8082
 5898TIP3    H239110   5.475   5.383   4.051  1.4099  0.8029  1.7827
 5899TIP3   OH239111   3.914   4.242   4.098 -0.2472 -0.0922  0.3682
 5899TIP3    H139112   3.865   4.252   4.180  2.8393 -1.4843  2.5972
 5899TIP3    H239113   3.982   4.309   4.103 -0.9707  0.8887 -1.9470
 5900TIP3   OH239114   1.734   1.517   4.312  0.1525  0.1495 -0.6884
 5900TIP3    H139115   1.829   1.523   4.304  0.4150 -1.8548  0.4626
 5900TIP3    H239116   1.706   1.469   4.234  0.2904 -0.6865 -0.2340
 5901TIP3   OH239117   3.799   3.154   3.922 -0.0300  0.6640  0.2377
 5901TIP3    H139118   3.816   3.222   3.856  0.8151  0.9593  0.7410
 5901TIP3    H239119   3.882   3.106   3.928  0.0731  0.9715  1.4513
 5902TIP3   OH239120   1.298   3.628   1.911  0.0187  0.4925  0.4343
 5902TIP3    H139121   1.380   3.672   1.890 -0.1311  1.1499  1.1617
 5902TIP3    H239122   1.307   3.604   2.003 -0.5440  0.4427  0.4801
 5903TIP3   OH239123   1.725   5.834  13.161 -0.8165  0.2136  0.5973
 5903TIP3    H139124   1.741   5.893  13.088 -0.1020 -1.2325 -0.4778
 5903TIP3    H239125   1.784   5.865  13.230  0.6535 -0.0884 -0.4655
 5904TIP3   OH239126   1.839   6.599   1.400  0.2920  0.0534 -0.5516
 5904TIP3    H139127   1.831   6.628   1.490  0.6135 -0.8889 -0.2049
 5904TIP3    H239128   1.797   6.513   1.398  0.7771 -0.1814 -1.1664
 5905TIP3   OH239129   5.689   3.696  12.812  0.4239  0.1298  0.4328
 5905TIP3    H139130   5.635   3.678  12.734 -1.6973  1.4799  1.4873
 5905TIP3    H239131   5.772   3.727  12.776 -0.0041 -0.5683 -1.2892
 5906TIP3   OH239132   4.591   4.689  13.800 -0.3438 -0.4819  0.2785
 5906TIP3    H139133   4.621   4.629  13.868 -0.0962 -0.8160 -0.1223
 5906TIP3    H239134   4.537   4.635  13.743 -0.1867 -0.2996 -0.0414
 5907TIP3   OH239135   5.325   4.723  15.804 -0.1146  0.2115 -0.1836
 5907TIP3    H139136   5.360   4.751  15.889 -0.5292 -1.1196  0.4640
 5907TIP3    H239137   5.388   4.756  15.740  0.2969  1.0913  0.6587
 5908TIP3   OH239138   5.490   4.708  17.163  0.1764  0.0977 -0.1408
 5908TIP3    H139139   5.462   4.617  17.151  0.5486 -0.0969  0.4735
 5908TIP3    H239140   5.497   4.743  17.074 -1.3029 -0.0644 -0.3478
 5909TIP3   OH239141   0.662   4.305  15.675 -0.6139  0.0997  0.2175
 5909TIP3    H139142   0.570   4.323  15.655 -0.1040  0.4054 -2.1612
 5909TIP3    H239143   0.706   4.390  15.664  0.1212 -0.2812  0.1811
 5910TIP3   OH239144   4.106   2.970  13.323 -0.0474  0.3245 -0.1354
 5910TIP3    H139145   4.069   3.010  13.245 -2.5380 -1.9339 -0.2846
 5910TIP3    H239146   4.184   2.924  13.293  0.4461  1.5156 -0.7438
 5911TIP3   OH239147   3.734   5.635  13.084  0.3927 -0.2325  0.0669
 5911TIP3    H139148   3.752   5.726  13.061 -0.8377  0.8061  2.7560
 5911TIP3    H239149   3.642   5.622  13.061 -1.0312  0.9868  4.1088
 5912TIP3   OH239150   3.776   2.742   3.823  0.2502  0.1630 -0.1147
 5912TIP3    H139151   3.808   2.788   3.900  0.8629  1.1172 -0.9244
 5912TIP3    H239152   3.691   2.782   3.805  0.5109  0.5608 -0.4628
 5913TIP3   OH239153   4.598   3.073   0.269 -0.5708 -0.6578 -0.3699
 5913TIP3    H139154   4.654   2.998   0.291  1.3704  0.5272 -0.9561
 5913TIP3    H239155   4.552   3.046   0.189 -0.2183 -1.3825 -0.3409
 5914TIP3   OH239156   4.943   1.945   6.178 -0.3691  0.7624  0.0670
 5914TIP3    H139157   4.930   1.924   6.085  0.7072  0.0391  0.0660
 5914TIP3    H239158   4.980   2.033   6.178  0.5373  0.3889 -0.2518
 5915TIP3   OH239159   1.565   2.670   2.010  0.5742 -0.1261  0.6755
 5915TIP3    H139160   1.508   2.725   2.063 -1.0384 -0.8851 -0.2198
 5915TIP3    H239161   1.588   2.596   2.067 -1.6450 -1.2537  0.1911
 5916TIP3   OH239162   2.633   6.756  11.495 -0.3939  0.1910  0.8275
 5916TIP3    H139163   2.552   6.713  11.523  0.6671 -1.1972  1.9308
 5916TIP3    H239164   2.688   6.757  11.573  0.6068  1.2241  0.1356
 5917TIP3   OH239165   1.366   5.291   2.434 -0.2838  0.1544 -0.2290
 5917TIP3    H139166   1.302   5.245   2.488 -0.8498  3.0864  1.8311
 5917TIP3    H239167   1.442   5.232   2.431 -1.2023 -1.2261  1.6043
 5918TIP3   OH239168   5.325   0.208  16.678  0.7985 -0.2567 -0.4760
 5918TIP3    H139169   5.286   0.196  16.592 -0.6124  2.3721 -0.3309
 5918TIP3    H239170   5.272   0.153  16.736 -0.5325  0.6074 -0.8237
 5919TIP3   OH239171   6.133   3.693  12.952  0.0445 -0.1024  0.3121
 5919TIP3    H139172   6.089   3.610  12.972 -0.7741  0.1014 -0.5415
 5919TIP3    H239173   6.204   3.669  12.893 -0.0386 -0.2308  0.2632
 5920TIP3   OH239174   5.002   6.110   4.340  0.2594 -0.2095 -0.7101
 5920TIP3    H139175   4.923   6.164   4.330  0.3658  0.3651  1.1348
 5920TIP3    H239176   5.060   6.140   4.270 -0.8895 -0.1827 -1.6852
 5921TIP3   OH239177   0.243   4.113  15.417  0.0659  0.2560  0.7303
 5921TIP3    H139178   0.181   4.174  15.375 -1.5700 -1.4553  0.5236
 5921TIP3    H239179   0.324   4.163  15.423 -0.8657  2.0627 -0.4795
 5922TIP3   OH239180   4.636   2.176  16.345 -0.1868  0.2646 -0.0889
 5922TIP3    H139181   4.694   2.140  16.412  0.2489  1.3710  0.1519
 5922TIP3    H239182   4.557   2.203  16.393 -0.4484 -0.2036 -0.2456
 5923TIP3   OH239183   5.959   5.897   4.030  0.7482 -0.0378  0.0151
 5923TIP3    H139184   5.897   5.930   4.095  1.8711  0.2116  0.9871
 5923TIP3    H239185   6.044   5.899   4.074  1.4329 -0.5439 -1.2262
 5924TIP3   OH239186   4.471   3.206   1.822 -0.3986 -0.3598 -0.4340
 5924TIP3    H139187   4.530   3.147   1.869 -1.4840 -0.5604  0.7020
 5924TIP3    H239188   4.501   3.202   1.731  0.6263 -1.3189 -0.0705
 5925TIP3   OH239189   1.130   1.312  11.143  0.2666  0.4938  0.6776
 5925TIP3    H139190   1.203   1.250  11.140 -0.6188 -0.5438 -0.1662
 5925TIP3    H239191   1.169   1.396  11.120  1.2085 -0.0441  0.2655
 5926TIP3   OH239192   2.471   5.761   3.340  0.0275  0.1937  0.0657
 5926TIP3    H139193   2.479   5.669   3.364 -1.2407  0.3192  1.0683
 5926TIP3    H239194   2.458   5.760   3.245  1.3660 -0.5573 -0.1292
 5927TIP3   OH239195   1.062   3.353  16.560 -0.2340  0.7293  0.0326
 5927TIP3    H139196   1.081   3.387  16.647  2.1810 -1.2389  0.3743
 5927TIP3    H239197   1.103   3.415  16.500 -0.0759  0.9775  0.3923
 5928TIP3   OH239198   1.944   6.663   4.800  0.0564  0.1116  0.1886
 5928TIP3    H139199   1.865   6.618   4.769 -1.2907  0.8290  2.3697
 5928TIP3    H239200   2.013   6.629   4.743 -1.5609 -1.5888 -0.9310
 5929TIP3   OH239201   2.365   5.155  14.044 -0.2412 -0.1035 -0.8591
 5929TIP3    H139202   2.423   5.147  14.120 -0.1387  0.2870 -0.8951
 5929TIP3    H239203   2.424   5.176  13.971 -0.3116 -0.6879 -1.0909
 5930TIP3   OH239204   5.655   3.953  12.957  0.3054  0.9120  0.5574
 5930TIP3    H139205   5.668   3.955  12.862  0.9742  0.0019  0.6124
 5930TIP3    H239206   5.643   3.860  12.977  0.8677  1.0277  1.4527
 5931TIP3   OH239207   0.906   2.388  16.539 -0.0676  0.1136 -0.0799
 5931TIP3    H139208   0.832   2.405  16.597 -0.5817  0.4080 -0.8181
 5931TIP3    H239209   0.953   2.471  16.536  1.0219 -0.3937  1.3662
 5932TIP3   OH239210   3.217   0.762   2.119  0.1599  0.3350  0.2159
 5932TIP3    H139211   3.266   0.697   2.068  2.2958  1.5970  0.5299
 5932TIP3    H239212   3.285   0.817   2.159 -1.5075  3.2001 -0.5920
 5933TIP3   OH239213   4.186   2.186   4.384  0.0452  0.3841 -0.2158
 5933TIP3    H139214   4.167   2.121   4.452  1.0379 -0.5820 -0.8305
 5933TIP3    H239215   4.100   2.205   4.345 -0.2377 -0.7181 -0.1623
 5934TIP3   OH239216   0.001   2.893   1.411 -0.4424  0.1318 -0.4231
 5934TIP3    H139217   0.082   2.944   1.410 -1.1134  1.2319 -1.8044
 5934TIP3    H239218   0.010   2.833   1.337 -0.3262 -0.6985  0.2507
 5935TIP3   OH239219   6.727   6.122   3.953 -0.2137 -0.3867 -0.5229
 5935TIP3    H139220   6.766   6.115   3.866  2.4637 -0.5563  0.5738
 5935TIP3    H239221   6.796   6.092   4.013 -1.9502 -0.2968  1.6680
 5936TIP3   OH239222   1.054   2.418  12.518  0.5175 -0.7978  0.4983
 5936TIP3    H139223   1.037   2.509  12.540 -0.4612 -0.1895 -2.4613
 5936TIP3    H239224   0.980   2.370  12.556  0.3007 -0.2067  0.8322
 5937TIP3   OH239225   1.829   0.912   0.194  0.4159  0.7300  0.6446
 5937TIP3    H139226   1.864   0.880   0.277  0.0830  0.8774  0.8421
 5937TIP3    H239227   1.744   0.869   0.186 -0.7412  2.6999  1.6516
 5938TIP3   OH239228   1.515   2.894   3.433 -0.1867 -0.1638 -0.4431
 5938TIP3    H139229   1.439   2.866   3.485 -1.0188  1.0729 -0.9491
 5938TIP3    H239230   1.591   2.867   3.485 -0.9592 -1.2188  0.1843
 5939TIP3   OH239231   5.328   6.336  14.252  0.5484 -0.1660 -0.1718
 5939TIP3    H139232   5.405   6.329  14.194  0.1722  1.2349 -0.8707
 5939TIP3    H239233   5.359   6.386  14.327 -0.2010  2.5118 -1.5271
 5940TIP3   OH239234   4.067   3.469  12.128  0.2674  0.4749  1.0992
 5940TIP3    H139235   4.056   3.377  12.105 -2.0415  1.1823 -1.0696
 5940TIP3    H239236   4.150   3.495  12.088 -0.6241  0.0684 -1.1232
 5941TIP3   OH239237   6.122   5.372   4.620 -0.1225 -0.4411  0.6937
 5941TIP3    H139238   6.104   5.348   4.529 -0.6014  0.7841  0.4376
 5941TIP3    H239239   6.049   5.336   4.670 -1.2769  1.0803  0.2035
 5942TIP3   OH239240   4.120   2.048   0.003 -0.1856  0.1441 -0.2561
 5942TIP3    H139241   4.212   2.024  -0.014 -0.1450 -0.7332  1.1086
 5942TIP3    H239242   4.100   2.009   0.088 -1.6745  0.7867 -0.2858
 5943TIP3   OH239243   3.944   5.937   1.194  0.0379  0.5041 -1.4091
 5943TIP3    H139244   4.036   5.924   1.169  0.4167 -1.1063  0.5539
 5943TIP3    H239245   3.949   5.971   1.283 -1.2602 -0.1852 -1.0510
 5944TIP3   OH239246   4.920   5.367  13.807  0.4175 -0.4717  0.1742
 5944TIP3    H139247   4.923   5.442  13.748  0.8159  0.7240  1.6585
 5944TIP3    H239248   4.980   5.303  13.767  0.9527  0.4417 -0.5254
 5945TIP3   OH239249   3.670   4.163   5.636 -0.3654  0.4705  0.0180
 5945TIP3    H139250   3.686   4.090   5.576  1.3111  0.3784  0.5214
 5945TIP3    H239251   3.586   4.143   5.677 -0.7069 -0.3336 -1.0175
 5946TIP3   OH239252   5.834   5.209   4.575 -0.2331 -0.1237  0.6267
 5946TIP3    H139253   5.882   5.160   4.508 -1.3268  0.1804 -0.4208
 5946TIP3    H239254   5.890   5.205   4.653  0.8617 -0.8725 -0.1686
 5947TIP3   OH239255   5.902   0.362   1.725  0.4432  0.2617  0.1490
 5947TIP3    H139256   5.877   0.453   1.742 -1.9140  0.0314 -1.4956
 5947TIP3    H239257   5.926   0.361   1.633  2.8474 -0.3873  0.7213
 5948TIP3   OH239258   4.172   4.596   3.372  0.2816 -0.5767 -0.1352
 5948TIP3    H139259   4.177   4.690   3.353  0.0444 -0.5061  0.1462
 5948TIP3    H239260   4.115   4.561   3.304  0.0797 -0.4565 -0.0277
 5949TIP3   OH239261   5.776   4.403  13.125 -0.8556 -0.1976 -0.9529
 5949TIP3    H139262   5.710   4.409  13.193  1.9561 -2.8171  2.3586
 5949TIP3    H239263   5.774   4.312  13.097  2.3925 -0.9269  0.6832
 5950TIP3   OH239264   4.026   3.695   0.378  0.1263  0.4406 -0.4019
 5950TIP3    H139265   4.060   3.749   0.307  1.8248 -1.2192 -0.9272
 5950TIP3    H239266   4.085   3.712   0.451  1.8078 -1.8926 -1.0924
 5951TIP3   OH239267   2.265   3.867   1.489 -0.3816  0.1608 -0.5604
 5951TIP3    H139268   2.203   3.916   1.434 -0.4680  1.4195  0.6139
 5951TIP3    H239269   2.214   3.793   1.521 -1.3345  1.2045  0.4283
 5952TIP3   OH239270   0.971   1.581   1.701 -0.1061 -0.1220 -0.1855
 5952TIP3    H139271   1.051   1.533   1.720 -0.0823 -0.3358 -0.7934
 5952TIP3    H239272   1.000   1.662   1.658 -0.0802  0.9789  1.8212
 5953TIP3   OH239273   5.175   5.190  14.244  0.2476  0.1229 -1.1361
 5953TIP3    H139274   5.211   5.158  14.326 -0.8859 -0.0380 -0.6912
 5953TIP3    H239275   5.195   5.283  14.244 -0.7405  0.3574 -0.1225
 5954TIP3   OH239276   1.891   3.614  11.629  0.0620 -0.7109  0.0493
 5954TIP3    H139277   1.824   3.635  11.694 -0.0410  0.8311 -0.5081
 5954TIP3    H239278   1.862   3.659  11.549  0.8339 -1.5082 -0.7046
 5955TIP3   OH239279   4.501   6.360   3.874  0.4870 -0.3331  0.1878
 5955TIP3    H139280   4.510   6.389   3.783  1.3851  1.1391  0.7041
 5955TIP3    H239281   4.585   6.383   3.915  0.1626 -1.1182  1.3513
 5956TIP3   OH239282   6.289   4.483   1.201  0.3224 -0.0776 -0.5427
 5956TIP3    H139283   6.361   4.435   1.243  0.2876  1.0397  0.8694
 5956TIP3    H239284   6.268   4.431   1.123  1.3730 -1.4533  0.0411
 5957TIP3   OH239285   3.298   3.863  13.014  0.2239 -0.6031 -0.0270
 5957TIP3    H139286   3.204   3.860  13.027 -0.0514  0.4579 -1.5669
 5957TIP3    H239287   3.316   3.794  12.950  0.7413 -1.8016  1.3376
 5958TIP3   OH239288   4.404   0.961   2.342 -0.1880 -1.0784 -0.0082
 5958TIP3    H139289   4.412   1.038   2.286 -0.6559 -1.7450 -1.0242
 5958TIP3    H239290   4.477   0.904   2.315 -0.8632 -1.7346 -0.5108
 5959TIP3   OH239291   0.560   2.397  14.654  0.5294 -0.3231  0.0233
 5959TIP3    H139292   0.513   2.314  14.644  0.0986 -0.3482  1.8526
 5959TIP3    H239293   0.495   2.464  14.634 -0.0960 -0.3851  1.6408
 5960TIP3   OH239294   2.814   6.539   2.704 -0.3513  0.2899 -0.2386
 5960TIP3    H139295   2.891   6.489   2.677 -1.0557 -0.9757  0.0126
 5960TIP3    H239296   2.829   6.628   2.670  0.8530 -0.1346 -0.8462
 5961TIP3   OH239297   6.031   5.751  13.631 -0.0657  0.1190  0.3489
 5961TIP3    H139298   5.996   5.787  13.712  0.5433  1.1879  0.1696
 5961TIP3    H239299   6.092   5.683  13.659  0.6128  0.9032  0.8351
 5962TIP3   OH239300   5.474   0.404  14.295 -0.2009 -0.0248  0.1794
 5962TIP3    H139301   5.407   0.347  14.333 -0.7348  0.9025  0.6744
 5962TIP3    H239302   5.465   0.487  14.342  1.2707  0.1438  0.2213
 5963TIP3   OH239303   6.171   1.595  11.514  0.4438 -0.4688  0.2934
 5963TIP3    H139304   6.225   1.517  11.504  0.3564 -0.7771  1.9348
 5963TIP3    H239305   6.086   1.570  11.478 -0.1624 -1.8360  2.4620
 5964TIP3   OH239306   3.091   5.355  13.736 -0.1612 -0.1510 -0.0171
 5964TIP3    H139307   3.115   5.429  13.680  0.1305 -1.0297 -1.0770
 5964TIP3    H239308   3.173   5.330  13.780  0.6679 -2.1826 -2.4909
 5965TIP3   OH239309   3.380   3.991  13.291 -0.5099 -0.0321 -0.0935
 5965TIP3    H139310   3.401   4.065  13.348 -1.5993  0.8466 -0.7854
 5965TIP3    H239311   3.398   4.024  13.203  3.2155 -2.0396 -0.3028
 5966TIP3   OH239312   3.043   1.124  12.150  0.0118 -0.8252 -0.1359
 5966TIP3    H139313   3.108   1.061  12.120  0.6603 -0.5053  0.5551
 5966TIP3    H239314   2.960   1.091  12.117  0.0336 -3.1964  1.9562
 5967TIP3   OH239315   4.035   0.593   6.795  0.2942 -0.2473  0.0270
 5967TIP3    H139316   4.051   0.499   6.805 -0.7167 -0.5982 -1.4031
 5967TIP3    H239317   3.942   0.605   6.815  0.2829  0.3555 -0.3504
 5968TIP3   OH239318   3.173   1.200  10.807 -0.3949  0.3716  0.1697
 5968TIP3    H139319   3.139   1.111  10.807  1.2834 -0.3225  1.6520
 5968TIP3    H239320   3.261   1.193  10.844 -0.9822  2.8781  2.4342
 5969TIP3   OH239321   3.468   1.485   4.543  0.0558 -0.3144  0.5548
 5969TIP3    H139322   3.552   1.441   4.554 -0.5281 -1.3301  1.0030
 5969TIP3    H239323   3.489   1.561   4.488  1.1218 -0.9800  0.0034
 5970TIP3   OH239324   4.222   5.844  15.552 -0.0783 -0.0811  0.5484
 5970TIP3    H139325   4.215   5.775  15.486  1.4924 -1.8394  2.1217
 5970TIP3    H239326   4.311   5.879  15.542  0.1340 -0.2906  1.6596
 5971TIP3   OH239327   6.682   3.448  13.696 -0.1869 -0.8015 -0.5379
 5971TIP3    H139328   6.688   3.525  13.639 -0.5552 -0.8032 -0.5838
 5971TIP3    H239329   6.773   3.425  13.716 -0.0299 -1.1428 -1.5919
 5972TIP3   OH239330   6.194   4.680  15.325 -0.1202  0.0987 -0.2138
 5972TIP3    H139331   6.245   4.722  15.394 -1.4725  1.4619  0.0314
 5972TIP3    H239332   6.121   4.638  15.372 -2.1864  2.7098 -0.8044
 5973TIP3   OH239333   2.124   1.287  13.721  0.4944  0.0536  0.6628
 5973TIP3    H139334   2.180   1.358  13.754 -0.8765  1.1692  0.6684
 5973TIP3    H239335   2.125   1.222  13.790  1.2998  0.3175  0.9164
 5974TIP3   OH239336   2.530   0.014   1.568  0.0603 -0.1395 -0.0456
 5974TIP3    H139337   2.520   0.003   1.474  0.2078 -0.5363 -0.0190
 5974TIP3    H239338   2.623  -0.000   1.585  0.2814  1.2347 -0.0014
 5975TIP3   OH239339   2.272   1.434   2.625 -0.2612 -0.3065  0.4413
 5975TIP3    H139340   2.298   1.526   2.630  1.9089 -0.7693 -0.9843
 5975TIP3    H239341   2.196   1.435   2.567  0.1468  0.5225 -0.1052
 5976TIP3   OH239342   4.565   1.590   3.789  0.1574  0.8247 -0.0328
 5976TIP3    H139343   4.619   1.521   3.828 -1.2676 -0.4414 -0.1767
 5976TIP3    H239344   4.569   1.662   3.851  0.8527  0.2249  0.6390
 5977TIP3   OH239345   1.221   3.615   2.936 -0.0480  0.1476  0.0931
 5977TIP3    H139346   1.255   3.698   2.969 -0.3169  0.6707 -0.8860
 5977TIP3    H239347   1.144   3.597   2.989  0.3414  0.2218  0.6905
 5978TIP3   OH239348   5.228   5.207  16.639 -0.0882 -0.4305 -0.1349
 5978TIP3    H139349   5.288   5.273  16.604 -0.6153 -0.4569 -1.1096
 5978TIP3    H239350   5.144   5.228  16.600 -0.8530 -0.1118  1.5799
 5979TIP3   OH239351   1.675   0.564   5.961 -0.2856 -0.4521 -0.0503
 5979TIP3    H139352   1.611   0.496   5.985 -0.5899 -0.3710 -0.6178
 5979TIP3    H239353   1.632   0.646   5.985 -1.2263 -0.2596 -2.1531
 5980TIP3   OH239354   5.255   1.225  14.322 -0.6880 -0.4439 -0.0928
 5980TIP3    H139355   5.211   1.160  14.378 -0.0515 -1.6316 -0.9223
 5980TIP3    H239356   5.187   1.255  14.262 -1.4074  0.9291  1.3419
 5981TIP3   OH239357   1.359   3.651  17.318  0.4891 -0.0587  0.6825
 5981TIP3    H139358   1.388   3.719  17.378  1.3120 -0.8792  1.2353
 5981TIP3    H239359   1.406   3.669  17.236 -1.1391  1.4592  0.0179
 5982TIP3   OH239360   6.717   0.832  14.480 -0.3043  0.5552 -0.1817
 5982TIP3    H139361   6.650   0.828  14.412 -0.0922 -1.1427 -0.3240
 5982TIP3    H239362   6.707   0.751  14.530  1.7334  0.1686 -0.3063
 5983TIP3   OH239363   5.749   4.229  14.251  0.0474 -0.0183 -0.1895
 5983TIP3    H139364   5.773   4.247  14.160  0.0696 -0.5354 -0.2868
 5983TIP3    H239365   5.784   4.142  14.269 -1.6131 -0.7250 -0.2713
 5984TIP3   OH239366   3.957   3.732   1.046  0.0081 -0.3556 -0.2389
 5984TIP3    H139367   4.051   3.736   1.060  0.0388 -0.3105 -0.4511
 5984TIP3    H239368   3.920   3.717   1.133  0.1788  0.1875 -0.0686
 5985TIP3   OH239369   3.275   6.221  12.514  0.0599 -0.1176 -0.6440
 5985TIP3    H139370   3.361   6.203  12.551 -1.0667 -1.4572  1.5489
 5985TIP3    H239371   3.243   6.298  12.560 -0.8851 -1.1158  0.4596
 5986TIP3   OH239372   0.580   3.765  15.579  0.2876 -0.5547 -0.3173
 5986TIP3    H139373   0.571   3.709  15.656 -0.2969 -0.7738 -0.5392
 5986TIP3    H239374   0.662   3.739  15.539  1.3717  0.5777  1.0459
 5987TIP3   OH239375   0.126   6.529   3.696 -0.3290  0.2983  0.0860
 5987TIP3    H139376   0.087   6.566   3.775 -1.8785  1.0889 -1.0081
 5987TIP3    H239377   0.077   6.448   3.680  1.9216 -1.4683  1.5101
 5988TIP3   OH239378   5.169   1.705   6.035  0.0951 -0.4419 -0.2929
 5988TIP3    H139379   5.115   1.648   5.980  0.5101  0.3042 -1.5372
 5988TIP3    H239380   5.215   1.645   6.093 -2.2716 -1.0723  1.0456
 5989TIP3   OH239381   2.911   3.524   4.103 -0.0433 -0.4500 -0.4119
 5989TIP3    H139382   2.851   3.599   4.101  2.5183  1.7321 -0.5950
 5989TIP3    H239383   2.919   3.503   4.196  0.6286  0.7902 -0.1601
 5990TIP3   OH239384   0.974   1.296  11.376 -0.0020 -0.3342  0.1013
 5990TIP3    H139385   0.995   1.367  11.437  2.3425 -1.1261  0.3379
 5990TIP3    H239386   1.029   1.314  11.299  1.1503 -2.1880  0.4212
 5991TIP3   OH239387   2.493   6.118   2.003 -0.2455  0.5818 -0.5051
 5991TIP3    H139388   2.491   6.089   1.911 -1.6918  1.0097 -0.6311
 5991TIP3    H239389   2.421   6.072   2.045 -0.7443  1.7549 -0.0210
 5992TIP3   OH239390   1.221   3.093  13.742 -0.0512 -1.0127  0.3807
 5992TIP3    H139391   1.138   3.128  13.708  1.5863  0.7634 -2.1365
 5992TIP3    H239392   1.225   3.126  13.832 -1.8059 -0.6831  0.3806
 5993TIP3   OH239393   5.605   5.011  12.560  0.2391 -0.5077 -0.1262
 5993TIP3    H139394   5.557   4.972  12.487 -1.2464 -0.8187  0.9641
 5993TIP3    H239395   5.584   4.956  12.635  0.9629  0.3411  0.7319
 5994TIP3   OH239396   1.601   0.521   1.243  0.0921 -0.0731 -0.4226
 5994TIP3    H139397   1.646   0.490   1.321 -0.7094  0.7806  0.4141
 5994TIP3    H239398   1.522   0.467   1.238  0.0422  0.0080 -0.5227
 5995TIP3   OH239399   6.615   1.552   4.592 -0.3759 -0.6444  0.0206
 5995TIP3    H139400   6.689   1.516   4.543 -0.2749  0.7310 -0.8897
 5995TIP3    H239401   6.580   1.620   4.535  0.4389  1.8456  2.2789
 5996TIP3   OH239402   4.550   4.559  12.376 -0.6858  0.1321  0.6106
 5996TIP3    H139403   4.630   4.566  12.429  0.6366  1.3999 -1.4129
 5996TIP3    H239404   4.496   4.633  12.404  0.4851  1.4550 -0.4690
 5997TIP3   OH239405   2.014   6.280  13.808  0.0146 -0.0838  0.5384
 5997TIP3    H139406   1.985   6.260  13.896 -0.9671 -1.6245 -0.0995
 5997TIP3    H239407   1.947   6.338  13.773 -2.2180 -3.1464 -0.7187
 5998TIP3   OH239408   2.722   3.335   6.539 -0.0721  0.4194  0.7556
 5998TIP3    H139409   2.731   3.256   6.592  1.0497  0.9813  1.4369
 5998TIP3    H239410   2.670   3.395   6.593  0.1801  0.6077  0.7951
 5999TIP3   OH239411   4.662   2.535   3.701 -0.4596 -0.3041 -0.4382
 5999TIP3    H139412   4.659   2.440   3.697 -0.6742 -0.2874 -0.7262
 5999TIP3    H239413   4.756   2.556   3.695 -0.4497 -0.4772 -0.9057
 6000TIP3   OH239414   4.109   5.602  16.333  0.4361 -0.3594 -0.3264
 6000TIP3    H139415   4.186   5.547  16.350  2.1669  2.1553  0.6658
 6000TIP3    H239416   4.129   5.646  16.250  0.5296  0.9948  0.3944
 6001TIP3   OH239417   5.465   5.749  16.425  0.3414 -0.5748 -0.4543
 6001TIP3    H139418   5.528   5.801  16.375  1.5760 -1.7804 -0.2105
 6001TIP3    H239419   5.477   5.778  16.515 -1.1804  0.8844 -0.6673
 6002TIP3   OH239420   5.247   1.351  16.060 -0.2874 -0.0873 -0.1864
 6002TIP3    H139421   5.232   1.381  16.150 -0.9293 -1.6780  0.2651
 6002TIP3    H239422   5.248   1.256  16.066  1.4797 -0.2151 -1.5970
 6003TIP3   OH239423   1.538   5.117   0.035  0.6435 -0.7956 -0.0454
 6003TIP3    H139424   1.620   5.165   0.026  1.1333 -1.5248  0.4003
 6003TIP3    H239425   1.490   5.163   0.104  0.9958 -0.7789  0.1944
 6004TIP3   OH239426   0.757   1.185   1.514  0.4531 -0.1413 -0.3560
 6004TIP3    H139427   0.810   1.163   1.437  0.4671 -0.3838 -0.2782
 6004TIP3    H239428   0.776   1.116   1.577  2.0612  1.2005  0.6870
 6005TIP3   OH239429   3.611   3.884  13.773  0.2717 -0.0611 -0.5108
 6005TIP3    H139430   3.588   3.830  13.848  1.8709 -1.5154 -0.9954
 6005TIP3    H239431   3.527   3.904  13.731 -0.5242 -0.3654  0.8859
 6006TIP3   OH239432   4.989   3.887  11.868  0.6627 -0.6653  0.3352
 6006TIP3    H139433   4.933   3.810  11.861 -0.5248  0.1968 -0.1850
 6006TIP3    H239434   4.938   3.956  11.825  1.7264  0.3792  0.7163
 6007TIP3   OH239435   3.081   5.236   4.214 -0.2590  0.1555 -0.1727
 6007TIP3    H139436   3.096   5.327   4.237 -0.7313  0.4581 -1.0221
 6007TIP3    H239437   3.006   5.238   4.154  1.0775 -0.5489 -1.9643
 6008TIP3   OH239438   1.943   0.871   3.257  0.3350  0.0465 -0.5563
 6008TIP3    H139439   1.975   0.814   3.187  0.4994  1.4568 -1.6888
 6008TIP3    H239440   1.873   0.923   3.215 -1.9583 -1.3877  1.2388
 6009TIP3   OH239441   0.955   2.744   3.581 -0.7190 -0.2809  0.3401
 6009TIP3    H139442   1.006   2.736   3.501  0.1547 -1.4526  0.9749
 6009TIP3    H239443   0.902   2.665   3.583 -1.6123  0.3055  0.3462
 6010TIP3   OH239444   4.880   0.565  11.725 -0.2234 -0.1778  0.5119
 6010TIP3    H139445   4.902   0.641  11.670 -0.0119  1.1509  2.3291
 6010TIP3    H239446   4.916   0.587  11.811 -0.4644 -2.2151  1.1857
 6011TIP3   OH239447   5.926   0.270  12.320  0.3261 -0.1236  0.1465
 6011TIP3    H139448   5.991   0.220  12.370  1.5298 -0.2700 -1.4692
 6011TIP3    H239449   5.976   0.344  12.285 -0.5624  0.1900 -0.4941
 6012TIP3   OH239450   4.717   6.516   5.712  0.6486 -0.1698 -0.0055
 6012TIP3    H139451   4.684   6.597   5.751  0.3028  0.7484 -2.0421
 6012TIP3    H239452   4.791   6.491   5.767 -0.5221  0.3355  1.9057
 6013TIP3   OH239453   1.052   2.999   4.493 -0.1929 -0.4052  0.7533
 6013TIP3    H139454   1.105   2.921   4.511 -0.5234 -0.8517 -0.1373
 6013TIP3    H239455   1.042   2.999   4.398  2.7099  2.6017  0.2590
 6014TIP3   OH239456   0.627   6.304   3.496 -0.2452  0.2828 -0.5407
 6014TIP3    H139457   0.702   6.348   3.536  0.3145  0.5213 -1.8104
 6014TIP3    H239458   0.554   6.325   3.554  0.7286 -0.3534  0.9931
 6015TIP3   OH239459   5.942   2.314   4.624 -0.3988  0.0190  0.3839
 6015TIP3    H139460   6.003   2.251   4.664  0.3796  2.2093  2.9955
 6015TIP3    H239461   5.991   2.351   4.551 -0.2197 -1.0965 -0.0943
 6016TIP3   OH239462   4.165   2.458  16.035 -0.1083 -0.2528 -0.0177
 6016TIP3    H139463   4.234   2.503  15.987  0.9616 -1.1850  0.5902
 6016TIP3    H239464   4.086   2.471  15.982 -0.7103  4.9407  1.5881
 6017TIP3   OH239465   4.267   6.153   5.191  0.2411  0.0885 -0.0235
 6017TIP3    H139466   4.265   6.133   5.285  0.3657  0.2694  0.0167
 6017TIP3    H239467   4.337   6.218   5.182 -0.8345  1.2638 -0.0197
 6018TIP3   OH239468   5.515   0.391  16.586  0.5619  0.1286  0.1603
 6018TIP3    H139469   5.478   0.477  16.567 -0.2502 -0.6797 -2.3481
 6018TIP3    H239470   5.452   0.351  16.647  0.4347  0.9183  0.5642
 6019TIP3   OH239471   1.840   1.549   4.865 -0.3000  0.1754  0.4522
 6019TIP3    H139472   1.777   1.571   4.933 -0.7107 -1.5936  0.6926
 6019TIP3    H239473   1.795   1.569   4.783 -0.1838  1.3371  0.6481
 6020TIP3   OH239474   5.810   2.477  14.049 -0.6867 -0.3078  0.3084
 6020TIP3    H139475   5.776   2.541  13.986  0.6631 -0.0628 -0.2025
 6020TIP3    H239476   5.873   2.425  13.998  1.1145  0.4565  1.6326
 6021TIP3   OH239477   4.592   3.885   1.707  0.1742 -0.0840  0.0037
 6021TIP3    H139478   4.663   3.923   1.654  0.7823 -1.1861  0.0108
 6021TIP3    H239479   4.614   3.909   1.797 -0.3182  0.9225 -0.1320
 6022TIP3   OH239480   1.797   3.795  16.731 -0.2910  0.2031 -0.4768
 6022TIP3    H139481   1.846   3.727  16.685  2.5455  0.2993  2.0477
 6022TIP3    H239482   1.844   3.876  16.711 -0.2286  0.5276  0.8719
 6023TIP3   OH239483   3.822   2.437   2.102 -0.7899 -0.1328 -0.9287
 6023TIP3    H139484   3.837   2.354   2.055 -0.7466  0.8980 -2.8190
 6023TIP3    H239485   3.909   2.461   2.134 -0.4492  0.0571 -1.9437
 6024TIP3   OH239486   0.682   6.427   1.232  0.8048 -0.6693 -0.0874
 6024TIP3    H139487   0.611   6.367   1.254 -0.4663  0.4448 -0.9890
 6024TIP3    H239488   0.667   6.449   1.140  1.8587  0.2291 -0.0714
 6025TIP3   OH239489   0.073   5.357  16.423 -0.4238 -0.0329 -0.0738
 6025TIP3    H139490   0.065   5.373  16.329  1.1144 -1.3468 -0.4742
 6025TIP3    H239491  -0.016   5.366  16.456 -1.1326 -0.2933 -1.7813
 6026TIP3   OH239492   5.699   2.943   3.483 -0.7364 -0.1194  0.1983
 6026TIP3    H139493   5.623   2.948   3.425 -0.7649 -0.6342  0.1912
 6026TIP3    H239494   5.663   2.955   3.571 -0.8441 -0.4949  0.2056
 6027TIP3   OH239495   6.489   3.346  15.214 -0.2792  0.8694 -0.2136
 6027TIP3    H139496   6.466   3.438  15.208  2.6178  1.5977 -2.4333
 6027TIP3    H239497   6.568   3.337  15.161 -0.8566 -3.0734 -0.7447
 6028TIP3   OH239498   2.245   4.257  13.122  1.1688 -0.7351  0.0423
 6028TIP3    H139499   2.238   4.348  13.093  0.9257 -0.7147  0.1618
 6028TIP3    H239500   2.203   4.206  13.053 -0.8181 -0.5628  1.0572
 6029TIP3   OH239501   0.622   2.013   2.165  0.6842 -0.1008 -0.2945
 6029TIP3    H139502   0.532   1.982   2.158 -0.4415  3.1875 -3.3604
 6029TIP3    H239503   0.665   1.981   2.086  0.2960  3.1934 -2.0228
 6030TIP3   OH239504   6.032   3.398  13.665 -0.0596  0.0465  0.5266
 6030TIP3    H139505   5.967   3.427  13.729  0.6628 -0.3486  1.4808
 6030TIP3    H239506   6.018   3.303  13.659 -1.6791  0.3770 -1.7229
 6031TIP3   OH239507   5.106   4.421   3.218 -0.1312 -0.1708  0.0884
 6031TIP3    H139508   5.151   4.345   3.255 -0.9510 -0.4918  0.4319
 6031TIP3    H239509   5.146   4.431   3.131  1.5088  0.3332  0.8483
 6032TIP3   OH239510   2.356   2.385   2.431 -0.6292 -0.4556 -0.0240
 6032TIP3    H139511   2.408   2.312   2.397 -2.8269 -1.5290 -1.2759
 6032TIP3    H239512   2.405   2.463   2.406  0.0811 -1.3886 -1.7083
 6033TIP3   OH239513   6.363   2.764  16.741 -0.3619  0.1111 -0.5407
 6033TIP3    H139514   6.268   2.775  16.746 -0.4126 -0.5802  0.5148
 6033TIP3    H239515   6.375   2.681  16.696 -0.2714  0.0827 -0.4639
 6034TIP3   OH239516   6.067   1.207   0.040  0.6029 -0.1003  0.2102
 6034TIP3    H139517   6.018   1.288   0.024 -0.8105 -1.3282 -2.2081
 6034TIP3    H239518   6.142   1.235   0.094  0.2516  2.8192 -0.6318
 6035TIP3   OH239519   6.725   0.328   2.520  0.1080  0.5452  0.2678
 6035TIP3    H139520   6.678   0.372   2.590  0.0486 -0.5186  0.9230
 6035TIP3    H239521   6.686   0.361   2.440 -0.4935  1.0496  0.7595
 6036TIP3   OH239522   2.465   4.505  13.557 -0.2959 -0.0390 -0.1304
 6036TIP3    H139523   2.449   4.423  13.602  0.2882 -0.2682 -0.3288
 6036TIP3    H239524   2.421   4.496  13.472 -3.0225  1.1143  1.0520
 6037TIP3   OH239525   4.646   5.172   2.131  0.0671 -0.0733 -0.5329
 6037TIP3    H139526   4.661   5.078   2.139 -1.3803 -0.3369 -0.6596
 6037TIP3    H239527   4.723   5.212   2.173  0.7105 -1.2940 -0.5001
 6038TIP3   OH239528   4.194   3.759   4.130 -0.0618 -0.3274 -0.4210
 6038TIP3    H139529   4.217   3.678   4.176 -0.9004  0.4427  1.4287
 6038TIP3    H239530   4.124   3.798   4.183  1.0483  2.1494 -0.6432
 6039TIP3   OH239531   5.783   3.035   6.287 -0.3145 -0.0878 -0.3263
 6039TIP3    H139532   5.703   2.995   6.322  0.6180  0.2226  2.3511
 6039TIP3    H239533   5.853   2.976   6.313  0.5116  0.4771 -1.2089
 6040TIP3   OH239534   5.276   5.506   6.181 -0.3275 -0.0849  0.5814
 6040TIP3    H139535   5.215   5.452   6.131 -0.4143 -0.9311  1.5818
 6040TIP3    H239536   5.260   5.482   6.273  0.5323  0.7044  0.9503
 6041TIP3   OH239537   1.736   0.250  14.882 -0.8977 -0.1715 -0.5962
 6041TIP3    H139538   1.743   0.274  14.790  0.0265 -0.2400 -0.5481
 6041TIP3    H239539   1.655   0.292  14.912 -1.3090 -0.3151 -1.4849
 6042TIP3   OH239540   6.136   0.581   0.274  0.1712  0.4396 -0.1548
 6042TIP3    H139541   6.145   0.536   0.359 -0.5076  0.4474 -0.0687
 6042TIP3    H239542   6.217   0.630   0.264  0.4547  0.0695  0.2761
 6043TIP3   OH239543   5.223   4.011   5.749  0.0775 -0.7953  0.3141
 6043TIP3    H139544   5.258   4.036   5.834  1.2039  0.2959 -0.4308
 6043TIP3    H239545   5.139   3.968   5.769  1.6592 -3.2988  2.1536
 6044TIP3   OH239546   4.547   3.111  17.383  0.3288  0.2042  0.2335
 6044TIP3    H139547   4.520   3.201  17.400 -1.0834 -0.2596  0.5323
 6044TIP3    H239548   4.501   3.087  17.303 -0.0164 -0.5441  0.6525
 6045TIP3   OH239549   4.470   5.129   2.858  0.2450 -0.4463  0.6341
 6045TIP3    H139550   4.399   5.087   2.811  1.1542 -0.1714 -1.0548
 6045TIP3    H239551   4.549   5.105   2.810  0.8602  2.8205 -0.2514
 6046TIP3   OH239552   6.684   1.221  15.706  0.0027 -0.0725 -0.4172
 6046TIP3    H139553   6.720   1.219  15.617  0.8551 -0.6663 -0.0677
 6046TIP3    H239554   6.600   1.176  15.698 -0.4899  0.9435 -1.1527
 6047TIP3   OH239555   2.963   5.720   3.668  0.1865 -0.2766  0.0125
 6047TIP3    H139556   3.048   5.687   3.696  0.4189  0.2840 -0.0229
 6047TIP3    H239557   2.982   5.771   3.589 -0.2204 -0.3851 -0.1588
 6048TIP3   OH239558   4.572   2.500   0.593  0.0545  0.0060  0.2585
 6048TIP3    H139559   4.523   2.577   0.620 -0.0105  0.3420 -0.7593
 6048TIP3    H239560   4.523   2.426   0.628  1.3283  0.4456  3.2149
 6049TIP3   OH239561   5.380   2.374  13.948  0.5113 -0.1064  0.0081
 6049TIP3    H139562   5.322   2.403  13.877  0.4110  0.5606  0.3491
 6049TIP3    H239563   5.324   2.374  14.026  1.0606  0.9418  0.4198
 6050TIP3   OH239564   0.256   4.279  13.216  0.4602  0.0947 -0.6876
 6050TIP3    H139565   0.268   4.374  13.223 -0.9543  0.2724 -0.3823
 6050TIP3    H239566   0.260   4.248  13.307  3.5793 -0.5551 -0.9223
 6051TIP3   OH239567   1.656   5.272  15.487 -0.1694 -0.0329  0.3618
 6051TIP3    H139568   1.621   5.257  15.399  0.0623  0.3292  0.2061
 6051TIP3    H239569   1.689   5.362  15.485  0.2743 -0.1838  0.6750
 6052TIP3   OH239570   5.390   6.700  14.212  0.3095  0.4089 -0.2922
 6052TIP3    H139571   5.396   6.605  14.206  1.7176  0.3097  1.7267
 6052TIP3    H239572   5.419   6.731  14.126  0.2996 -0.9536 -0.8157
 6053TIP3   OH239573   2.891   2.027  17.261 -0.1541 -0.3768  0.3629
 6053TIP3    H139574   2.891   1.962  17.332 -1.8907 -0.7068  0.1058
 6053TIP3    H239575   2.875   1.976  17.182 -2.2481  0.3798  0.2354
 6054TIP3   OH239576   6.707   5.674   0.939 -0.1785 -0.7103 -0.2428
 6054TIP3    H139577   6.676   5.584   0.948 -1.8164 -0.0442  1.3906
 6054TIP3    H239578   6.633   5.728   0.968  1.0650  1.1396 -0.3399
 6055TIP3   OH239579   6.501   2.699   0.711  0.5508  0.2178 -0.1067
 6055TIP3    H139580   6.477   2.712   0.802 -0.3872  0.2188 -0.3350
 6055TIP3    H239581   6.464   2.774   0.665  0.1002 -0.3088 -0.6272
 6056TIP3   OH239582   3.361   1.194   5.304 -0.2275  0.0411 -0.0586
 6056TIP3    H139583   3.315   1.220   5.224 -0.1944 -0.9683 -0.4193
 6056TIP3    H239584   3.293   1.163   5.363 -0.3007  1.1938  0.4894
 6057TIP3   OH239585   4.620   1.610   5.119 -0.1978  0.7783 -0.0436
 6057TIP3    H139586   4.591   1.657   5.041 -0.1548  0.6835 -0.1158
 6057TIP3    H239587   4.582   1.522   5.110 -1.1656  1.1071  0.5973
 6058TIP3   OH239588   1.826   3.945  16.036 -0.2374  0.4560  0.4205
 6058TIP3    H139589   1.748   3.901  16.005  0.4176 -0.7680  0.4643
 6058TIP3    H239590   1.806   3.969  16.127 -1.6453  2.8383 -0.4263
 6059TIP3   OH239591   0.409   1.156  10.671  0.4051  0.3361  0.0416
 6059TIP3    H139592   0.441   1.072  10.703  0.6096  1.0954  1.9278
 6059TIP3    H239593   0.341   1.132  10.607  1.4698 -1.2468 -0.5693
 6060TIP3   OH239594   3.619   2.214  10.471 -0.4871  0.2099 -0.6358
 6060TIP3    H139595   3.637   2.264  10.551 -1.5662 -1.8387  0.9649
 6060TIP3    H239596   3.538   2.252  10.437 -1.9820 -1.0999  1.2470
 6061TIP3   OH239597   3.052   1.375   2.164 -0.3739 -0.0091 -0.2310
 6061TIP3    H139598   3.101   1.388   2.083  0.8508  1.2627  0.6687
 6061TIP3    H239599   2.961   1.389   2.139  0.0178  0.8215 -1.3074
 6062TIP3   OH239600   0.050   3.435   4.372  0.0596  0.0843  0.0787
 6062TIP3    H139601  -0.000   3.420   4.452  0.9365 -0.4490  0.5444
 6062TIP3    H239602   0.119   3.368   4.374 -2.3448 -2.8409 -3.2425
 6063TIP3   OH239603   5.636   3.396   0.371 -0.5914  0.1775  0.3673
 6063TIP3    H139604   5.617   3.373   0.462 -0.1518 -0.6181  0.2637
 6063TIP3    H239605   5.552   3.423   0.335 -1.0017 -0.6479  0.6808
 6064TIP3   OH239606   5.592   1.605   1.506  0.0275 -0.1762  0.3849
 6064TIP3    H139607   5.602   1.510   1.502  0.4071 -0.2196  1.9147
 6064TIP3    H239608   5.518   1.623   1.448 -1.1566 -1.6155  1.3614
 6065TIP3   OH239609   5.893   5.861  11.339 -0.1668  0.0394 -0.5414
 6065TIP3    H139610   5.918   5.855  11.431 -1.5868  2.5886  0.1013
 6065TIP3    H239611   5.940   5.789  11.296  0.8390 -0.9643  2.0792
 6066TIP3   OH239612   5.786   1.827   0.012  0.0567  0.0572 -0.2475
 6066TIP3    H139613   5.749   1.764  -0.050 -0.5907  0.1106  0.0809
 6066TIP3    H239614   5.877   1.836  -0.016 -0.0085 -0.5443 -0.6862
 6067TIP3   OH239615   2.984   2.396   4.129  0.1471 -0.2856  0.2473
 6067TIP3    H139616   2.943   2.428   4.209  2.2683 -2.2395  2.2733
 6067TIP3    H239617   3.050   2.462   4.108 -0.9598  0.6408 -0.4315
 6068TIP3   OH239618   5.916   1.549   6.171  0.0754  0.4905  0.3133
 6068TIP3    H139619   5.867   1.606   6.231 -1.5015 -0.6760  0.2153
 6068TIP3    H239620   5.918   1.464   6.215 -0.0647 -0.0839 -0.7446
 6069TIP3   OH239621   3.733   0.842  13.590 -0.0919  0.1854 -0.0189
 6069TIP3    H139622   3.659   0.858  13.530 -0.5443  2.2567  1.0038
 6069TIP3    H239623   3.801   0.805  13.534 -1.7789 -1.5891 -1.0544
 6070TIP3   OH239624   5.122   3.568   2.506 -0.3546  0.2339  0.1727
 6070TIP3    H139625   5.084   3.528   2.584  0.4008  0.8101  0.8527
 6070TIP3    H239626   5.153   3.654   2.535  1.5409 -0.2422 -0.3104
 6071TIP3   OH239627   2.389   3.478  13.668  0.4357 -0.1223 -0.2790
 6071TIP3    H139628   2.411   3.385  13.669 -0.3655 -0.3675 -1.8994
 6071TIP3    H239629   2.295   3.481  13.688  0.4924  0.3560 -0.0631
 6072TIP3   OH239630   4.713   4.939  15.328 -0.0126 -0.0172  0.4694
 6072TIP3    H139631   4.732   4.989  15.407 -1.4888  0.0499  0.8045
 6072TIP3    H239632   4.728   4.848  15.354 -2.0696 -0.1518  1.3706
 6073TIP3   OH239633   1.869   2.168  13.928  0.3501  0.0197  0.1391
 6073TIP3    H139634   1.957   2.130  13.925  0.3385  0.0237 -0.2247
 6073TIP3    H239635   1.831   2.134  14.009  1.4153  1.6124  1.3809
 6074TIP3   OH239636   1.937   2.850   3.224 -0.2023 -0.0912 -0.2899
 6074TIP3    H139637   1.842   2.844   3.230 -0.1587 -0.5285 -0.0062
 6074TIP3    H239638   1.968   2.831   3.313  0.3055 -3.3426 -1.0238
 6075TIP3   OH239639   1.243   0.695   5.403 -0.3190 -0.1890 -0.4537
 6075TIP3    H139640   1.183   0.683   5.477 -0.4230 -1.8417 -0.7688
 6075TIP3    H239641   1.198   0.655   5.329  0.9899 -1.0716 -0.7948
 6076TIP3   OH239642   1.219   6.154   3.341  0.2638 -0.5356 -0.5849
 6076TIP3    H139643   1.142   6.124   3.294  0.2537 -0.8455 -0.3746
 6076TIP3    H239644   1.261   6.217   3.282 -0.0556 -0.4943 -0.7681
 6077TIP3   OH239645   3.431   4.093   1.770 -0.5495  0.5499 -0.2307
 6077TIP3    H139646   3.476   4.048   1.698  0.2480  2.3415 -0.9179
 6077TIP3    H239647   3.353   4.040   1.787 -0.2254 -0.4601 -1.7311
 6078TIP3   OH239648   6.711   1.450   4.848  0.6171 -0.2259 -0.6646
 6078TIP3    H139649   6.712   1.379   4.784 -0.9841 -0.2615 -0.6864
 6078TIP3    H239650   6.671   1.523   4.803 -0.3126 -0.1778  0.1943
 6079TIP3   OH239651   4.246   3.503  16.526  0.2980  0.5411  0.0697
 6079TIP3    H139652   4.272   3.587  16.489  0.2162  0.3966 -0.3130
 6079TIP3    H239653   4.202   3.526  16.608  1.0179  0.8215  0.3875
 6080TIP3   OH239654   2.040   6.466  16.107  0.2846  0.0086 -0.0116
 6080TIP3    H139655   2.015   6.374  16.121 -0.4374  0.3080  0.7400
 6080TIP3    H239656   2.036   6.478  16.012  2.0087 -1.1827 -0.2843
 6081TIP3   OH239657   2.744   6.545  15.788 -0.1631  0.2641  0.4758
 6081TIP3    H139658   2.816   6.564  15.847 -1.1090  0.4256  1.6232
 6081TIP3    H239659   2.686   6.487  15.838 -1.3593  0.9959 -0.0117
 6082TIP3   OH239660   6.719   4.237   3.982  0.0198 -0.3396  0.7217
 6082TIP3    H139661   6.778   4.236   4.056 -0.0197  1.0349  0.7969
 6082TIP3    H239662   6.635   4.268   4.018  0.3779  1.8118 -0.0993
 6083TIP3   OH239663   1.634   4.761   3.431 -0.0208 -0.1021  0.3748
 6083TIP3    H139664   1.649   4.848   3.393 -1.1250  0.5136  1.2860
 6083TIP3    H239665   1.544   4.739   3.405  0.9053 -1.9410 -1.6200
 6084TIP3   OH239666   3.426   1.457  16.410 -0.2375  0.8998 -1.0251
 6084TIP3    H139667   3.462   1.539  16.446 -0.5287  0.9576 -0.8612
 6084TIP3    H239668   3.447   1.461  16.317  0.4088  0.8136 -0.8918
 6085TIP3   OH239669   5.067   0.176   0.822  0.1376 -0.3855  0.6759
 6085TIP3    H139670   5.040   0.160   0.732  2.8840  2.4758 -0.8500
 6085TIP3    H239671   5.156   0.141   0.827 -0.2038 -1.1375  2.5878
 6086TIP3   OH239672   6.558   5.160   1.044  0.7190 -0.0516 -0.0514
 6086TIP3    H139673   6.628   5.106   1.080 -0.2262 -1.0894  0.2923
 6086TIP3    H239674   6.489   5.097   1.023 -0.7001  1.0987  1.0296
 6087TIP3   OH239675   0.528   2.878   4.960  0.1870 -0.8860  0.3413
 6087TIP3    H139676   0.501   2.927   5.037 -1.4772 -2.7682  1.0427
 6087TIP3    H239677   0.492   2.926   4.886 -0.2352 -0.3216  0.9094
 6088TIP3   OH239678   3.781   6.277   2.948  0.0992  0.5194 -0.6564
 6088TIP3    H139679   3.860   6.227   2.970  0.2168  0.9680 -0.0326
 6088TIP3    H239680   3.808   6.368   2.958 -0.3330  0.6885 -1.0242
 6089TIP3   OH239681   0.524   2.057  14.674  0.2989  0.6677 -0.1640
 6089TIP3    H139682   0.502   1.974  14.630 -1.5987 -0.9598  3.4515
 6089TIP3    H239683   0.616   2.047  14.698  0.4523  0.2072 -0.9009
 6090TIP3   OH239684   2.993   1.093  11.616 -0.2523  0.3297 -0.4718
 6090TIP3    H139685   3.086   1.074  11.628 -0.5731  0.5667  3.8580
 6090TIP3    H239686   2.957   1.012  11.578  1.1511 -1.2899  1.4476
 6091TIP3   OH239687   6.716   4.330  12.756  0.4447 -0.2634  0.3992
 6091TIP3    H139688   6.743   4.407  12.707 -1.5112  0.8245  0.9315
 6091TIP3    H239689   6.773   4.260  12.723  0.6763  0.8696 -1.8218
 6092TIP3   OH239690   2.876   2.844   4.287 -0.2742 -0.3172  0.2488
 6092TIP3    H139691   2.903   2.754   4.301 -0.0132  0.1618  3.3428
 6092TIP3    H239692   2.783   2.846   4.312 -0.5109  0.1233 -0.6168
 6093TIP3   OH239693   1.403   2.193  11.885  0.5943 -0.0438  0.8222
 6093TIP3    H139694   1.339   2.122  11.882  1.0730 -0.4919  0.9875
 6093TIP3    H239695   1.443   2.185  11.972 -0.1578  1.1658  1.3062
 6094TIP3   OH239696   5.450   5.560  15.659  0.3840 -0.2972  0.2033
 6094TIP3    H139697   5.526   5.594  15.704  0.8963 -0.1916 -0.7168
 6094TIP3    H239698   5.485   5.504  15.590 -0.3188  0.6919 -0.9925
 6095TIP3   OH239699   6.368   2.995  17.221  0.0222 -0.3934 -0.0407
 6095TIP3    H139700   6.277   2.964  17.215 -0.3476  0.2171  1.7389
 6095TIP3    H239701   6.419   2.918  17.245 -0.0678 -0.6760 -0.7463
 6096TIP3   OH239702   2.569   1.408  13.855  0.1465  0.3134 -0.2530
 6096TIP3    H139703   2.646   1.465  13.860  0.0830  0.3379  0.7615
 6096TIP3    H239704   2.588   1.337  13.917 -0.4661  0.0914 -0.3129
 6097TIP3   OH239705   3.550   4.589   5.753  0.3650  0.4796 -0.3989
 6097TIP3    H139706   3.462   4.589   5.791  0.1141  0.8115 -0.9711
 6097TIP3    H239707   3.550   4.517   5.691  0.4237  0.6192 -0.5625
 6098TIP3   OH239708   2.021   4.025   0.782  0.2323 -0.3447  0.0064
 6098TIP3    H139709   2.103   4.027   0.732  0.5852  0.8664  0.5974
 6098TIP3    H239710   1.953   4.014   0.716  0.8586 -1.4133 -0.4891
 6099TIP3   OH239711   3.020   1.004  13.911  0.3954  1.1755 -0.0627
 6099TIP3    H139712   3.025   1.053  13.829  0.0563 -0.2583 -0.9778
 6099TIP3    H239713   2.958   1.054  13.964  0.1323  1.7934 -0.9176
 6100TIP3   OH239714   4.615   0.207   5.816  0.1824  0.1163  0.1167
 6100TIP3    H139715   4.562   0.174   5.743  1.2915  1.3186 -1.3216
 6100TIP3    H239716   4.685   0.142   5.825  1.6068  1.2701 -1.8150
 6101TIP3   OH239717   6.391   5.116  16.434  0.2335 -0.0366  0.0824
 6101TIP3    H139718   6.375   5.025  16.457  2.3323  0.4894  4.5370
 6101TIP3    H239719   6.476   5.115  16.389 -0.6712 -0.3594 -1.7243
 6102TIP3   OH239720   4.062   3.572   3.961  0.2299 -0.2229 -0.2157
 6102TIP3    H139721   4.122   3.540   3.893  0.2464 -0.5410 -0.0530
 6102TIP3    H239722   4.103   3.653   3.993 -0.5021  0.7237 -1.5814
 6103TIP3   OH239723   3.309   6.151  14.434 -0.0247 -0.1048 -0.6905
 6103TIP3    H139724   3.318   6.208  14.358  1.2545  0.0928 -0.4217
 6103TIP3    H239725   3.244   6.195  14.489 -2.3426 -1.1472 -2.4021
 6104TIP3   OH239726   0.436   4.624   5.746  0.0863  0.0774 -0.1342
 6104TIP3    H139727   0.372   4.671   5.800 -0.0523 -0.2903  0.0252
 6104TIP3    H239728   0.511   4.612   5.804  0.5523  1.0679 -0.5190
 6105TIP3   OH239729   3.166   0.246   3.576  0.4164  0.3926  0.7473
 6105TIP3    H139730   3.123   0.331   3.584  1.8813  1.3331 -0.6929
 6105TIP3    H239731   3.208   0.249   3.490  1.6164 -1.2576  1.2402
 6106TIP3   OH239732   4.290   4.041  14.365  0.4622  0.0342  0.1468
 6106TIP3    H139733   4.220   4.107  14.369  0.9859  0.6097 -0.0499
 6106TIP3    H239734   4.262   3.982  14.294  0.6473  0.8232 -0.5981
 6107TIP3   OH239735   5.476   1.899  11.927 -0.5381 -0.3363  0.0490
 6107TIP3    H139736   5.459   1.808  11.949 -0.5462  0.2357  2.7716
 6107TIP3    H239737   5.397   1.929  11.883 -0.1257 -1.8584 -1.8677
 6108TIP3   OH239738   2.880   6.433  12.375  0.3057  0.4825  0.0703
 6108TIP3    H139739   2.828   6.396  12.447  0.4687 -0.2705 -0.1899
 6108TIP3    H239740   2.853   6.525  12.371 -1.0611  0.1012 -0.1064
 6109TIP3   OH239741   2.276   5.423  13.913  0.3157  0.1221 -0.6756
 6109TIP3    H139742   2.336   5.361  13.954 -0.6569 -0.0458  0.5387
 6109TIP3    H239743   2.207   5.369  13.875  0.3082  0.3774 -1.0335
 6110TIP3   OH239744   2.911   2.278  12.374 -0.2008 -0.5471  0.7252
 6110TIP3    H139745   2.893   2.248  12.285  0.5437 -0.3398  0.5017
 6110TIP3    H239746   3.000   2.313  12.370 -1.1673  2.1243  0.8510
 6111TIP3   OH239747   1.704   5.265  14.018 -0.0751  0.2625 -0.1150
 6111TIP3    H139748   1.643   5.333  14.049  0.1040  0.3657  0.0106
 6111TIP3    H239749   1.743   5.302  13.939 -0.7058 -0.0960 -0.6017
 6112TIP3   OH239750   5.206   3.715   0.412 -0.4439 -0.5888 -0.3355
 6112TIP3    H139751   5.142   3.661   0.365 -0.2817 -0.1668 -1.0581
 6112TIP3    H239752   5.171   3.722   0.501 -0.8748 -1.2092 -0.4476
 6113TIP3   OH239753   4.320   2.014   2.927 -0.4801 -0.0156  0.1093
 6113TIP3    H139754   4.242   1.959   2.941 -0.8291  0.6148  0.7704
 6113TIP3    H239755   4.375   1.996   3.003 -0.6368  0.6069  0.3728
 6114TIP3   OH239756   0.433   4.720   0.788  0.0465 -0.2825  0.2455
 6114TIP3    H139757   0.433   4.732   0.883  0.2683  1.9604  0.0076
 6114TIP3    H239758   0.522   4.693   0.767  0.1454 -0.2601  0.6327
 6115TIP3   OH239759   3.021   6.526  13.034  0.2761  0.2259 -0.4336
 6115TIP3    H139760   3.116   6.515  13.045 -0.0168 -0.2382  2.5611
 6115TIP3    H239761   2.983   6.447  13.073 -1.3849  1.0762 -0.2330
 6116TIP3   OH239762   2.945   2.953  15.918 -0.6363  0.3276  0.1053
 6116TIP3    H139763   3.025   2.979  15.965  1.0852  0.9127 -2.8982
 6116TIP3    H239764   2.971   2.875  15.868 -1.3006  1.6106 -2.3890
 6117TIP3   OH239765   4.280   6.661   1.765  0.1331  0.4094  0.2575
 6117TIP3    H139766   4.283   6.680   1.671 -0.9967  1.2790  0.3757
 6117TIP3    H239767   4.213   6.594   1.774 -1.0411  1.5788  0.5989
 6118TIP3   OH239768   3.758   6.222   1.466  0.0492 -0.0560 -0.3803
 6118TIP3    H139769   3.716   6.163   1.404 -0.6716 -0.7937  0.7709
 6118TIP3    H239770   3.784   6.167   1.539 -0.4991  0.9965  0.6560
 6119TIP3   OH239771   3.525   6.325   1.767 -0.0564  0.7659  0.4013
 6119TIP3    H139772   3.614   6.354   1.749 -0.3865  2.0903  0.7736
 6119TIP3    H239773   3.483   6.400   1.810 -1.2098  0.0047  0.6711
 6120TIP3   OH239774   4.870   5.245   2.262  0.3418 -0.2610  0.0550
 6120TIP3    H139775   4.864   5.335   2.293 -0.8975  0.5327 -2.2865
 6120TIP3    H239776   4.954   5.240   2.218 -0.4033  0.3825 -1.5108
 6121TIP3   OH239777   1.934   1.471  16.882 -0.5489 -0.4006 -0.0604
 6121TIP3    H139778   1.845   1.437  16.881 -1.4029  1.6028 -1.7901
 6121TIP3    H239779   1.976   1.431  16.806  0.1282 -1.4787  0.8523
 6122TIP3   OH239780   0.185   3.571   6.193 -0.0191 -0.2515  0.6253
 6122TIP3    H139781   0.241   3.531   6.126 -1.9551  0.6352 -1.6678
 6122TIP3    H239782   0.235   3.646   6.225  0.9132 -0.6355  0.1000
 6123TIP3   OH239783   3.954   0.986  13.975  0.5110  0.1619 -0.1070
 6123TIP3    H139784   3.860   0.979  13.958  0.4333  1.2806 -0.2232
 6123TIP3    H239785   3.995   0.940  13.902  0.0575 -2.9361  1.4056
 6124TIP3   OH239786   0.997   2.271  14.729  0.0706 -0.0914  0.1313
 6124TIP3    H139787   0.919   2.273  14.784  0.3966  2.4933  0.6280
 6124TIP3    H239788   0.974   2.326  14.654  1.4489  0.8710  0.3788
 6125TIP3   OH239789   2.215   0.417   2.905  0.1012  0.7390  0.4136
 6125TIP3    H139790   2.137   0.444   2.952  0.2034  0.1278  0.9615
 6125TIP3    H239791   2.247   0.341   2.954  0.3853  0.2716 -0.4739
 6126TIP3   OH239792   6.601   4.623  14.978 -0.3804 -0.4903 -0.0718
 6126TIP3    H139793   6.519   4.640  15.025 -0.9600 -1.2263 -0.7841
 6126TIP3    H239794   6.586   4.540  14.933 -1.1526  1.6363 -4.2558
 6127TIP3   OH239795   0.713   3.720   5.332 -0.2413 -0.8201 -0.2834
 6127TIP3    H139796   0.680   3.783   5.268  1.2634 -0.6166 -0.9049
 6127TIP3    H239797   0.794   3.760   5.365 -0.6264 -1.2408  1.2583
 6128TIP3   OH239798   5.875   3.345  10.923 -0.0952 -0.0435  0.3276
 6128TIP3    H139799   5.927   3.268  10.899  0.6883  0.2424  1.0603
 6128TIP3    H239800   5.902   3.413  10.862 -2.5117 -0.9468 -1.9048
 6129TIP3   OH239801   2.993   0.846   3.892 -0.6687 -0.1305  0.8035
 6129TIP3    H139802   3.064   0.894   3.849 -1.0540  1.8922  2.2778
 6129TIP3    H239803   3.037   0.773   3.937  0.1788 -0.1474 -0.0383
 6130TIP3   OH239804   4.562   2.068   4.927  0.2729  0.3714  0.1921
 6130TIP3    H139805   4.551   1.973   4.929 -1.3780  0.3985 -2.6912
 6130TIP3    H239806   4.489   2.100   4.875 -0.1008  3.4480  2.3496
 6131TIP3   OH239807   5.948   3.367   0.748 -0.0506 -0.1442  0.5070
 6131TIP3    H139808   6.013   3.421   0.794 -1.5155  0.7464  1.6254
 6131TIP3    H239809   5.962   3.387   0.655  0.0533  1.4719  0.8397
 6132TIP3   OH239810   6.218   5.243   0.917  0.2197 -0.2399 -0.2533
 6132TIP3    H139811   6.293   5.273   0.865 -0.0273  0.9241  0.0498
 6132TIP3    H239812   6.149   5.227   0.852  0.0284  0.8555 -0.3363
 6133TIP3   OH239813   4.778   2.123   1.507 -0.5359 -1.2056  0.4620
 6133TIP3    H139814   4.757   2.050   1.566  1.3791 -1.4956  0.8403
 6133TIP3    H239815   4.872   2.136   1.518 -1.0931  2.8132  2.1233
 6134TIP3   OH239816   4.593   1.413   4.004 -0.6231  0.2126  0.2388
 6134TIP3    H139817   4.499   1.417   4.020 -0.7607 -0.7577 -0.2253
 6134TIP3    H239818   4.610   1.320   3.988  0.3062  0.4611 -0.2732
 6135TIP3   OH239819   1.939   4.313   2.692  0.4803 -0.4231 -0.2580
 6135TIP3    H139820   1.940   4.409   2.696 -1.0555 -0.3969 -0.0773
 6135TIP3    H239821   2.016   4.287   2.743  1.8286  0.7111 -1.6162
 6136TIP3   OH239822   5.481   5.785   3.761  0.6423  0.3434  0.0461
 6136TIP3    H139823   5.500   5.876   3.785 -0.1171  1.1019 -1.9480
 6136TIP3    H239824   5.566   5.741   3.763  1.5787  1.9014 -1.9115
 6137TIP3   OH239825   4.257   3.927  12.966 -0.8055 -0.2804  0.0982
 6137TIP3    H139826   4.240   4.021  12.971 -0.6221 -0.2657  0.5264
 6137TIP3    H239827   4.192   3.888  13.024 -0.3411 -0.3447  0.5861
 6138TIP3   OH239828   2.987   4.352   1.099  0.4267 -0.0917  0.2723
 6138TIP3    H139829   2.947   4.438   1.097 -0.3692 -0.3958  2.0662
 6138TIP3    H239830   2.925   4.295   1.054  1.4279  0.3791 -1.8843
 6139TIP3   OH239831   0.073   0.391  12.727  0.1267 -0.1408  0.2491
 6139TIP3    H139832   0.154   0.369  12.681 -0.2966 -1.1356 -0.0310
 6139TIP3    H239833   0.014   0.317  12.710 -0.7296  0.4142  0.7218
 6140TIP3   OH239834   5.635   1.679   3.717  0.3958  0.2272  0.3937
 6140TIP3    H139835   5.592   1.684   3.802 -1.3923  0.1640 -0.4536
 6140TIP3    H239836   5.575   1.725   3.657  0.8264 -1.0797 -1.1059
 6141TIP3   OH239837   3.122   3.295  13.298 -0.1533  0.0734  0.4171
 6141TIP3    H139838   3.033   3.311  13.267 -0.7591 -0.2989  1.9162
 6141TIP3    H239839   3.120   3.317  13.391  1.1073 -0.7321  0.6609
 6142TIP3   OH239840   3.240   2.132  15.612  0.5947 -0.0445  0.5262
 6142TIP3    H139841   3.331   2.140  15.583  0.0059  1.8855 -1.0440
 6142TIP3    H239842   3.190   2.187  15.550 -1.6942 -1.3624  1.0777
 6143TIP3   OH239843   2.492   4.647   3.916 -0.4931 -0.0428 -0.0983
 6143TIP3    H139844   2.550   4.613   3.848  0.2407 -0.9290  0.9370
 6143TIP3    H239845   2.487   4.741   3.899 -0.1657 -0.2230 -1.2429
 6144TIP3   OH239846   4.170   2.329  11.343  0.3517  0.0671  0.3913
 6144TIP3    H139847   4.261   2.349  11.363  0.6330  0.1656 -0.9131
 6144TIP3    H239848   4.130   2.413  11.320  0.0656 -0.0561  0.4262
 6145TIP3   OH239849   6.524   3.850  17.249 -0.3396 -0.3975 -0.1439
 6145TIP3    H139850   6.454   3.897  17.203  0.3283 -1.5768 -2.5354
 6145TIP3    H239851   6.595   3.913  17.255 -1.0334  0.3115  0.8775
 6146TIP3   OH239852   3.228   6.691  11.501  0.0424  0.3698 -0.0789
 6146TIP3    H139853   3.258   6.699  11.410  3.8718  1.5595  1.1064
 6146TIP3    H239854   3.154   6.752  11.506  1.2653  2.1556 -1.8838
 6147TIP3   OH239855   4.884   5.569  13.625  0.0850 -0.1143 -0.4081
 6147TIP3    H139856   4.951   5.637  13.613  0.6134 -0.4787  0.4275
 6147TIP3    H239857   4.877   5.527  13.539  2.3673 -1.3681 -0.0651
 6148TIP3   OH239858   5.587   4.245   0.503 -0.0718 -0.6835 -0.2389
 6148TIP3    H139859   5.640   4.174   0.467  0.3470 -1.1792  1.2673
 6148TIP3    H239860   5.508   4.201   0.536  0.0677 -0.4202  0.4555
 6149TIP3   OH239861   1.172   3.217  13.347 -0.1173  0.1091 -0.4375
 6149TIP3    H139862   1.216   3.195  13.265 -2.1142 -0.0310 -1.5358
 6149TIP3    H239863   1.106   3.149  13.358 -1.5171  1.4841 -0.0339
 6150TIP3   OH239864   1.863   3.565   1.462 -0.9310 -0.0024 -0.0999
 6150TIP3    H139865   1.789   3.600   1.414 -1.2113 -0.5352 -0.0698
 6150TIP3    H239866   1.824   3.520   1.537 -0.7272 -1.7153 -0.9526
 6151TIP3   OH239867   2.352   6.671  11.460 -0.5484 -0.2945 -0.1250
 6151TIP3    H139868   2.323   6.710  11.377  1.1831 -0.0222 -0.6457
 6151TIP3    H239869   2.291   6.598  11.475 -0.5784 -0.7011 -1.9433
 6152TIP3   OH239870   3.975   3.439   1.850 -0.1745  0.6449  0.2231
 6152TIP3    H139871   4.014   3.379   1.914  0.8530  1.2657  0.2020
 6152TIP3    H239872   3.897   3.472   1.894 -0.6808 -0.5900  0.2887
 6153TIP3   OH239873   1.947   5.361  12.095  0.0703 -0.6897  0.4027
 6153TIP3    H139874   2.040   5.348  12.079  0.3506  3.3888 -2.9415
 6153TIP3    H239875   1.905   5.338  12.012 -1.7746 -1.1417  1.3999
 6154TIP3   OH239876   5.829   4.429   5.014 -0.2833  0.1439 -0.0202
 6154TIP3    H139877   5.830   4.524   5.018 -0.0892  0.1641 -0.4939
 6154TIP3    H239878   5.796   4.409   4.926 -2.5912 -0.2476  0.8492
 6155TIP3   OH239879   1.565   3.592   1.046  0.0113 -0.6604 -0.1790
 6155TIP3    H139880   1.558   3.568   1.138 -1.3790  2.7970  0.7704
 6155TIP3    H239881   1.656   3.573   1.023  0.0233 -2.9419  1.3800
 6156TIP3   OH239882   4.009   5.208  17.300 -0.2910  0.0688  0.3191
 6156TIP3    H139883   4.097   5.171  17.305 -1.1485 -1.9590  2.0211
 6156TIP3    H239884   3.964   5.154  17.235 -0.4438  0.7380 -0.1352
 6157TIP3   OH239885   4.792   3.015  17.305 -0.3435  0.1035  0.9837
 6157TIP3    H139886   4.705   3.016  17.343 -0.5855 -1.8353  0.5848
 6157TIP3    H239887   4.777   3.029  17.211 -0.2789 -0.6344  0.8574
 6158TIP3   OH239888   2.827   5.423  11.418 -0.6499  0.6277 -0.2822
 6158TIP3    H139889   2.735   5.395  11.412 -1.0022  1.5454  0.6504
 6158TIP3    H239890   2.873   5.364  11.358 -1.8245  0.0729 -0.6785
 6159TIP3   OH239891   2.750   0.069   5.650  0.9890 -0.5651  0.4009
 6159TIP3    H139892   2.703   0.066   5.733 -0.1386  0.2997 -0.1855
 6159TIP3    H239893   2.784   0.159   5.645  1.5767 -0.7896  0.1942
 6160TIP3   OH239894   0.045   6.040   4.429  0.0896  0.5482 -0.2187
 6160TIP3    H139895   0.024   5.949   4.406  0.9636  0.5589 -1.1067
 6160TIP3    H239896   0.132   6.035   4.469 -0.2738  0.8851  0.6453
 6161TIP3   OH239897   4.311   1.129   5.499  0.6492  0.2207 -0.2072
 6161TIP3    H139898   4.280   1.156   5.585  1.7121  2.1133 -0.3763
 6161TIP3    H239899   4.271   1.043   5.485 -0.9946  0.6815  1.3749
 6162TIP3   OH239900   5.323   5.329   2.959 -0.1261  0.4749 -0.6758
 6162TIP3    H139901   5.261   5.378   3.014  0.0107  0.6406 -0.6668
 6162TIP3    H239902   5.272   5.257   2.923 -0.0933  0.0859  0.0526
 6163TIP3   OH239903   6.609   4.162  10.921  0.3495 -0.1355 -0.0052
 6163TIP3    H139904   6.561   4.116  10.852 -0.5706 -0.0823  0.5864
 6163TIP3    H239905   6.617   4.252  10.890 -2.2335  0.5222  0.9806
 6164TIP3   OH239906   4.642   4.614   3.911 -0.0716  0.2834 -0.2451
 6164TIP3    H139907   4.617   4.526   3.939  0.1682 -0.2183 -1.5807
 6164TIP3    H239908   4.710   4.640   3.974 -0.4412 -0.3032  0.4168
 6165TIP3   OH239909   5.468   0.684   3.217  0.1248 -0.3412  0.0126
 6165TIP3    H139910   5.454   0.653   3.306  1.2451  1.8870  1.0516
 6165TIP3    H239911   5.514   0.767   3.228  0.0336  0.1403 -2.6466
 6166TIP3   OH239912   2.618   5.002  12.915 -0.1131  0.0446 -0.2449
 6166TIP3    H139913   2.689   5.056  12.950 -0.6548  1.3789 -1.1034
 6166TIP3    H239914   2.652   4.969  12.832 -0.6893  1.2070 -0.9673
 6167TIP3   OH239915   2.968   6.100   3.909 -0.3379  0.5235 -0.1816
 6167TIP3    H139916   3.022   6.098   3.830 -1.4248  0.7228 -0.9553
 6167TIP3    H239917   2.884   6.062   3.882 -0.8314  0.8742  0.8023
 6168TIP3   OH239918   1.580   0.092  12.912 -0.0960  0.0385  0.2966
 6168TIP3    H139919   1.636   0.023  12.947  1.3096  0.7620 -0.4396
 6168TIP3    H239920   1.561   0.148  12.987  2.1973  1.1157  0.1658
 6169TIP3   OH239921   2.894   1.810  16.733  0.1356  0.6281  0.1911
 6169TIP3    H139922   2.804   1.786  16.710  0.7316 -2.2237  0.3932
 6169TIP3    H239923   2.918   1.879  16.671 -1.0853 -0.9236 -2.1480
 6170TIP3   OH239924   3.995   4.878   4.890 -0.0322  0.0521 -0.1248
 6170TIP3    H139925   4.066   4.857   4.829 -0.4027 -0.2090 -0.4721
 6170TIP3    H239926   3.982   4.798   4.941 -0.3115 -0.0244 -0.3074
 6171TIP3   OH239927   2.976   0.513   5.253  0.2781 -0.3396  0.0784
 6171TIP3    H139928   3.015   0.553   5.331 -0.0140 -0.8281  0.4808
 6171TIP3    H239929   3.046   0.511   5.189  0.6687 -0.4113  0.5045
 6172TIP3   OH239930   3.032   0.540  17.067  0.2062 -0.2414 -0.0709
 6172TIP3    H139931   3.025   0.445  17.052  0.7197 -0.1167 -1.2487
 6172TIP3    H239932   3.032   0.577  16.979 -0.1829  0.8773  0.3894
 6173TIP3   OH239933   2.703   3.821  17.390 -0.3191 -0.4753 -0.1230
 6173TIP3    H139934   2.675   3.796  17.478  0.3918 -1.6326 -0.2105
 6173TIP3    H239935   2.661   3.757  17.332  1.7922 -1.7845 -0.3241
 6174TIP3   OH239936   0.281   6.012   4.608 -0.1113 -0.1321 -0.4191
 6174TIP3    H139937   0.342   6.048   4.673 -2.0078  0.8428  0.9448
 6174TIP3    H239938   0.249   5.931   4.648  1.4117 -1.5279 -1.8587
 6175TIP3   OH239939   3.690   1.156   0.900 -0.0581  0.1541 -0.4870
 6175TIP3    H139940   3.607   1.110   0.912  0.7069 -1.0260  0.4904
 6175TIP3    H239941   3.695   1.173   0.806 -0.7861 -0.9480 -0.7414
 6176TIP3   OH239942   2.858   4.882   2.357  0.3054  0.2628  0.4295
 6176TIP3    H139943   2.838   4.967   2.317 -1.6830  0.6746  2.1464
 6176TIP3    H239944   2.812   4.818   2.303 -0.7857  0.6239  0.9024
 6177TIP3   OH239945   3.907   1.976  12.143  0.1865  0.0113  0.0755
 6177TIP3    H139946   3.879   1.893  12.105 -1.2566  0.6356 -0.2859
 6177TIP3    H239947   3.905   2.038  12.070  0.8092  0.4597  0.4354
 6178TIP3   OH239948   5.449   1.973   5.414  0.4950 -0.5599 -0.3000
 6178TIP3    H139949   5.516   1.969   5.482  0.5731 -2.5172 -0.4394
 6178TIP3    H239950   5.372   1.934   5.454 -1.1175  2.8952  0.3359
 6179TIP3   OH239951   3.040   1.246   0.826  0.2961  0.0094 -0.7907
 6179TIP3    H139952   3.029   1.340   0.813 -2.6893 -0.0737  0.2227
 6179TIP3    H239953   2.986   1.207   0.757 -0.8394 -0.8297  0.5102
 6180TIP3   OH239954   0.279   5.422   3.961  0.1926 -0.3078  0.1916
 6180TIP3    H139955   0.290   5.328   3.943 -0.5919 -0.4092  0.2013
 6180TIP3    H239956   0.193   5.443   3.926  0.8209  0.6736 -0.7880
 6181TIP3   OH239957   0.636   1.987  13.660 -0.0758 -0.1594  0.1910
 6181TIP3    H139958   0.656   1.958  13.749  1.6311 -1.5930 -0.6019
 6181TIP3    H239959   0.610   2.079  13.671  2.3910  0.4329  1.9419
 6182TIP3   OH239960   2.329   2.896   1.930 -0.1949  0.2974 -0.0687
 6182TIP3    H139961   2.272   2.949   1.875  0.2800  0.2888 -0.5737
 6182TIP3    H239962   2.285   2.811   1.934  0.7133 -0.3302 -2.0653
 6183TIP3   OH239963   1.052   3.291  14.787  0.5687  0.0013 -0.0912
 6183TIP3    H139964   1.107   3.254  14.717  1.1149 -0.0581  0.3611
 6183TIP3    H239965   1.055   3.226  14.857  0.0946  0.0994  0.0207
 6184TIP3   OH239966   1.425   1.516   3.431 -0.2221 -0.3350 -0.7549
 6184TIP3    H139967   1.349   1.481   3.386 -0.4031 -2.2778  0.9282
 6184TIP3    H239968   1.496   1.454   3.412  0.2562  0.0194 -0.1712
 6185TIP3   OH239969   1.221   5.643   6.067  0.1567 -0.7115 -0.3967
 6185TIP3    H139970   1.280   5.672   6.137  0.5475  0.2351 -1.0907
 6185TIP3    H239971   1.208   5.721   6.013 -1.7837 -0.8798 -0.2549
 6186TIP3   OH239972   5.000   1.991  16.051  0.0094  0.1262 -0.3086
 6186TIP3    H139973   4.905   2.002  16.056  0.1270  1.4221 -0.5728
 6186TIP3    H239974   5.026   2.041  15.974  0.9499  0.0500 -0.0554
 6187TIP3   OH239975   0.138   2.217   3.779  0.3724 -0.0290  0.0793
 6187TIP3    H139976   0.146   2.123   3.762 -2.1830 -0.4527  0.8167
 6187TIP3    H239977   0.217   2.239   3.829  1.2391 -1.6675 -0.4938
 6188TIP3   OH239978   2.153   1.966  16.808 -0.0596  0.0319 -0.3734
 6188TIP3    H139979   2.086   1.983  16.742 -0.5088 -2.1304 -0.5387
 6188TIP3    H239980   2.129   2.024  16.881 -0.8155  0.8703 -1.2559
 6189TIP3   OH239981   4.266   2.929   1.483 -0.6889 -0.1779  0.4259
 6189TIP3    H139982   4.177   2.928   1.518 -0.1529  2.3713  2.1419
 6189TIP3    H239983   4.267   3.002   1.421  0.1102 -0.4308  0.1231
 6190TIP3   OH239984   4.974   6.560  12.071 -0.3693  0.1988 -0.5368
 6190TIP3    H139985   4.949   6.563  11.978  0.7379  1.6509 -0.8209
 6190TIP3    H239986   4.965   6.650  12.101  0.5474 -0.0136  0.4100
 6191TIP3   OH239987   2.474   2.360  13.753  0.3740  0.1341 -0.0977
 6191TIP3    H139988   2.450   2.321  13.669 -0.3238 -1.7600  0.9237
 6191TIP3    H239989   2.409   2.326  13.814  0.6861  1.7235  1.1759
 6192TIP3   OH239990   6.269   0.158  13.878 -0.4464 -0.0952  0.0763
 6192TIP3    H139991   6.319   0.135  13.800 -0.8676  0.0453 -0.2426
 6192TIP3    H239992   6.335   0.177  13.944 -0.0166  1.8846 -0.8417
 6193TIP3   OH239993   5.125   1.992  17.303 -0.2774 -0.2639 -0.0562
 6193TIP3    H139994   5.111   2.070  17.250 -0.2062 -0.5784 -0.5429
 6193TIP3    H239995   5.074   1.924  17.259  0.2910 -0.6779 -0.0797
 6194TIP3   OH239996   6.125   3.418  12.558 -0.2641  0.3072 -0.4426
 6194TIP3    H139997   6.153   3.360  12.629 -2.0226  0.6816  0.6567
 6194TIP3    H239998   6.206   3.446  12.516  0.6815 -2.3874 -0.6082
 6195TIP3   OH239999   0.400   5.450  11.194  0.0871 -0.0647  0.0092
 6195TIP3    H140000   0.327   5.487  11.145  0.8876 -0.4209 -1.5275
 6195TIP3    H240001   0.470   5.515  11.187  0.1420 -0.0227  0.8831
 6196TIP3   OH240002   1.250   2.047  13.332 -0.2183  0.2089  0.3148
 6196TIP3    H140003   1.219   2.052  13.242  2.2271 -0.8383 -0.6787
 6196TIP3    H240004   1.192   1.984  13.375  0.8503 -2.2702 -1.6537
 6197TIP3   OH240005   2.358   4.685   2.022 -0.1032 -0.1163 -0.3965
 6197TIP3    H140006   2.413   4.718   1.952 -1.1677  0.9330 -0.7681
 6197TIP3    H240007   2.386   4.735   2.099 -1.1895  1.1726 -0.7982
 6198TIP3   OH240008   4.735   4.235   2.079 -0.7145  0.5927  0.2473
 6198TIP3    H140009   4.792   4.306   2.110  0.5720 -1.2884  2.4977
 6198TIP3    H240010   4.660   4.236   2.139 -0.7636  0.1230  0.1964
 6199TIP3   OH240011   0.785   2.816   4.922  0.6057 -0.1575  0.0733
 6199TIP3    H140012   0.694   2.844   4.931  0.9186  0.8641  0.1580
 6199TIP3    H240013   0.813   2.852   4.838  1.4648  1.1030  0.8643
 6200TIP3   OH240014   3.288   5.003  14.282  0.3905  0.3359 -0.2780
 6200TIP3    H140015   3.372   4.962  14.266  0.9769  2.0135 -1.8276
 6200TIP3    H240016   3.288   5.023  14.376  1.9146  0.7017 -0.3366
 6201TIP3   OH240017   0.748   0.612  11.909 -0.1649  0.3848  0.4389
 6201TIP3    H140018   0.744   0.632  11.815  1.2177 -0.1739  0.2274
 6201TIP3    H240019   0.793   0.687  11.947  2.5372 -0.9100  0.0577
 6202TIP3   OH240020   2.700   2.118   3.794  0.5199 -0.3184  0.0857
 6202TIP3    H140021   2.699   2.197   3.848 -1.9896  0.6596 -1.1637
 6202TIP3    H240022   2.740   2.147   3.712 -1.7381  0.2177 -0.9285
 6203TIP3   OH240023   1.703   0.444  11.663 -0.5434 -0.7574 -0.0799
 6203TIP3    H140024   1.714   0.349  11.662 -2.3649 -1.0132 -0.0606
 6203TIP3    H240025   1.742   0.472  11.745  0.0295 -1.4916 -0.0973
 6204TIP3   OH240026   6.051   1.795  17.295  0.0218  0.1817 -0.1128
 6204TIP3    H140027   6.051   1.763  17.205 -1.9886 -1.6705  0.4779
 6204TIP3    H240028   6.122   1.747  17.338 -1.3500 -1.7415  0.1287
 6205TIP3   OH240029   5.459   1.241  12.684  0.0821 -0.0795  0.8759
 6205TIP3    H140030   5.438   1.177  12.616  0.5944  1.1071 -0.4463
 6205TIP3    H240031   5.497   1.188  12.755  1.1565 -1.1931 -0.4492
 6206TIP3   OH240032   3.862   1.673  11.472 -0.0449 -0.1541  0.2641
 6206TIP3    H140033   3.818   1.605  11.420 -0.0398  1.7954 -2.4641
 6206TIP3    H240034   3.800   1.692  11.543 -0.0903 -2.8157  1.0824
 6207TIP3   OH240035   0.629   4.816   1.413  0.0273 -0.0981  1.1523
 6207TIP3    H140036   0.694   4.844   1.478 -0.7248  0.0740  1.8443
 6207TIP3    H240037   0.621   4.722   1.426  1.0815 -0.3527  0.1752
 6208TIP3   OH240038   0.763   4.735  15.520 -0.6431 -0.0468  0.2858
 6208TIP3    H140039   0.710   4.812  15.503 -1.6003 -0.8660 -0.6298
 6208TIP3    H240040   0.792   4.744  15.611  1.0622  2.4115 -0.3980
 6209TIP3   OH240041   0.914   4.345  14.216  0.0647 -0.2035 -0.2002
 6209TIP3    H140042   0.938   4.298  14.296 -0.8889  0.3437  0.4340
 6209TIP3    H240043   0.949   4.433  14.227 -1.6379  0.4374  0.4906
 6210TIP3   OH240044   3.677   2.195  17.016 -0.5813  0.5530  0.2066
 6210TIP3    H140045   3.665   2.145  17.097 -1.1263 -0.2800 -0.3705
 6210TIP3    H240046   3.769   2.222  17.018 -0.2968 -0.4105  0.5696
 6211TIP3   OH240047   4.074   0.448   5.245 -0.3200  0.6276 -0.1772
 6211TIP3    H140048   4.007   0.381   5.263  2.6260 -2.8969 -1.1836
 6211TIP3    H240049   4.101   0.479   5.331 -0.8458 -0.4992  0.4105
 6212TIP3   OH240050   2.881   6.438   0.898  0.5036 -0.4961  0.3974
 6212TIP3    H140051   2.882   6.514   0.956  0.2621 -0.7750  0.7638
 6212TIP3    H240052   2.876   6.476   0.810  0.0822 -0.0901  0.5915
 6213TIP3   OH240053   1.312   4.805   6.000 -0.9345 -0.2349  0.1389
 6213TIP3    H140054   1.367   4.826   6.075 -0.7509 -0.5992  0.1057
 6213TIP3    H240055   1.323   4.711   5.987 -3.1065 -0.7300  1.3918
 6214TIP3   OH240056   5.776   6.672   5.891  0.2695 -0.2726 -0.3384
 6214TIP3    H140057   5.773   6.609   5.963 -0.4872 -0.2255 -0.3247
 6214TIP3    H240058   5.694   6.719   5.897  1.4992  1.9111  0.6916
 6215TIP3   OH240059   2.679   0.924  12.515 -0.1703 -0.2365  0.5850
 6215TIP3    H140060   2.718   0.905  12.601 -0.9468  0.0173  1.0021
 6215TIP3    H240061   2.714   1.010  12.491  0.4611 -0.5415  0.3991
 6216TIP3   OH240062   1.681   2.067  11.371  0.5556 -0.2444  0.2187
 6216TIP3    H140063   1.720   2.079  11.457  2.1383  1.1363 -0.6330
 6216TIP3    H240064   1.752   2.084  11.310 -0.7873 -0.1345 -1.3863
 6217TIP3   OH240065   3.457   1.877  14.214  0.0114 -0.0483  0.0514
 6217TIP3    H140066   3.501   1.796  14.238 -0.1872  0.2467  1.4857
 6217TIP3    H240067   3.364   1.855  14.212  0.0705 -0.2594 -1.3005
 6218TIP3   OH240068   5.725   4.247   5.521 -0.3088  0.0192 -0.0971
 6218TIP3    H140069   5.812   4.263   5.559 -0.4033 -0.1572  0.1969
 6218TIP3    H240070   5.664   4.284   5.585 -0.4686 -0.2448 -0.0969
 6219TIP3   OH240071   3.282   6.397   4.088  0.7117  0.5021 -0.1202
 6219TIP3    H140072   3.261   6.313   4.129  2.7208  0.5222  1.0458
 6219TIP3    H240073   3.293   6.458   4.161  2.3860  1.0207 -0.7697
 6220TIP3   OH240074   0.136   5.923  11.357 -0.3557  0.0026  0.0607
 6220TIP3    H140075   0.138   6.006  11.406  0.0592  0.3458 -0.5341
 6220TIP3    H240076   0.055   5.881  11.386 -0.0326  0.1173  1.1794
 6221TIP3   OH240077   5.433   2.334   4.939  0.4227  0.3529  0.6953
 6221TIP3    H140078   5.513   2.336   4.887  0.9822  0.8744  1.5543
 6221TIP3    H240079   5.363   2.347   4.875  0.8952 -1.4377 -0.2565
 6222TIP3   OH240080   4.883   1.977   4.738 -0.1175  0.1503  0.1282
 6222TIP3    H140081   4.822   1.904   4.738  1.0277 -0.8475  0.4137
 6222TIP3    H240082   4.934   1.966   4.658  0.1504  0.5525  0.2369
 6223TIP3   OH240083   5.937   6.426  15.596 -0.1329  0.6659  0.0183
 6223TIP3    H140084   5.957   6.517  15.575 -0.3809  0.7722  0.2348
 6223TIP3    H240085   5.864   6.431  15.658  1.0678  0.3740  1.4947
 6224TIP3   OH240086   1.308   2.582   5.101 -0.5104 -0.0264 -0.4976
 6224TIP3    H140087   1.292   2.560   5.009 -0.7528 -2.5919  0.0912
 6224TIP3    H240088   1.403   2.578   5.110 -0.5474 -1.0443 -0.3957
 6225TIP3   OH240089   2.032   3.778  15.238 -0.0520 -0.2859 -0.0667
 6225TIP3    H140090   1.964   3.730  15.285 -0.8592  0.4338 -0.4745
 6225TIP3    H240091   2.006   3.870  15.245  1.4188  0.1068  0.6240
 6226TIP3   OH240092   4.517   4.069   5.086 -0.4826  0.1154  0.2043
 6226TIP3    H140093   4.538   4.086   5.178 -0.4986  1.0731  0.0452
 6226TIP3    H240094   4.421   4.067   5.084 -0.5119  1.0961  0.0571
 6227TIP3   OH240095   0.631   0.479   3.065 -0.3738 -0.2408  0.3529
 6227TIP3    H140096   0.624   0.573   3.082  2.4356  0.2055 -0.5082
 6227TIP3    H240097   0.627   0.473   2.969 -0.5749 -1.0228  0.4085
 6228TIP3   OH240098   6.006   5.229  15.505  0.3105  0.0846  0.3306
 6228TIP3    H140099   5.936   5.200  15.564  0.3337 -1.4351 -0.3599
 6228TIP3    H240100   6.040   5.308  15.546 -1.4473  0.5615  0.9715
 6229TIP3   OH240101   1.074   3.983   2.286 -0.4346 -0.1194 -0.4063
 6229TIP3    H140102   1.168   3.991   2.270 -0.3662  1.4520  0.5620
 6229TIP3    H240103   1.067   3.913   2.351  0.2000  0.6116  0.4707
 6230TIP3   OH240104   3.188   0.356  13.741  0.0391 -0.6063  0.5843
 6230TIP3    H140105   3.108   0.407  13.736 -0.2832 -1.2137 -1.0192
 6230TIP3    H240106   3.187   0.318  13.829 -0.5428  0.7519  1.1916
 6231TIP3   OH240107   0.622   0.238  15.826  0.1520 -0.1729  0.1348
 6231TIP3    H140108   0.552   0.259  15.888 -0.1199  2.9029 -0.9975
 6231TIP3    H240109   0.636   0.144  15.835 -1.4441 -0.2289  3.1527
 6232TIP3   OH240110   3.161   1.349  11.532  0.3196  0.0926 -0.2505
 6232TIP3    H140111   3.175   1.287  11.461 -0.5936 -0.3667 -0.0482
 6232TIP3    H240112   3.065   1.354  11.541  0.3078  2.3530 -1.0005
 6233TIP3   OH240113   3.914   5.034  17.101 -0.0045 -0.2205 -0.1143
 6233TIP3    H140114   3.918   4.940  17.083  0.0805 -0.0715 -0.8726
 6233TIP3    H240115   3.882   5.073  17.020  0.0224  0.4170  0.1775
 6234TIP3   OH240116   5.915   4.156   0.239  0.4097  0.2744 -0.4383
 6234TIP3    H140117   6.005   4.142   0.210  1.0834  1.7294  0.8727
 6234TIP3    H240118   5.919   4.232   0.296 -1.6941  0.4740 -0.4887
 6235TIP3   OH240119   6.655   2.037  16.378  0.4693 -0.2080 -0.4116
 6235TIP3    H140120   6.607   2.078  16.306  0.0417 -1.1769 -0.6834
 6235TIP3    H240121   6.672   1.948  16.349  0.5245 -0.5326  0.5838
 6236TIP3   OH240122   0.536   2.707   3.676 -0.3811 -0.0855 -0.6222
 6236TIP3    H140123   0.556   2.798   3.652  0.7856  0.1811  1.1498
 6236TIP3    H240124   0.607   2.656   3.637 -0.7190 -0.1806 -1.1258
 6237TIP3   OH240125   4.256   6.027   2.386  0.0759  0.2897 -0.1775
 6237TIP3    H140126   4.255   5.986   2.472 -0.7321  0.6368 -0.0170
 6237TIP3    H240127   4.238   6.119   2.402  0.4083  0.4506 -0.6780
 6238TIP3   OH240128   4.081   1.854  16.657  0.1044  0.7345  0.4608
 6238TIP3    H140129   4.029   1.840  16.577 -1.1487 -0.8069  1.4842
 6238TIP3    H240130   4.147   1.785  16.656  1.5342  2.0494 -0.2974
 6239TIP3   OH240131   0.730   0.978   5.052  0.3093 -0.1309  0.3973
 6239TIP3    H140132   0.789   1.050   5.029 -0.2977  0.1334 -0.3700
 6239TIP3    H240133   0.748   0.910   4.987 -1.2117  0.5032 -0.7493
 6240TIP3   OH240134   4.970   2.863  12.618  0.0336  0.0143 -0.2546
 6240TIP3    H140135   4.995   2.772  12.631  2.0979  0.3463 -1.5344
 6240TIP3    H240136   5.008   2.909  12.694 -0.4009 -0.0670  0.0189
 6241TIP3   OH240137   4.906   6.599  11.010 -0.0777 -0.9908  0.3314
 6241TIP3    H140138   4.852   6.663  10.963  0.6396  0.3794  1.3154
 6241TIP3    H240139   4.944   6.544  10.942 -1.8436 -1.3270 -0.4518
 6242TIP3   OH240140   2.034   0.731  14.555 -0.4311  0.2278 -0.8766
 6242TIP3    H140141   2.089   0.788  14.501  1.1081 -1.6621 -1.3928
 6242TIP3    H240142   2.034   0.647  14.509 -0.4414 -0.9751  1.2083
 6243TIP3   OH240143   1.940   5.046   1.240  0.0040  0.1041  0.1964
 6243TIP3    H140144   1.863   5.013   1.286 -0.0115 -0.3351 -0.1450
 6243TIP3    H240145   1.917   5.136   1.217  0.0086  0.3255  1.0364
 6244TIP3   OH240146   6.376   5.251   5.968  0.1662 -0.0062  0.2633
 6244TIP3    H140147   6.298   5.282   6.014 -0.6602 -0.0044 -1.0891
 6244TIP3    H240148   6.417   5.189   6.028 -1.7114 -1.1649  0.4044
 6245TIP3   OH240149   2.096   5.755   0.618  0.0839 -0.8118  0.1191
 6245TIP3    H140150   2.153   5.777   0.544  2.3257 -4.2542  0.6003
 6245TIP3    H240151   2.098   5.832   0.673  1.8672  0.3017 -1.3715
 6246TIP3   OH240152   6.417   6.464  15.894 -0.5467  0.6238  0.4366
 6246TIP3    H140153   6.410   6.369  15.889  0.9108  0.5423 -2.4439
 6246TIP3    H240154   6.394   6.495  15.806 -2.4836  3.1274  1.6777
 6247TIP3   OH240155   6.583   2.356  11.315  0.5158  0.4115 -0.2074
 6247TIP3    H140156   6.591   2.260  11.316  0.6708  0.4261  0.1010
 6247TIP3    H240157   6.635   2.385  11.390 -1.2735  0.6096  1.0235
 6248TIP3   OH240158   3.975   4.418   2.266 -0.3126 -0.5341 -0.0377
 6248TIP3    H140159   3.986   4.510   2.241 -0.0556 -0.8798 -1.2944
 6248TIP3    H240160   4.037   4.405   2.338  0.6340 -0.0503 -0.7383
 6249TIP3   OH240161   0.765   3.364  12.230  0.1398  0.1644 -0.3318
 6249TIP3    H140162   0.807   3.374  12.145 -0.2257  3.8942 -0.2286
 6249TIP3    H240163   0.672   3.353  12.209  0.1669  0.1089 -0.4231
 6250TIP3   OH240164   4.896   3.841   3.815  0.0710 -0.0640  0.2892
 6250TIP3    H140165   4.893   3.750   3.787 -1.6968 -0.0510  0.3013
 6250TIP3    H240166   4.857   3.841   3.903 -2.1044  0.9381 -0.5921
 6251TIP3   OH240167   4.037   3.000  15.728 -0.4492 -0.2860  0.7955
 6251TIP3    H140168   4.036   3.093  15.706  1.0380  0.0935  2.1513
 6251TIP3    H240169   4.025   2.997  15.823  1.1123 -1.3423  1.0133
 6252TIP3   OH240170   3.128   2.527   2.724 -0.3395 -0.0275 -0.0175
 6252TIP3    H140171   3.040   2.490   2.714 -0.7976  1.2022 -0.7168
 6252TIP3    H240172   3.136   2.547   2.817  0.0194 -2.0631  0.4372
 6253TIP3   OH240173   0.321   3.100   2.363 -0.2743  0.3818  0.5225
 6253TIP3    H140174   0.344   3.016   2.325 -0.9721  0.6906 -0.6557
 6253TIP3    H240175   0.388   3.117   2.429  0.5284 -0.5488 -0.0381
 6254TIP3   OH240176   2.556   0.685   2.887  0.0916 -0.1013 -0.4490
 6254TIP3    H140177   2.644   0.712   2.913 -0.8837  1.5851  1.4205
 6254TIP3    H240178   2.546   0.717   2.798  1.2074  0.0925 -0.5193
 6255TIP3   OH240179   3.554   3.562  16.090 -0.2375  0.0810 -0.2854
 6255TIP3    H140180   3.468   3.533  16.059  0.7071 -1.9877 -1.1696
 6255TIP3    H240181   3.616   3.514  16.036  1.4921  1.1544  0.6649
 6256TIP3   OH240182   6.162   5.746  14.455 -0.2455  0.1409 -0.2510
 6256TIP3    H140183   6.249   5.723  14.420 -0.2650  0.5709 -0.5913
 6256TIP3    H240184   6.162   5.710  14.544 -0.7967 -2.4067 -1.1996
 6257TIP3   OH240185   4.484   2.809   1.964 -0.3617  0.0815  0.5691
 6257TIP3    H140186   4.452   2.818   1.875  0.3862  1.2598  0.4067
 6257TIP3    H240187   4.549   2.879   1.975  0.1665 -0.5468  1.7641
 6258TIP3   OH240188   1.674   0.354   2.149 -0.1212  0.2772 -0.6217
 6258TIP3    H140189   1.733   0.346   2.223  2.5807  0.7924 -2.5738
 6258TIP3    H240190   1.710   0.295   2.083 -2.8917 -0.7862 -1.3136
 6259TIP3   OH240191   0.794   0.786  17.025  0.1076  0.4120 -0.0901
 6259TIP3    H140192   0.879   0.762  16.990 -0.0678 -1.6235  0.7505
 6259TIP3    H240193   0.734   0.721  16.989 -0.8108  0.8491  0.6038
 6260TIP3   OH240194   1.266   1.348  16.374 -0.2213  0.4561  0.0921
 6260TIP3    H140195   1.212   1.393  16.439 -1.0492  0.0834 -0.3248
 6260TIP3    H240196   1.333   1.303  16.426 -1.4987 -0.7081  0.7845
 6261TIP3   OH240197   6.413   4.495  15.517  0.1476 -0.3829  0.4303
 6261TIP3    H140198   6.367   4.455  15.590 -0.3463  1.7287  1.3529
 6261TIP3    H240199   6.505   4.496  15.544  0.4394 -2.3162 -0.3302
 6262TIP3   OH240200   5.253   1.287   0.725  0.1283  0.0388  0.0356
 6262TIP3    H140201   5.321   1.312   0.787  0.5129  0.4522 -0.5445
 6262TIP3    H240202   5.269   1.193   0.710  0.9314  0.2515 -0.5222
 6263TIP3   OH240203   3.889   5.727   1.965 -0.3917 -0.9614 -0.0603
 6263TIP3    H140204   3.983   5.737   1.982 -0.6141 -0.2710  0.8335
 6263TIP3    H240205   3.857   5.816   1.952 -0.9371 -1.1904 -0.3390
 6264TIP3   OH240206   1.009   0.311  12.122 -0.4542 -0.3128  0.3930
 6264TIP3    H140207   1.068   0.236  12.115 -0.3159 -0.1439 -0.3137
 6264TIP3    H240208   1.048   0.378  12.065 -1.2357 -0.1435  0.0356
 6265TIP3   OH240209   3.072   5.575  14.970  0.1619  0.1969  0.1578
 6265TIP3    H140210   3.076   5.516  15.046 -0.9163  0.8694  0.7637
 6265TIP3    H240211   3.144   5.637  14.984  0.5900 -0.2788  0.1049
 6266TIP3   OH240212   6.660   2.933  15.112  0.1630 -0.7364 -0.2855
 6266TIP3    H140213   6.741   2.943  15.061 -1.4645 -0.5552 -3.0271
 6266TIP3    H240214   6.622   3.020  15.114  0.2775 -0.6831  1.5611
 6267TIP3   OH240215   2.435   5.833  10.599 -0.3543 -0.0622 -0.4908
 6267TIP3    H140216   2.516   5.805  10.556  0.3248  1.8131 -0.5294
 6267TIP3    H240217   2.365   5.802  10.540  0.3679 -0.9556 -0.9004
 6268TIP3   OH240218   2.470   3.923   1.842  0.5803  0.1558  0.5974
 6268TIP3    H140219   2.387   3.923   1.891  0.3848 -1.1610  0.2941
 6268TIP3    H240220   2.477   3.835   1.806  0.7100  1.0605 -1.7810
 6269TIP3   OH240221   3.491   3.351  11.354  0.1180 -0.2349 -0.5207
 6269TIP3    H140222   3.425   3.395  11.300  0.3807  0.9492  0.0823
 6269TIP3    H240223   3.439   3.305  11.421 -0.1404 -0.2055 -0.6985
 6270TIP3   OH240224   0.358   3.205   3.782  0.6762  0.0194 -0.2116
 6270TIP3    H140225   0.350   3.142   3.710  0.9211  1.0568 -1.1733
 6270TIP3    H240226   0.321   3.159   3.857 -0.5968 -0.7099 -1.2329
 6271TIP3   OH240227   4.941   5.792   1.694 -0.3326  0.1440  0.3314
 6271TIP3    H140228   4.848   5.792   1.718 -0.3302  1.1238  0.3930
 6271TIP3    H240229   4.978   5.865   1.743  0.4140 -0.0499  0.0704
 6272TIP3   OH240230   1.791   0.650  13.894  0.0537  0.4939  0.8716
 6272TIP3    H140231   1.845   0.689  13.826  0.4593 -0.8509  0.3939
 6272TIP3    H240232   1.752   0.724  13.939 -0.4193  1.4252 -0.9817
 6273TIP3   OH240233   1.002   1.570   3.469 -0.0184 -0.2015  0.0797
 6273TIP3    H140234   1.071   1.621   3.512  0.4286 -1.8970  1.4960
 6273TIP3    H240235   0.965   1.516   3.539 -0.7281 -1.5273 -1.2664
 6274TIP3   OH240236   5.845   1.014  13.816  0.1708 -0.0184 -0.5692
 6274TIP3    H140237   5.865   0.921  13.806 -0.2132 -0.1167 -0.4601
 6274TIP3    H240238   5.810   1.021  13.905 -1.2602 -0.0422 -1.1090
 6275TIP3   OH240239   3.869   1.755   5.198 -0.4363  0.2903 -0.4133
 6275TIP3    H140240   3.786   1.787   5.233 -1.7724 -1.8652 -1.3613
 6275TIP3    H240241   3.930   1.760   5.272 -1.6636  1.0301  0.5837
 6276TIP3   OH240242   4.020   4.737   2.584  0.1746  0.3251 -0.0635
 6276TIP3    H140243   4.104   4.783   2.582 -0.6046  2.0922  2.5314
 6276TIP3    H240244   3.970   4.775   2.512  0.7446  1.0785 -0.0798
 6277TIP3   OH240245   0.698   6.633   1.812 -0.0776  0.6431  0.0107
 6277TIP3    H140246   0.767   6.699   1.812  0.1186  0.4488  0.6209
 6277TIP3    H240247   0.725   6.570   1.746  0.6946  0.2074  0.7225
 6278TIP3   OH240248   5.883   1.451   0.077  0.2589  0.2149 -0.6377
 6278TIP3    H140249   5.793   1.447   0.110  0.3339  0.1462 -0.4427
 6278TIP3    H240250   5.874   1.484  -0.013 -0.1769 -1.9327 -1.4531
 6279TIP3   OH240251   3.552   2.910   0.704  0.4251 -0.6265  0.3355
 6279TIP3    H140252   3.486   2.949   0.647  1.2497 -0.2752 -0.4164
 6279TIP3    H240253   3.530   2.942   0.792  0.6678  1.0081 -0.1668
 6280TIP3   OH240254   3.133   3.247   4.277  0.3676  0.1139 -0.3116
 6280TIP3    H140255   3.038   3.256   4.271 -0.0052 -1.0804  2.5312
 6280TIP3    H240256   3.165   3.337   4.289 -0.8190  0.2705  2.3640
 6281TIP3   OH240257   2.786   3.678  12.458  0.3033  0.1889 -0.1497
 6281TIP3    H140258   2.785   3.765  12.419  0.1669  0.8801  1.3290
 6281TIP3    H240259   2.713   3.678  12.521 -0.1186 -1.2243 -0.5921
 6282TIP3   OH240260   0.183   2.522  12.013  0.5419  0.1635  0.3357
 6282TIP3    H140261   0.260   2.474  12.045  0.0698 -0.8702 -0.0223
 6282TIP3    H240262   0.109   2.483  12.060  0.3137  1.8174  1.3994
 6283TIP3   OH240263   4.792   6.414  14.565  0.5372 -0.8291  0.0009
 6283TIP3    H140264   4.822   6.338  14.515 -1.1452 -0.2625 -2.0016
 6283TIP3    H240265   4.699   6.396  14.581  0.7869 -0.5241  2.1655
 6284TIP3   OH240266   1.455   3.466   3.932  0.0419 -0.4784 -0.3233
 6284TIP3    H140267   1.372   3.479   3.978 -0.6663 -0.6422 -1.5226
 6284TIP3    H240268   1.488   3.554   3.916  2.2751 -0.3070  3.8133
 6285TIP3   OH240269   3.988   5.375   6.816 -0.1777 -0.1749  0.3167
 6285TIP3    H140270   4.066   5.420   6.849  0.1464 -2.1204  2.4138
 6285TIP3    H240271   4.021   5.316   6.748 -0.3475  1.2486 -1.0771
 6286TIP3   OH240272   1.676   5.442  13.528 -0.4719 -0.3738 -0.1524
 6286TIP3    H140273   1.711   5.431  13.440 -0.2459  0.3355 -0.1595
 6286TIP3    H240274   1.629   5.360  13.546  1.1831 -1.3594 -0.1470
 6287TIP3   OH240275   4.034   2.560  11.324 -0.1851 -0.9092 -0.4668
 6287TIP3    H140276   4.103   2.616  11.289 -0.9562 -0.0047 -0.5697
 6287TIP3    H240277   3.954   2.611  11.312 -0.8465 -1.8647 -0.1751
 6288TIP3   OH240278   6.690   3.050   0.732 -0.2158 -0.9979 -0.0991
 6288TIP3    H140279   6.607   3.095   0.714  0.4959 -0.0061 -1.1203
 6288TIP3    H240280   6.707   3.000   0.652  0.2800 -0.9946  0.0020
 6289TIP3   OH240281   4.050   4.279   0.979 -0.3177  0.8779  0.7244
 6289TIP3    H140282   4.007   4.344   1.035  0.7201  1.7821  0.5239
 6289TIP3    H240283   4.041   4.197   1.027 -1.5474  1.1792  1.0536
 6290TIP3   OH240284   5.317   5.476   2.118 -0.1239  0.8442 -0.1715
 6290TIP3    H140285   5.408   5.465   2.089 -0.2999  0.9385 -0.7721
 6290TIP3    H240286   5.324   5.490   2.213  0.6557  2.6510 -0.4413
 6291TIP3   OH240287   0.027   4.401   2.749  0.1820 -0.3897  0.1767
 6291TIP3    H140288   0.070   4.433   2.829  2.1793 -2.0482 -0.1457
 6291TIP3    H240289  -0.022   4.476   2.716  1.1224  0.9861  1.7714
 6292TIP3   OH240290   4.630   1.055   6.383  0.3071 -0.2178  0.5072
 6292TIP3    H140291   4.589   0.970   6.399  0.7370 -0.4050  0.6179
 6292TIP3    H240292   4.568   1.119   6.420 -0.1214 -0.4605  0.2270
 6293TIP3   OH240293   2.850   4.042   2.957 -0.0652  0.1942  0.8774
 6293TIP3    H140294   2.846   4.137   2.945 -0.6407  0.0396 -0.2621
 6293TIP3    H240295   2.761   4.012   2.943  0.3784 -0.6646 -0.2197
 6294TIP3   OH240296   6.349   1.133  12.310 -0.0611 -0.2574  0.5437
 6294TIP3    H140297   6.351   1.053  12.258  0.0848 -0.7447  1.3030
 6294TIP3    H240298   6.301   1.110  12.389  0.5166  0.2418  1.0490
 6295TIP3   OH240299   5.592   0.018   3.047 -0.5472  0.2986  0.0175
 6295TIP3    H140300   5.553  -0.069   3.048 -0.3814  0.0831 -2.8587
 6295TIP3    H240301   5.528   0.072   3.001 -0.6208  1.7468  1.7059
 6296TIP3   OH240302   5.894   5.952   1.982  0.4009  0.0313 -0.1445
 6296TIP3    H140303   5.829   5.906   1.929 -0.0705 -1.0669  1.3279
 6296TIP3    H240304   5.969   5.962   1.923 -0.1300 -1.0635 -1.0616
 6297TIP3   OH240305   0.906   0.520   3.562 -0.1039  0.0631  0.4006
 6297TIP3    H140306   0.940   0.488   3.478 -2.4527  0.5541 -0.8136
 6297TIP3    H240307   0.812   0.501   3.559  0.1183 -2.7998  4.3000
 6298TIP3   OH240308   0.362   6.757   6.775  0.3417 -0.3344 -0.6649
 6298TIP3    H140309   0.411   6.816   6.717 -2.7812 -0.0225 -3.2750
 6298TIP3    H240310   0.312   6.815   6.832  0.2892 -0.5526 -0.4882
 6299TIP3   OH240311   5.343   4.692   1.818  0.0104  0.2058 -0.3736
 6299TIP3    H140312   5.359   4.709   1.725  0.4472 -0.6989 -0.4797
 6299TIP3    H240313   5.264   4.639   1.819  0.7589 -0.9576 -0.3545
 6300TIP3   OH240314   1.039   2.139   0.025  0.6712  0.3624  0.1653
 6300TIP3    H140315   1.054   2.109   0.114  1.1982  1.0234  0.3094
 6300TIP3    H240316   1.108   2.203   0.009  1.2010 -0.4522 -1.0550
 6301TIP3   OH240317   2.838   5.271  11.730  1.2054  0.0152 -0.3260
 6301TIP3    H140318   2.800   5.358  11.726 -1.8589 -1.2398 -1.1759
 6301TIP3    H240319   2.877   5.266  11.817 -1.7525  1.0736  1.1902
 6302TIP3   OH240320   4.800   5.304   4.372  0.2075 -0.2196 -0.3857
 6302TIP3    H140321   4.868   5.310   4.305 -1.0691 -1.9584 -1.9463
 6302TIP3    H240322   4.771   5.213   4.368 -1.9427  0.3720  0.4598
 6303TIP3   OH240323   6.598   2.739  13.698 -0.6924 -0.5186  0.1497
 6303TIP3    H140324   6.648   2.783  13.767  0.0380 -0.2887 -0.5104
 6303TIP3    H240325   6.664   2.698  13.643 -1.0435  1.3303 -1.8215
 6304TIP3   OH240326   1.341   1.498  11.092 -0.5370  0.0007 -0.0179
 6304TIP3    H140327   1.383   1.547  11.163 -1.3088  1.2998 -0.4136
 6304TIP3    H240328   1.412   1.450  11.050 -0.1427 -1.3002  1.9820
 6305TIP3   OH240329   6.511   3.772   0.521  0.1692 -0.0589 -0.3489
 6305TIP3    H140330   6.521   3.678   0.507  0.5479 -0.1319  0.3520
 6305TIP3    H240331   6.424   3.793   0.487 -0.7378 -1.0299  1.2539
 6306TIP3   OH240332   1.266   4.271  11.102 -0.3645 -0.0107  0.1283
 6306TIP3    H140333   1.356   4.278  11.133 -0.4426 -1.0661  0.6263
 6306TIP3    H240334   1.270   4.296  11.009 -0.0125  2.4751  0.7336
 6307TIP3   OH240335   0.865   3.456   3.353 -0.2857  0.3372  0.8738
 6307TIP3    H140336   0.894   3.400   3.425 -1.9448 -0.4458  1.0002
 6307TIP3    H240337   0.848   3.541   3.394  0.3297  0.3685  1.0755
 6308TIP3   OH240338   6.139   6.412  16.710 -0.0315 -0.5364  0.1702
 6308TIP3    H140339   6.062   6.380  16.758  0.1469  0.0579  0.8654
 6308TIP3    H240340   6.103   6.461  16.637 -0.3708  1.3169  1.5167
 6309TIP3   OH240341   3.613   5.292  11.691 -0.2029  0.0080  0.1488
 6309TIP3    H140342   3.689   5.296  11.750  0.8399 -1.6397 -1.0162
 6309TIP3    H240343   3.565   5.373  11.710  1.3341  0.6620  1.5836
 6310TIP3   OH240344   5.782   4.657  17.036  0.2220 -0.0165 -0.3809
 6310TIP3    H140345   5.743   4.731  16.990  0.9674  0.2896 -0.5468
 6310TIP3    H240346   5.732   4.581  17.007  0.1239  0.2857 -1.0240
 6311TIP3   OH240347   1.617   5.120  12.061  0.6213 -0.9822 -0.1187
 6311TIP3    H140348   1.623   5.027  12.085 -0.5476 -1.4269 -1.3957
 6311TIP3    H240349   1.528   5.131  12.030  0.4286  0.8343  0.9156
 6312TIP3   OH240350   3.965   1.041   2.296  0.7110  0.0998  0.5812
 6312TIP3    H140351   3.995   1.021   2.384  1.1507 -1.0109  0.1961
 6312TIP3    H240352   4.043   1.034   2.241  0.0251 -1.7850 -0.2695
 6313TIP3   OH240353   6.590   4.641  12.656  0.2494 -0.3519  0.4178
 6313TIP3    H140354   6.653   4.579  12.618 -1.4414 -1.3200 -0.9296
 6313TIP3    H240355   6.590   4.715  12.595 -0.1291 -0.4896  0.2469
 6314TIP3   OH240356   1.578   0.261  15.217  0.0432  0.2313 -0.7552
 6314TIP3    H140357   1.540   0.348  15.205  1.4641  0.7046 -2.2266
 6314TIP3    H240358   1.512   0.212  15.267 -0.8106  2.1060  0.0306
 6315TIP3   OH240359   2.707   5.277  12.637  0.1394 -0.1603  0.0265
 6315TIP3    H140360   2.623   5.252  12.598 -0.8617  1.9204  0.6962
 6315TIP3    H240361   2.684   5.315  12.721  1.8698 -0.4270  0.6481
 6316TIP3   OH240362   2.006   3.319   4.126  0.5892 -0.0288  0.0431
 6316TIP3    H140363   1.914   3.319   4.154  0.8469  0.4040  0.9066
 6316TIP3    H240364   2.042   3.400   4.161  0.8979  0.6414 -1.7003
 6317TIP3   OH240365   1.887   6.044  11.847  0.5402 -0.0772  0.1840
 6317TIP3    H140366   1.901   6.008  11.935  1.1374 -0.9754 -0.2726
 6317TIP3    H240367   1.882   6.139  11.861 -0.7478 -0.2747  1.3671
 6318TIP3   OH240368   5.771   4.386  12.113  0.0532  0.0039  0.0600
 6318TIP3    H140369   5.783   4.300  12.073  3.0253  1.5158 -2.6949
 6318TIP3    H240370   5.849   4.400  12.166 -1.0711  0.4732  1.6611
 6319TIP3   OH240371   4.396   4.904   0.730 -0.5088  0.2889 -0.2984
 6319TIP3    H140372   4.353   4.940   0.808 -0.4077  2.0142 -1.0034
 6319TIP3    H240373   4.329   4.906   0.662 -0.6982 -1.5372 -0.2124
 6320TIP3   OH240374   4.399   4.849   5.400 -0.5285  0.1384 -0.2466
 6320TIP3    H140375   4.420   4.761   5.371 -1.4194 -0.6497  1.3439
 6320TIP3    H240376   4.306   4.845   5.423 -0.4561  1.3563  0.3488
 6321TIP3   OH240377   1.014   2.086   2.893 -0.0886 -0.0438 -0.0292
 6321TIP3    H140378   1.098   2.127   2.911  0.0206  0.4950 -1.5690
 6321TIP3    H240379   1.032   2.027   2.820 -0.3986 -2.3694  1.6855
 6322TIP3   OH240380   5.078   4.276  16.704 -0.6678 -0.1471 -0.8748
 6322TIP3    H140381   5.115   4.188  16.706 -1.3947 -0.4576 -0.8438
 6322TIP3    H240382   4.983   4.263  16.705 -0.7863  0.6344 -0.8804
 6323TIP3   OH240383   4.514   0.032   2.659 -0.3424 -0.5677  0.4249
 6323TIP3    H140384   4.500  -0.032   2.590  1.0962  1.0959 -1.5608
 6323TIP3    H240385   4.586   0.086   2.627 -0.9850  1.5759  2.3079
 6324TIP3   OH240386   5.457   3.388   1.995  0.9595 -0.6974 -0.1419
 6324TIP3    H140387   5.471   3.401   1.901  1.4228  0.0440  0.0226
 6324TIP3    H240388   5.421   3.472   2.026  0.1155 -1.1787  0.2147
 6325TIP3   OH240389   4.703   1.519   5.612 -0.5837  0.2583  0.3438
 6325TIP3    H140390   4.674   1.440   5.566 -0.6062  0.3054  0.2766
 6325TIP3    H240391   4.795   1.504   5.630 -0.1584  0.9229 -1.1462
 6326TIP3   OH240392   3.041   4.747  13.466  0.0567 -0.1764 -0.1448
 6326TIP3    H140393   3.108   4.682  13.445 -1.9570 -2.8679  1.1427
 6326TIP3    H240394   3.028   4.738  13.560 -1.3964  0.9700 -0.2040
 6327TIP3   OH240395   1.985   2.486   3.317  0.0091 -0.1701 -0.3095
 6327TIP3    H140396   2.014   2.482   3.225  0.1539  2.4824 -0.4763
 6327TIP3    H240397   2.063   2.511   3.365 -0.3827 -0.1599  0.3268
 6328TIP3   OH240398   4.827   1.707  11.191 -0.0148  0.2257 -0.4263
 6328TIP3    H140399   4.787   1.759  11.121  1.4066  1.9833 -0.0346
 6328TIP3    H240400   4.907   1.756  11.213  1.5950 -2.3296 -0.2085
 6329TIP3   OH240401   3.480   6.203   0.445  0.0927 -0.5707 -0.1564
 6329TIP3    H140402   3.539   6.266   0.402  1.0248 -1.0098  0.4317
 6329TIP3    H240403   3.432   6.255   0.508  3.3552 -0.8556  2.8908
 6330TIP3   OH240404   3.782   3.869  15.320  0.0809  0.2536  0.8885
 6330TIP3    H140405   3.840   3.927  15.270  1.8679 -2.2528 -0.1465
 6330TIP3    H240406   3.732   3.822  15.254 -1.1010  0.3271  1.7005
 6331TIP3   OH240407   0.343   3.726   3.750 -0.4677 -0.1549 -0.7796
 6331TIP3    H140408   0.314   3.635   3.738 -0.2638 -0.5476  1.2319
 6331TIP3    H240409   0.264   3.773   3.774 -0.3533 -0.0861 -0.5373
 6332TIP3   OH240410   2.989   5.515   0.236 -0.2336  0.1037  0.0785
 6332TIP3    H140411   3.041   5.458   0.180 -0.6874 -0.1825 -0.0616
 6332TIP3    H240412   2.948   5.456   0.300  0.2642  0.4213  0.7055
 6333TIP3   OH240413   5.357   2.147   5.655 -0.0838  0.6389 -0.0156
 6333TIP3    H140414   5.404   2.170   5.574  0.8661 -0.1881  0.2854
 6333TIP3    H240415   5.426   2.134   5.720 -0.8071  0.6694  0.7816
 6334TIP3   OH240416   0.962   4.969  13.358 -0.4339  0.2484 -0.1759
 6334TIP3    H140417   0.914   5.010  13.430 -0.7612 -0.4781  0.0258
 6334TIP3    H240418   0.894   4.929  13.304 -0.1306  0.1101 -0.4577
 6335TIP3   OH240419   0.306   1.569   0.126  0.7385  0.1320  0.5935
 6335TIP3    H140420   0.276   1.565   0.034  2.0965 -1.1088  0.1693
 6335TIP3    H240421   0.393   1.531   0.124  0.6885 -0.1435  2.4664
 6336TIP3   OH240422   0.020   5.830  17.354 -0.0062 -0.1959 -0.2327
 6336TIP3    H140423   0.028   5.739  17.324 -1.5904 -1.1602  1.9743
 6336TIP3    H240424  -0.062   5.831  17.404  0.5745  2.1615  0.7893
 6337TIP3   OH240425   1.038   1.679  15.127  0.3162  0.3585  0.0664
 6337TIP3    H140426   0.944   1.687  15.108 -0.0120  0.8900  1.8050
 6337TIP3    H240427   1.043   1.657  15.220  1.9121 -0.3020 -0.1350
 6338TIP3   OH240428   3.741   1.288   5.865  0.6726  0.0574 -0.1202
 6338TIP3    H140429   3.780   1.246   5.788  0.9683 -0.5502  0.3483
 6338TIP3    H240430   3.649   1.265   5.862  0.3657  1.3315 -1.1269
 6339TIP3   OH240431   0.329   0.503   2.896  0.5740 -0.4981  0.1509
 6339TIP3    H140432   0.299   0.507   2.805 -0.5963 -1.2310  0.4789
 6339TIP3    H240433   0.375   0.419   2.902  0.4536 -0.5570  0.2749
 6340TIP3   OH240434   6.077   6.538   4.551  0.1431  0.5301 -0.2438
 6340TIP3    H140435   6.165   6.574   4.541  0.2892  0.1595 -0.3184
 6340TIP3    H240436   6.051   6.563   4.640  0.7639 -0.2906  0.1773
 6341TIP3   OH240437   6.089   6.140  17.353  0.1656 -0.3200  0.2033
 6341TIP3    H140438   6.001   6.105  17.339  0.4937 -1.7131  1.3454
 6341TIP3    H240439   6.145   6.082  17.302  0.5989 -0.7478  1.1348
 6342TIP3   OH240440   4.713   3.979  12.337  0.1175  0.4482  0.0187
 6342TIP3    H140441   4.683   4.063  12.371  1.0524  1.2827 -1.1482
 6342TIP3    H240442   4.808   3.981  12.348  0.3040  0.1828 -1.3676
 6343TIP3   OH240443   1.651   4.915  11.486 -0.0397 -0.1585  0.6353
 6343TIP3    H140444   1.719   4.940  11.548 -1.1219 -0.5429  2.0191
 6343TIP3    H240445   1.649   4.819  11.489 -0.1607 -0.1773  0.0764
 6344TIP3   OH240446   0.880   0.985  14.299  0.0198  0.7067 -0.8026
 6344TIP3    H140447   0.957   0.983  14.242  0.2974 -0.7982 -0.4370
 6344TIP3    H240448   0.815   0.933  14.252 -0.1568  0.4807 -0.3113
 6345TIP3   OH240449   6.381   6.175   1.961  0.3037  0.5881  0.3080
 6345TIP3    H140450   6.393   6.256   1.911  1.0918  0.7564  0.7428
 6345TIP3    H240451   6.355   6.110   1.896  1.3423  0.7918 -0.3302
 6346TIP3   OH240452   5.279   1.432  14.071 -0.3062 -0.1662  0.1708
 6346TIP3    H140453   5.363   1.406  14.110 -0.5828  0.7230  1.4046
 6346TIP3    H240454   5.214   1.413  14.138 -0.9542  0.2478 -0.3291
 6347TIP3   OH240455   0.785   0.027  16.950 -0.5866 -0.2335  0.1299
 6347TIP3    H140456   0.800   0.029  17.044 -2.4308 -0.2171  0.4622
 6347TIP3    H240457   0.788   0.119  16.924 -0.1521 -0.2316  0.1824
 6348TIP3   OH240458   0.453   5.088   0.525  0.8811  0.4171  0.0176
 6348TIP3    H140459   0.426   4.999   0.501  1.4424  0.1608  0.3062
 6348TIP3    H240460   0.423   5.143   0.453  3.0815 -0.4030 -1.6599
 6349TIP3   OH240461   4.759   1.795  12.335  0.1220  0.3876  1.1912
 6349TIP3    H140462   4.845   1.837  12.330  0.2490  0.0509 -2.7783
 6349TIP3    H240463   4.697   1.868  12.331  0.3540  0.5591 -1.3421
 6350TIP3   OH240464   0.362   5.002  14.787  0.1080 -0.6070  0.4905
 6350TIP3    H140465   0.325   4.918  14.816 -0.5836 -1.0816 -1.5993
 6350TIP3    H240466   0.423   4.978  14.717  2.4740  0.4015  2.0946
 6351TIP3   OH240467   0.659   3.607   1.702  0.7183 -0.0903  0.4304
 6351TIP3    H140468   0.641   3.701   1.701 -0.5053 -0.3109 -0.8035
 6351TIP3    H240469   0.630   3.578   1.789  1.7682  0.7753  1.0844
 6352TIP3   OH240470   2.435   6.693   5.400  0.3532 -0.0160  0.2345
 6352TIP3    H140471   2.452   6.661   5.312 -0.5207 -0.6866  0.2988
 6352TIP3    H240472   2.404   6.783   5.388  1.3495  0.3047 -0.0484
 6353TIP3   OH240473   0.415   1.996   1.088 -0.1303 -0.1712  0.1717
 6353TIP3    H140474   0.486   1.936   1.113  2.3090  1.6914 -1.8218
 6353TIP3    H240475   0.404   1.981   0.994 -0.2757  1.6154 -0.1287
 6354TIP3   OH240476   3.148   2.769  13.674 -0.0736  0.4297 -0.0360
 6354TIP3    H140477   3.179   2.856  13.649  1.1778 -0.5847 -2.2444
 6354TIP3    H240478   3.127   2.726  13.591  0.5389 -1.8219  0.9187
 6355TIP3   OH240479   5.380   3.588   3.948 -0.4041 -0.3747 -0.4121
 6355TIP3    H140480   5.366   3.620   4.037 -1.5022  0.5191 -0.8746
 6355TIP3    H240481   5.331   3.506   3.944 -0.4408 -0.3623 -0.2275
 6356TIP3   OH240482   5.517   5.899   4.153 -0.2673 -0.4493  0.0066
 6356TIP3    H140483   5.427   5.901   4.122 -0.5672  0.6189  0.8630
 6356TIP3    H240484   5.536   5.989   4.179  0.4719 -0.9665  1.4028
 6357TIP3   OH240485   3.527   4.248   1.986  0.0690  0.0773 -0.4242
 6357TIP3    H140486   3.561   4.179   2.043 -1.1332  0.5376  0.8926
 6357TIP3    H240487   3.468   4.202   1.926 -0.5171 -0.0784  0.2668
 6358TIP3   OH240488   1.210   3.518   4.083 -0.3944  0.4566 -0.1469
 6358TIP3    H140489   1.150   3.473   4.024  0.6758 -1.6320  0.2570
 6358TIP3    H240490   1.222   3.457   4.156  1.6239  1.0970  0.1156
 6359TIP3   OH240491   2.804   0.684  15.895 -0.0575  0.4380  0.0311
 6359TIP3    H140492   2.709   0.700  15.892 -0.0329  0.5310 -0.3062
 6359TIP3    H240493   2.818   0.616  15.829  0.4676  2.2508 -1.8161
 6360TIP3   OH240494   6.335   0.023  15.831 -0.3329  0.2460  0.1200
 6360TIP3    H140495   6.325   0.064  15.917  0.9495  1.6599 -0.3581
 6360TIP3    H240496   6.427   0.038  15.809 -1.0398  1.5418 -2.2791
 6361TIP3   OH240497   6.388   1.466   4.748  0.1247 -0.0170  0.7826
 6361TIP3    H140498   6.435   1.471   4.665 -0.1544 -1.7264  0.4815
 6361TIP3    H240499   6.302   1.505   4.729 -0.2241 -1.1125  0.0210
 6362TIP3   OH240500   0.219   0.783  11.292  0.1335  1.0375 -0.2853
 6362TIP3    H140501   0.294   0.837  11.267 -0.8102  1.4987 -2.3076
 6362TIP3    H240502   0.167   0.776  11.213 -2.1043  0.9326  1.1065
 6363TIP3   OH240503   5.922   2.128   4.330 -0.5309 -0.0491  0.2238
 6363TIP3    H140504   5.874   2.191   4.276 -1.8006  1.3522  2.8041
 6363TIP3    H240505   6.011   2.129   4.295 -0.8600  2.1779 -0.7057
 6364TIP3   OH240506   4.329   6.703   4.281 -0.2818 -0.4013  0.1466
 6364TIP3    H140507   4.317   6.796   4.260  1.1415  0.0606  1.1737
 6364TIP3    H240508   4.260   6.658   4.233 -0.6990  1.1425 -0.7695
 6365TIP3   OH240509   6.545   1.187   5.264 -0.0028  0.1357  0.1765
 6365TIP3    H140510   6.489   1.150   5.196 -1.4215  0.9489  0.8551
 6365TIP3    H240511   6.565   1.276   5.232  1.3891 -0.3325 -0.3170
 6366TIP3   OH240512   2.165   6.580  13.291  0.5780 -0.0933  0.1565
 6366TIP3    H140513   2.079   6.620  13.275  0.1996 -0.9974 -0.1499
 6366TIP3    H240514   2.162   6.552  13.382  0.3804 -0.5147  0.0218
 6367TIP3   OH240515   2.121   1.300   1.748 -0.1467 -0.2561 -0.2092
 6367TIP3    H140516   2.152   1.270   1.833 -1.3411 -1.6332 -0.2210
 6367TIP3    H240517   2.041   1.349   1.768 -1.2408 -1.8154 -0.6188
 6368TIP3   OH240518   3.844   4.547  16.149 -0.3143  0.3613 -0.0309
 6368TIP3    H140519   3.760   4.515  16.183  0.3324 -0.3558  0.9574
 6368TIP3    H240520   3.853   4.634  16.187 -0.2935  0.1561  0.4461
 6369TIP3   OH240521   4.214   6.084   4.529 -0.6145  0.4393  0.1352
 6369TIP3    H140522   4.287   6.144   4.511  0.3137 -1.1853 -1.8575
 6369TIP3    H240523   4.218   6.070   4.624  1.3223  0.8450  0.1606
 6370TIP3   OH240524   2.704   4.790  16.318 -0.3359  1.1494 -0.1718
 6370TIP3    H140525   2.722   4.762  16.408  0.0067  1.7653 -0.0404
 6370TIP3    H240526   2.790   4.817  16.284 -0.6999  2.3711 -0.1656
 6371TIP3   OH240527   3.270   3.002  15.371 -0.5850  0.5563 -0.1785
 6371TIP3    H140528   3.212   3.038  15.437 -0.0271  0.9284  0.1183
 6371TIP3    H240529   3.358   3.021  15.403 -0.2700  3.0137 -2.2035
 6372TIP3   OH240530   0.677   3.677  14.320  0.2113  0.3290  0.4388
 6372TIP3    H140531   0.628   3.641  14.246  1.7912  0.1431 -0.5694
 6372TIP3    H240532   0.767   3.682  14.289  0.6608  1.7158  1.8409
 6373TIP3   OH240533   4.259   4.792  14.224 -0.5975 -0.1194 -0.2715
 6373TIP3    H140534   4.311   4.735  14.167  1.6407 -0.2502  1.6874
 6373TIP3    H240535   4.217   4.854  14.166  0.4089 -1.1087 -2.1444
 6374TIP3   OH240536   4.438   4.222  14.018 -0.3279  0.0392 -0.7361
 6374TIP3    H140537   4.413   4.142  14.064 -0.9442 -0.0429 -1.1916
 6374TIP3    H240538   4.516   4.198  13.968 -0.0080 -0.0340 -0.2025
 6375TIP3   OH240539   3.364   2.469  15.104  0.1339 -0.3394  0.0617
 6375TIP3    H140540   3.298   2.401  15.095  0.9378 -1.2494  0.7979
 6375TIP3    H240541   3.380   2.475  15.198 -0.7063  1.6648  0.1261
 6376TIP3   OH240542   3.372   1.713   1.246 -0.8514 -0.3357 -0.6824
 6376TIP3    H140543   3.297   1.771   1.233 -0.1551  0.7940  0.1709
 6376TIP3    H240544   3.436   1.740   1.180  0.0672  0.9355  0.6615
 6377TIP3   OH240545   1.061   0.708   5.638 -0.1696 -0.4835  0.4262
 6377TIP3    H140546   1.017   0.769   5.698 -0.1064  0.1160 -0.1330
 6377TIP3    H240547   1.028   0.622   5.664 -2.0117 -0.0216 -0.2467
 6378TIP3   OH240548   3.253   4.513  11.096  0.2666  0.6584 -0.0443
 6378TIP3    H140549   3.163   4.543  11.107 -0.0744  0.6268 -2.3426
 6378TIP3    H240550   3.245   4.424  11.062  1.2315 -0.3140  2.0738
 6379TIP3   OH240551   4.270   6.597  15.680 -0.5007 -0.4277 -0.1665
 6379TIP3    H140552   4.308   6.512  15.703 -3.1466 -1.0989  2.1581
 6379TIP3    H240553   4.318   6.660  15.734  0.5219 -0.5859 -0.8601
 6380TIP3   OH240554   5.009   3.817  17.167  0.0609 -0.5588 -0.5139
 6380TIP3    H140555   4.980   3.871  17.240 -0.1247 -1.4126  0.0596
 6380TIP3    H240556   4.932   3.808  17.111  0.1465 -0.0774 -0.7141
 6381TIP3   OH240557   1.591   3.132   2.537  0.0435 -0.3540  0.0726
 6381TIP3    H140558   1.597   3.115   2.631  0.4355 -0.9991 -0.0622
 6381TIP3    H240559   1.637   3.215   2.525  0.5858 -0.6062  0.3635
 6382TIP3   OH240560   4.511   0.828   3.151  0.1974  0.7079 -0.8915
 6382TIP3    H140561   4.415   0.836   3.152 -0.0468 -1.6462  0.3219
 6382TIP3    H240562   4.539   0.868   3.234 -0.0571 -1.1587  0.1478
 6383TIP3   OH240563   1.742   4.678   2.021 -0.1467 -0.4517 -0.3082
 6383TIP3    H140564   1.744   4.774   2.024  1.1598 -0.3224 -2.7401
 6383TIP3    H240565   1.665   4.658   1.969 -0.7090 -0.7888  0.6250
 6384TIP3   OH240566   3.928   5.155  11.037 -0.2117  0.1277  0.3333
 6384TIP3    H140567   3.902   5.209  10.962  1.5372 -0.6848 -0.9229
 6384TIP3    H240568   3.970   5.078  10.998  2.4931  0.5547  2.1332
 6385TIP3   OH240569   0.502   3.149   2.571  0.1108 -0.7972 -0.2620
 6385TIP3    H140570   0.455   3.123   2.650  0.0523 -0.0006 -0.0227
 6385TIP3    H240571   0.551   3.227   2.597 -0.7087  0.0833 -1.2949
 6386TIP3   OH240572   0.289   0.637  11.552  0.2510 -0.2666 -0.3928
 6386TIP3    H140573   0.282   0.702  11.482  1.4872 -0.2013 -0.4797
 6386TIP3    H240574   0.302   0.690  11.632 -0.4129 -0.3638 -0.2160
 6387TIP3   OH240575   1.871   3.379   3.845 -0.1928 -0.7346 -0.0048
 6387TIP3    H140576   1.794   3.328   3.870 -0.5332 -0.0293  0.4367
 6387TIP3    H240577   1.933   3.365   3.916  0.2845 -1.7090 -0.6120
 6388TIP3   OH240578   6.302   4.786   4.189  0.2222 -0.0804 -0.0817
 6388TIP3    H140579   6.344   4.767   4.273 -0.5562 -0.8558  0.1404
 6388TIP3    H240580   6.298   4.702   4.144 -0.4365  0.1114 -0.3953
 6389TIP3   OH240581   0.901   5.244   4.694 -0.2858 -0.2113 -0.3319
 6389TIP3    H140582   0.881   5.182   4.624 -0.2297  0.0711 -0.6031
 6389TIP3    H240583   0.954   5.311   4.651  0.3927 -0.4271  0.1509
 6390TIP3   OH240584   1.348   5.798  11.721 -0.2921 -0.1413 -0.4286
 6390TIP3    H140585   1.405   5.874  11.727 -2.9726  2.1043 -0.9417
 6390TIP3    H240586   1.391   5.741  11.658  1.4381  1.3520 -0.6862
 6391TIP3   OH240587   4.332   0.114  15.101 -0.3396  0.5654  0.0082
 6391TIP3    H140588   4.260   0.074  15.150 -0.4091 -0.7668 -1.1185
 6391TIP3    H240589   4.371   0.042  15.053  0.3549  1.6553 -1.1221
 6392TIP3   OH240590   2.118   4.780  16.676 -0.1122 -0.5013  0.8879
 6392TIP3    H140591   2.162   4.701  16.709 -0.9353 -1.3772 -0.0414
 6392TIP3    H240592   2.176   4.813  16.607  0.8640  0.4717  2.1209
 6393TIP3   OH240593   0.804   2.192  13.988  0.2515  0.3929  0.1799
 6393TIP3    H140594   0.772   2.279  13.963 -0.5543  0.2842  0.8117
 6393TIP3    H240595   0.870   2.209  14.055 -1.5984  0.4361  2.0596
 6394TIP3   OH240596   0.184   4.533   1.430  0.4808  0.6993  0.2749
 6394TIP3    H140597   0.180   4.437   1.424  1.4928  0.6116  0.8502
 6394TIP3    H240598   0.181   4.562   1.339  0.0506  0.1355  0.0970
 6395TIP3   OH240599   1.177   6.588   1.227 -0.1065  0.2390  0.7510
 6395TIP3    H140600   1.177   6.559   1.318 -0.9198 -0.3991  0.5549
 6395TIP3    H240601   1.127   6.669   1.227  0.1125  0.3761  0.9070
 6396TIP3   OH240602   2.188   5.470   3.282  0.4437  0.6541 -0.7616
 6396TIP3    H140603   2.146   5.411   3.220 -0.3660 -0.3987  0.7409
 6396TIP3    H240604   2.281   5.466   3.259  0.2854 -0.5000 -1.2664
 6397TIP3   OH240605   3.273   6.182  15.639 -0.1718  0.0115 -0.4061
 6397TIP3    H140606   3.193   6.195  15.690  0.3755 -0.5121  0.6033
 6397TIP3    H240607   3.244   6.131  15.563 -0.9701  0.6916 -0.5801
 6398TIP3   OH240608   3.651   4.506  15.682 -0.4987 -0.2877  0.4244
 6398TIP3    H140609   3.731   4.547  15.649 -1.0955 -0.7638 -1.7427
 6398TIP3    H240610   3.678   4.418  15.708 -0.2956 -0.4096 -0.1979
 6399TIP3   OH240611   5.725   0.774  12.313 -0.1816 -0.3595  0.0549
 6399TIP3    H140612   5.653   0.726  12.272  0.3707 -0.3815 -0.9189
 6399TIP3    H240613   5.750   0.840  12.248 -0.2204  0.5491  0.9430
 6400TIP3   OH240614   4.580   6.097  13.485 -0.0406  0.0602  0.0039
 6400TIP3    H140615   4.613   6.130  13.568  0.3752  0.7675 -0.4315
 6400TIP3    H240616   4.550   6.009  13.504  0.2447  0.1425  0.8573
 6401TIP3   OH240617   1.198   1.450  16.082  0.0576 -0.1691 -0.2089
 6401TIP3    H140618   1.224   1.537  16.053 -0.0169  0.3090  1.1148
 6401TIP3    H240619   1.195   1.456  16.177 -3.2143 -0.6633 -0.1622
 6402TIP3   OH240620   6.198   2.777   6.166 -0.1059 -0.0598  0.5163
 6402TIP3    H140621   6.193   2.839   6.239 -0.1859  0.1234  0.3531
 6402TIP3    H240622   6.211   2.692   6.209  3.5595  0.4362  0.6618
 6403TIP3   OH240623   1.849   2.067  12.051  0.3813 -0.1583 -0.4896
 6403TIP3    H140624   1.823   2.100  12.137  0.3323  0.5139 -0.7556
 6403TIP3    H240625   1.797   1.987  12.040  0.3796 -0.2439  0.0955
 6404TIP3   OH240626   1.365   4.656   5.381 -0.5003 -0.6212 -0.3571
 6404TIP3    H140627   1.368   4.562   5.364 -2.0744 -0.4083 -2.1171
 6404TIP3    H240628   1.427   4.694   5.319  1.5269 -0.5564  1.5733
 6405TIP3   OH240629   4.585   2.700   2.907  0.5066  0.0645 -0.0423
 6405TIP3    H140630   4.580   2.640   2.833  0.4823  0.8009 -0.6525
 6405TIP3    H240631   4.495   2.723   2.926  0.5289  0.0825  0.0420
 6406TIP3   OH240632   4.801   4.162  16.145  0.4956 -0.2639 -0.8432
 6406TIP3    H140633   4.800   4.256  16.161  0.6452 -0.0795 -1.8737
 6406TIP3    H240634   4.717   4.143  16.103  0.1308 -0.7359  0.0560
 6407TIP3   OH240635   1.507   4.789  14.961  0.7348 -0.1571  0.0082
 6407TIP3    H140636   1.552   4.872  14.944 -0.5799  0.4669 -0.5853
 6407TIP3    H240637   1.433   4.789  14.901  1.9368 -2.8299 -1.6686
 6408TIP3   OH240638   4.442   2.945   0.986  0.1515  0.3151  0.1229
 6408TIP3    H140639   4.411   2.865   1.029  1.4569 -0.5604 -0.5062
 6408TIP3    H240640   4.368   2.972   0.931  0.3272 -1.5760 -1.1451
 6409TIP3   OH240641   5.672   0.417   3.428  0.3092 -0.4931  0.4235
 6409TIP3    H140642   5.616   0.342   3.412 -0.9320  0.1689  1.4578
 6409TIP3    H240643   5.761   0.384   3.419 -0.2315 -1.7503 -0.4929
 6410TIP3   OH240644   4.554   4.498   1.421  0.5636  0.2967  0.7374
 6410TIP3    H140645   4.490   4.542   1.476  0.8988 -0.6584  1.9256
 6410TIP3    H240646   4.501   4.455   1.353 -0.1268 -0.7676  1.9089
 6411TIP3   OH240647   0.071   3.204  12.622  0.4480  0.0524  0.0755
 6411TIP3    H140648   0.092   3.285  12.670 -0.8287  0.9362 -0.7976
 6411TIP3    H240649   0.091   3.224  12.531  1.9999 -1.3131  0.0763
 6412TIP3   OH240650   0.325   3.258  13.497 -0.4544 -0.2399 -0.3452
 6412TIP3    H140651   0.253   3.307  13.455 -0.1783  0.7129  0.2718
 6412TIP3    H240652   0.404   3.294  13.457 -0.2426 -0.0808  0.2116
 6413TIP3   OH240653   1.666   4.173   3.632 -0.5491 -0.4089 -0.0711
 6413TIP3    H140654   1.586   4.218   3.660 -0.6157 -0.2802 -0.4675
 6413TIP3    H240655   1.692   4.120   3.708  0.3945  1.4600  0.9634
 6414TIP3   OH240656   5.358   3.643   2.139  0.0292  0.0404 -0.2144
 6414TIP3    H140657   5.265   3.661   2.130  0.1284  1.0439  0.5750
 6414TIP3    H240658   5.400   3.700   2.075  0.1165 -0.3627 -0.5238
 6415TIP3   OH240659   2.664   3.037   4.420  0.5522  0.5479  0.2875
 6415TIP3    H140660   2.696   3.077   4.339  1.4965 -1.6424 -0.5155
 6415TIP3    H240661   2.741   3.034   4.477  0.3465  0.4134  0.5605
 6416TIP3   OH240662   3.489   3.386   1.608  0.0941 -0.3827 -0.2368
 6416TIP3    H140663   3.523   3.318   1.549 -1.4870 -0.1404 -1.4885
 6416TIP3    H240664   3.540   3.464   1.586 -0.0839 -0.4393 -0.8763
 6417TIP3   OH240665   4.109   4.238   0.139  0.7027  0.0289  0.5349
 6417TIP3    H140666   4.133   4.324   0.105 -0.1346  0.6596  1.4921
 6417TIP3    H240667   4.132   4.241   0.231 -3.9463  1.1730  1.9312
 6418TIP3   OH240668   1.513   6.630   2.681  0.3047 -1.0231 -0.3496
 6418TIP3    H140669   1.503   6.609   2.588 -2.7501  0.3521 -0.4451
 6418TIP3    H240670   1.572   6.562   2.714  0.2106 -2.5298 -2.9462
 6419TIP3   OH240671   2.785   2.633   1.906  1.0068  0.2563  0.0241
 6419TIP3    H140672   2.856   2.569   1.905  0.4576 -0.3720  0.5190
 6419TIP3    H240673   2.829   2.717   1.922  1.8573  0.1985 -1.8122
 6420TIP3   OH240674   0.853   6.446   3.619 -0.2833  0.6792 -0.6689
 6420TIP3    H140675   0.864   6.532   3.579 -0.7277  0.6169 -0.9417
 6420TIP3    H240676   0.936   6.401   3.604 -0.4123  0.6855 -1.4677
 6421TIP3   OH240677   4.584   6.432   3.007 -0.0828  0.3573  0.0747
 6421TIP3    H140678   4.551   6.381   2.933 -0.4498  0.2141  0.3337
 6421TIP3    H240679   4.582   6.523   2.977  0.6540  0.2166 -0.4176
 6422TIP3   OH240680   3.633   5.787  15.929 -0.1720  0.2766  0.3219
 6422TIP3    H140681   3.642   5.877  15.899 -1.1354  0.0186 -0.7838
 6422TIP3    H240682   3.574   5.793  16.005 -1.1577  0.4639 -0.4403
 6423TIP3   OH240683   0.006   0.279   6.119  0.3934  0.4230  0.4880
 6423TIP3    H140684  -0.031   0.365   6.140 -1.2712  0.3616 -1.7860
 6423TIP3    H240685  -0.054   0.217   6.161 -1.0102  0.3646 -1.4666
 6424TIP3   OH240686   2.287   6.622   4.201 -0.3561  0.1702  0.5170
 6424TIP3    H140687   2.311   6.576   4.282  1.1868  0.6849  0.3899
 6424TIP3    H240688   2.229   6.692   4.230  0.1407  0.3191  1.1965
 6425TIP3   OH240689   1.446   3.955   3.164 -0.0201  0.4258  0.5867
 6425TIP3    H140690   1.366   3.991   3.202  0.2860 -0.2393  1.8889
 6425TIP3    H240691   1.429   3.861   3.157  0.4064  0.3734  0.2456
 6426TIP3   OH240692   6.322   4.382   3.541  0.1011 -0.6210  0.3112
 6426TIP3    H140693   6.391   4.393   3.607 -0.8323 -1.0622  1.3805
 6426TIP3    H240694   6.361   4.417   3.461  1.5144 -0.7094  0.9251
 6427TIP3   OH240695   2.963   2.830   0.904 -0.3468 -0.3918 -0.4250
 6427TIP3    H140696   2.887   2.809   0.960  1.3659 -1.6129  1.5803
 6427TIP3    H240697   2.999   2.910   0.942  0.8361 -1.2316  0.2618
 6428TIP3   OH240698   2.382   1.543  13.589  0.3583 -0.4568 -0.3300
 6428TIP3    H140699   2.434   1.623  13.580  0.3916 -0.3500  0.6572
 6428TIP3    H240700   2.446   1.473  13.583  0.6699 -0.3201  1.0459
 6429TIP3   OH240701   2.753   5.242   1.537 -0.5386  0.1522 -0.3265
 6429TIP3    H140702   2.711   5.161   1.563  3.5417 -1.7301  1.3038
 6429TIP3    H240703   2.788   5.225   1.449  0.0549  0.2283 -0.1126
 6430TIP3   OH240704   3.877   0.871  16.353 -0.1885 -0.1733  0.2313
 6430TIP3    H140705   3.967   0.899  16.338 -0.0509 -0.7331  0.0140
 6430TIP3    H240706   3.837   0.945  16.399 -0.2867  1.1198 -1.7921
 6431TIP3   OH240707   4.347   1.801   3.623 -0.6303 -0.3415 -0.3615
 6431TIP3    H140708   4.423   1.755   3.660  0.1115  0.9371 -0.2623
 6431TIP3    H240709   4.331   1.874   3.682 -1.8563 -0.4903 -0.4749
 6432TIP3   OH240710   2.937   5.169  12.939  0.1154  0.8230 -0.2308
 6432TIP3    H140711   2.959   5.181  12.846  1.7405 -0.4347 -0.0505
 6432TIP3    H240712   3.012   5.207  12.986 -1.2375  2.5591  0.6545
 6433TIP3   OH240713   4.841   5.938  13.571  0.2639  0.5176 -0.6383
 6433TIP3    H140714   4.880   5.912  13.487 -0.8138  0.7068 -1.2123
 6433TIP3    H240715   4.750   5.961  13.550  0.2396  1.5132  0.4130
 6434TIP3   OH240716   4.139   1.938  12.305 -0.4468 -0.0149 -0.0759
 6434TIP3    H140717   4.131   1.848  12.273 -0.6191 -0.3297  0.8255
 6434TIP3    H240718   4.070   1.986  12.259  0.4710 -0.0338 -1.5591
 6435TIP3   OH240719   4.371   6.324   4.508  0.3584 -0.2761  0.0380
 6435TIP3    H140720   4.289   6.373   4.517  0.0576 -0.7873  0.0947
 6435TIP3    H240721   4.384   6.316   4.414 -0.8261 -2.1133 -0.0152
 6436TIP3   OH240722   1.948   1.241  12.531  0.3613 -0.0288  0.1273
 6436TIP3    H140723   1.936   1.329  12.495 -0.7319 -0.3054 -0.2131
 6436TIP3    H240724   2.043   1.227  12.528  0.5557  1.1404  0.2127
 6437TIP3   OH240725   3.578   4.827   0.542 -0.0799  0.3820 -0.6399
 6437TIP3    H140726   3.648   4.859   0.486  0.5433  0.6684  0.2839
 6437TIP3    H240727   3.622   4.778   0.611 -0.9687 -2.1034 -1.7088
 6438TIP3   OH240728   5.209   6.188   4.784  0.1270  0.3994  0.0873
 6438TIP3    H140729   5.241   6.133   4.712 -0.2140 -1.3792  1.2234
 6438TIP3    H240730   5.124   6.151   4.807  0.6727  0.2684  2.0465
 6439TIP3   OH240731   1.669   0.416  17.138 -0.6136  0.0193 -0.5754
 6439TIP3    H140732   1.695   0.395  17.048 -1.9994  0.4330 -1.1084
 6439TIP3    H240733   1.658   0.331  17.181  0.9627 -0.1681 -0.4963
 6440TIP3   OH240734   4.779   5.306   4.014 -0.6551 -0.3696  0.1627
 6440TIP3    H140735   4.714   5.251   4.058  0.7310 -0.6555  1.9396
 6440TIP3    H240736   4.767   5.288   3.920 -1.5285 -2.2017  0.5966
 6441TIP3   OH240737   5.593   6.411  15.389 -0.1150 -0.0204  0.6480
 6441TIP3    H140738   5.503   6.379  15.387  0.1368 -0.8057  1.3637
 6441TIP3    H240739   5.586   6.501  15.420 -0.5519 -0.5160  2.0345
 6442TIP3   OH240740   4.980   1.836   5.843  0.4767  0.5613 -0.2588
 6442TIP3    H140741   5.063   1.881   5.858  1.1239 -0.0153 -1.9114
 6442TIP3    H240742   4.971   1.834   5.748 -0.5711 -0.9284 -0.1592
 6443TIP3   OH240743   6.161   3.102   5.915  0.2307 -0.1223  0.4960
 6443TIP3    H140744   6.238   3.063   5.874 -0.4666  1.7088 -2.9332
 6443TIP3    H240745   6.088   3.046   5.887 -0.1238  0.4323  0.2973
 6444TIP3   OH240746   3.085   4.576   4.296  0.2579 -0.1924 -0.4722
 6444TIP3    H140747   3.084   4.647   4.231 -0.0205 -0.1514 -0.4272
 6444TIP3    H240748   3.058   4.619   4.378  0.6081 -0.2444 -0.3314
 6445TIP3   OH240749   1.976   2.378  14.771 -0.5811 -0.2023 -0.2276
 6445TIP3    H140750   1.971   2.454  14.714  2.2891 -1.1987 -2.0156
 6445TIP3    H240751   2.020   2.409  14.850  1.0479 -0.0651 -1.1628
 6446TIP3   OH240752   2.860   5.228   1.285  0.0621  0.3287 -0.2328
 6446TIP3    H140753   2.929   5.271   1.234  0.7940 -2.0998 -1.4517
 6446TIP3    H240754   2.785   5.224   1.225 -0.3451  0.7868  0.2364
 6447TIP3   OH240755   4.642   2.918  16.151 -0.8587 -0.5269  0.0773
 6447TIP3    H140756   4.640   2.840  16.095 -1.8038  0.5434 -1.4764
 6447TIP3    H240757   4.601   2.890  16.233 -2.4624 -1.3588 -0.9432
 6448TIP3   OH240758   1.848   6.391  15.795 -0.3685 -0.4540 -0.0014
 6448TIP3    H140759   1.831   6.323  15.730  0.1452 -1.3493  0.7826
 6448TIP3    H240760   1.941   6.384  15.814 -0.2793  0.5596  0.0057
 6449TIP3   OH240761   3.174   2.745  14.968  0.2840 -0.1971 -0.1191
 6449TIP3    H140762   3.237   2.673  14.971 -0.9307 -1.3540 -1.1002
 6449TIP3    H240763   3.225   2.820  14.938  0.9878 -1.3945 -2.0836
 6450TIP3   OH240764   6.609   2.832  15.826 -0.3545 -0.3403 -0.2928
 6450TIP3    H140765   6.593   2.743  15.855  0.7648 -0.8918 -1.2983
 6450TIP3    H240766   6.543   2.885  15.872  1.0476 -1.1858  2.9559
 6451TIP3   OH240767   1.187   6.169   3.785 -0.0158 -0.1805 -0.2737
 6451TIP3    H140768   1.189   6.073   3.785 -0.5139 -0.2278  1.3049
 6451TIP3    H240769   1.127   6.191   3.857  2.0969  1.3289  1.1189
 6452TIP3   OH240770   3.334   4.726  10.911  0.5551  0.3653  0.3652
 6452TIP3    H140771   3.255   4.771  10.943  0.6017  1.7862 -1.3540
 6452TIP3    H240772   3.332   4.641  10.955 -1.4465  0.7078  1.0727
 6453TIP3   OH240773   2.787   1.608  15.361 -0.1642 -0.3310  0.0736
 6453TIP3    H140774   2.740   1.616  15.444  1.3638 -0.0732  0.9492
 6453TIP3    H240775   2.830   1.693  15.350 -0.3972 -0.3384 -1.0281
 6454TIP3   OH240776   4.422   2.173   3.285  0.1218 -0.3123 -0.4867
 6454TIP3    H140777   4.444   2.205   3.197 -1.0020 -0.7293 -0.9378
 6454TIP3    H240778   4.478   2.223   3.343 -0.9735  1.8993 -1.2295
 6455TIP3   OH240779   4.816   3.607  11.475  0.1959 -0.1109 -0.1417
 6455TIP3    H140780   4.825   3.698  11.503 -0.7827  0.5674 -1.8598
 6455TIP3    H240781   4.845   3.607  11.383  1.9566 -1.9351  0.3277
 6456TIP3   OH240782   1.180   3.474   4.784 -0.3794 -0.5544  0.2727
 6456TIP3    H140783   1.228   3.427   4.716  2.3131  1.0713  0.9005
 6456TIP3    H240784   1.103   3.510   4.739 -1.0018 -3.0671 -0.8354
 6457TIP3   OH240785   4.443   2.098   2.063  0.2481  0.1315  0.2404
 6457TIP3    H140786   4.456   2.156   1.988  1.8739  2.7844  2.3953
 6457TIP3    H240787   4.367   2.134   2.108 -0.9172 -1.6332 -0.1777
 6458TIP3   OH240788   2.650   6.130   6.675  0.0213  0.1583  0.1923
 6458TIP3    H140789   2.678   6.080   6.599  0.1917 -0.4814  0.6608
 6458TIP3    H240790   2.555   6.130   6.671 -0.0016  2.5054 -1.5181
 6459TIP3   OH240791   6.431   2.762   2.088 -0.2098  0.5951 -0.0822
 6459TIP3    H140792   6.401   2.770   2.178 -2.1530 -0.0588 -0.6042
 6459TIP3    H240793   6.469   2.674   2.083  0.7878  0.9905  0.3057
 6460TIP3   OH240794   1.101   4.700   0.897  0.0754  0.5004 -0.8917
 6460TIP3    H140795   1.154   4.652   0.960  1.2917  0.2723 -2.0378
 6460TIP3    H240796   1.138   4.788   0.896 -0.8569  0.9157 -0.2679
 6461TIP3   OH240797   4.136   4.707  13.852 -0.1843  0.1091 -0.3766
 6461TIP3    H140798   4.167   4.736  13.766 -0.2682  1.5418  0.0565
 6461TIP3    H240799   4.054   4.754  13.865  0.2345  0.5425  0.8368
 6462TIP3   OH240800   0.373   1.702   2.505  0.3903  0.0687 -0.5134
 6462TIP3    H140801   0.435   1.768   2.536  0.3469  0.6323 -1.5931
 6462TIP3    H240802   0.306   1.751   2.459 -0.2202 -0.6461 -0.3998
 6463TIP3   OH240803   5.852   1.172   5.462 -0.2335 -0.1135 -0.2172
 6463TIP3    H140804   5.779   1.121   5.498 -0.3545 -0.4958 -1.0047
 6463TIP3    H240805   5.907   1.191   5.539 -0.7154 -0.5469  0.2458
 6464TIP3   OH240806   1.963   5.994  12.109  0.0231  0.2002  0.4898
 6464TIP3    H140807   2.058   5.985  12.101 -0.0086  0.5954 -0.4810
 6464TIP3    H240808   1.948   6.002  12.203  1.0471  1.0545  0.6020
 6465TIP3   OH240809   6.297   4.761   0.532 -0.6580 -0.5543 -0.1513
 6465TIP3    H140810   6.246   4.842   0.532 -0.0839 -0.1699 -1.5399
 6465TIP3    H240811   6.353   4.768   0.610 -0.8439  0.2364 -0.0799
 6466TIP3   OH240812   5.947   5.395   1.901 -0.8562  0.0029  0.1309
 6466TIP3    H140813   5.995   5.462   1.852 -0.1024 -0.5220  0.1272
 6466TIP3    H240814   6.005   5.319   1.901 -2.1016 -0.9750 -0.6714
 6467TIP3   OH240815   0.243   5.570  16.673 -0.4746  0.1691  0.1296
 6467TIP3    H140816   0.158   5.602  16.645 -0.9558  0.5203  1.8907
 6467TIP3    H240817   0.272   5.514  16.601 -1.7192  0.8504 -0.9431
 6468TIP3   OH240818   3.766   2.178   1.939 -0.1942 -0.2989  0.5027
 6468TIP3    H140819   3.788   2.086   1.925  0.3999 -0.0636 -0.1652
 6468TIP3    H240820   3.700   2.198   1.872  1.6897  0.4768 -1.2080
 6469TIP3   OH240821   6.055   1.524   2.241 -0.4200 -0.3866 -0.2373
 6469TIP3    H140822   6.006   1.519   2.323  0.0940 -0.5350  0.0701
 6469TIP3    H240823   6.007   1.469   2.180  0.4538 -2.1848  0.6306
 6470TIP3   OH240824   4.099   0.931  16.209 -0.0435  0.2142 -0.4521
 6470TIP3    H140825   4.063   0.861  16.154  1.5612  0.9506 -2.5660
 6470TIP3    H240826   4.041   1.006  16.193  0.2770  0.3561 -0.9702
 6471TIP3   OH240827   5.121   0.943  13.521 -0.3386 -0.0706 -0.0603
 6471TIP3    H140828   5.177   1.011  13.483  0.7541  0.6864  2.6635
 6471TIP3    H240829   5.174   0.904  13.591 -2.3999 -0.9236  1.1206
 6472TIP3   OH240830   1.926   1.475  12.369  0.1867  0.2800  0.0860
 6472TIP3    H140831   1.866   1.536  12.411 -0.4021  0.6750 -1.2583
 6472TIP3    H240832   1.921   1.497  12.276  2.0913  0.0310 -0.1230
 6473TIP3   OH240833   4.973   0.652   3.766  0.0154  0.4523 -0.1978
 6473TIP3    H140834   4.891   0.698   3.787  0.1893  1.1133 -0.9198
 6473TIP3    H240835   5.040   0.699   3.815 -0.0953 -0.4927  0.9208
 6474TIP3   OH240836   5.303   1.601   1.403  0.0100 -0.0224  0.3499
 6474TIP3    H140837   5.320   1.661   1.330  2.7451 -0.4153  0.5500
 6474TIP3    H240838   5.267   1.523   1.361  0.5135  0.1697 -0.4757
 6475TIP3   OH240839   1.214   3.563   6.856  0.4743 -0.1716 -0.1762
 6475TIP3    H140840   1.222   3.605   6.770 -0.3936 -0.4412 -0.3963
 6475TIP3    H240841   1.292   3.508   6.863  0.2358 -0.6420 -1.0664
 6476TIP3   OH240842   6.221   2.289  15.150 -0.1860 -0.1494 -0.4886
 6476TIP3    H140843   6.157   2.246  15.206  1.5093 -2.9251 -0.4659
 6476TIP3    H240844   6.173   2.311  15.070 -1.8145  0.7053  0.6683
 6477TIP3   OH240845   5.716   4.628  13.388  0.0175  0.1707  0.3137
 6477TIP3    H140846   5.784   4.642  13.322 -1.9462 -2.3606 -2.4779
 6477TIP3    H240847   5.700   4.534  13.386 -3.7818  0.6753  0.5299
 6478TIP3   OH240848   0.391   4.159  14.221 -0.3458  0.1428  0.7936
 6478TIP3    H140849   0.478   4.173  14.257 -0.7201  2.8008  0.8364
 6478TIP3    H240850   0.405   4.151  14.126  0.1575 -2.2266  1.0078
 6479TIP3   OH240851   5.949   2.891   5.355 -0.1404  0.0175 -0.2640
 6479TIP3    H140852   5.926   2.983   5.350  0.7147  0.3832  1.6144
 6479TIP3    H240853   5.898   2.857   5.429  2.2146 -0.0899  1.4173
 6480TIP3   OH240854   6.230   6.630  13.542  0.2250  1.2669  0.3598
 6480TIP3    H140855   6.274   6.588  13.616 -0.3113  1.4922  0.8066
 6480TIP3    H240856   6.279   6.599  13.466 -0.0244  0.0083  0.6946
 6481TIP3   OH240857   1.858   2.274   1.582  0.3831 -0.1409 -0.1441
 6481TIP3    H140858   1.788   2.239   1.528 -0.2795 -0.0750  0.6449
 6481TIP3    H240859   1.926   2.206   1.580  0.9879  0.4741 -2.1722
 6482TIP3   OH240860   6.322   1.937   1.802  0.2814 -0.4998 -0.2205
 6482TIP3    H140861   6.275   1.854   1.804 -1.3201  0.3392 -0.5497
 6482TIP3    H240862   6.309   1.975   1.889 -1.3015  0.5486 -0.8536
 6483TIP3   OH240863   1.574   1.588  11.508  0.1937  0.3483  0.1544
 6483TIP3    H140864   1.580   1.496  11.534 -0.7813  0.5406  1.1488
 6483TIP3    H240865   1.661   1.624  11.528  0.5993 -0.3678 -0.3051
 6484TIP3   OH240866   5.191   1.822   3.910 -0.6146  0.2635  0.3870
 6484TIP3    H140867   5.150   1.833   3.824 -1.6039  1.0823  0.9421
 6484TIP3    H240868   5.251   1.896   3.917 -2.2139  1.5422  1.3018
 6485TIP3   OH240869   3.819   2.322  14.373 -0.2335 -0.2703  0.1182
 6485TIP3    H140870   3.912   2.309  14.352  0.0619 -0.1097  1.2606
 6485TIP3    H240871   3.778   2.338  14.289  1.1673  1.9876 -0.2247
 6486TIP3   OH240872   5.852   4.858  16.710  0.3588  0.7368  0.3200
 6486TIP3    H140873   5.860   4.926  16.644  1.7375 -0.6738 -1.0379
 6486TIP3    H240874   5.810   4.785  16.665  0.5846  0.0289  1.2157
 6487TIP3   OH240875   3.410   3.320  12.663 -0.3715  0.3861  0.3925
 6487TIP3    H140876   3.390   3.275  12.581 -2.3616  1.2828  0.3280
 6487TIP3    H240877   3.325   3.346  12.697  0.5722  2.2999  1.4390
 6488TIP3   OH240878   3.811   2.998  14.033  0.0601  0.3501 -0.0662
 6488TIP3    H140879   3.804   3.089  14.062  1.5390  0.5994 -0.4110
 6488TIP3    H240880   3.874   2.958  14.094  0.4583 -0.0708 -0.7345
 6489TIP3   OH240881   4.252   0.794   4.111 -1.0238  0.3191 -0.2387
 6489TIP3    H140882   4.296   0.831   4.035 -1.6990 -1.7449 -1.7287
 6489TIP3    H240883   4.315   0.805   4.183  0.0576  1.3973 -1.2978
 6490TIP3   OH240884   2.053   0.011   3.885  0.0355  0.5189 -0.1554
 6490TIP3    H140885   2.124  -0.050   3.865  1.2401  2.0585 -0.7175
 6490TIP3    H240886   1.973  -0.042   3.874  0.9875 -0.7262 -1.4564
 6491TIP3   OH240887   2.608   2.661  14.854 -0.2294  0.3576  0.0288
 6491TIP3    H140888   2.647   2.745  14.876 -0.5284  0.1525  1.4384
 6491TIP3    H240889   2.540   2.647  14.920 -2.5188  0.5405 -2.1292
 6492TIP3   OH240890   1.283   6.015  14.390 -0.3570 -0.2643  0.0744
 6492TIP3    H140891   1.235   5.950  14.441 -1.0973  1.2815  1.4302
 6492TIP3    H240892   1.240   6.016  14.305 -1.9570  0.1838  0.8546
 6493TIP3   OH240893   2.664   0.498  13.407  0.9329 -0.3565  0.3628
 6493TIP3    H140894   2.589   0.481  13.350  1.7611 -1.4645 -0.4455
 6493TIP3    H240895   2.740   0.489  13.350  1.7293 -0.2204  1.3712
 6494TIP3   OH240896   3.742   0.590  15.255  0.3559 -0.5050  0.5017
 6494TIP3    H140897   3.704   0.576  15.168 -0.8168 -0.2853  0.9651
 6494TIP3    H240898   3.736   0.505  15.298  1.8887 -0.8852  0.0336
 6495TIP3   OH240899   1.525   1.278  13.053 -0.2540 -0.7410  0.2258
 6495TIP3    H140900   1.538   1.224  12.975 -3.5439 -0.5253 -0.6092
 6495TIP3    H240901   1.588   1.349  13.044  0.6179 -1.6682 -1.3366
 6496TIP3   OH240902   2.615   6.409  17.176 -0.0127  0.1556 -0.0363
 6496TIP3    H140903   2.670   6.402  17.254 -1.1872 -1.0976  0.7256
 6496TIP3    H240904   2.661   6.358  17.110 -0.9032 -2.1781  1.0265
 6497TIP3   OH240905   0.969   1.576   2.134 -0.8280 -0.4088  0.2003
 6497TIP3    H140906   1.042   1.516   2.146 -1.5019 -1.0258  1.3727
 6497TIP3    H240907   0.893   1.530   2.170 -1.3427  1.1622  1.2269
 6498TIP3   OH240908   5.354   1.362   2.547  0.5381  0.0706 -0.0056
 6498TIP3    H140909   5.348   1.410   2.630 -1.5206  0.7472 -0.4907
 6498TIP3    H240910   5.318   1.276   2.567  0.3905  0.1079 -0.1119
 6499TIP3   OH240911   4.057   1.927  13.283 -0.6125 -0.0613  0.0448
 6499TIP3    H140912   4.022   1.890  13.203  0.4298  0.6214 -0.7556
 6499TIP3    H240913   4.076   1.852  13.339 -1.7396 -0.5145 -0.1731
 6500TIP3   OH240914   0.639   6.647   3.064 -0.3056  0.2142  0.0044
 6500TIP3    H140915   0.613   6.587   3.134  1.2087  0.9687  1.2993
 6500TIP3    H240916   0.694   6.594   3.007 -1.1943 -0.2998 -0.3869
 6501TIP3   OH240917   1.343   2.353  14.117 -0.4614  0.0481 -0.0043
 6501TIP3    H140918   1.309   2.314  14.037  0.3923 -2.6336  0.8003
 6501TIP3    H240919   1.436   2.369  14.098 -0.1542 -0.9973  0.5318
 6502TIP3   OH240920   2.761   5.719  17.087  0.4865  0.2435 -0.3069
 6502TIP3    H140921   2.736   5.803  17.124  1.1465  1.6442 -2.8021
 6502TIP3    H240922   2.837   5.692  17.137 -1.4170 -0.4162  2.4577
 6503TIP3   OH240923   1.769   1.507  16.464  0.1069  0.3608  0.6193
 6503TIP3    H140924   1.779   1.457  16.383 -3.8189 -0.2586  0.3230
 6503TIP3    H240925   1.779   1.443  16.534  1.1744  0.4453  0.5638
 6504TIP3   OH240926   5.044   5.268   5.842  0.3545 -0.0676 -0.2412
 6504TIP3    H140927   5.028   5.239   5.752  0.8722 -0.1058 -0.3196
 6504TIP3    H240928   4.989   5.211   5.895  0.1656 -0.1483 -0.5186
 6505TIP3   OH240929   5.028   4.774  11.069  0.0021  0.2450 -0.8691
 6505TIP3    H140930   4.986   4.701  11.113  2.2735 -1.1235 -0.7752
 6505TIP3    H240931   5.096   4.803  11.130  1.1239  0.3975 -2.1439
 6506TIP3   OH240932   4.476   0.447   4.728  0.9766  0.4418  0.1290
 6506TIP3    H140933   4.531   0.369   4.735  0.0669 -0.4232 -1.6683
 6506TIP3    H240934   4.402   0.429   4.786  0.9999  0.1834  0.0789
 6507TIP3   OH240935   1.816   3.843  11.480 -0.5777  0.2109 -0.1061
 6507TIP3    H140936   1.773   3.902  11.542  0.9809  0.8183  0.4713
 6507TIP3    H240937   1.788   3.873  11.394 -0.8923  0.9194  0.2344
 6508TIP3   OH240938   1.415   6.308   3.770 -0.2031  0.2409  0.0005
 6508TIP3    H140939   1.327   6.276   3.787  0.4941 -0.9837  1.5412
 6508TIP3    H240940   1.451   6.247   3.705 -0.0376 -0.0857  0.3940
 6509TIP3   OH240941   6.290   4.382  15.770 -0.4639  0.3158  0.0761
 6509TIP3    H140942   6.233   4.358  15.843 -0.1290 -0.6108  0.0495
 6509TIP3    H240943   6.377   4.351  15.796 -0.3681 -0.1493 -0.7679
 6510TIP3   OH240944   4.039   0.037  16.826  0.3363 -0.6188 -0.7035
 6510TIP3    H140945   4.116  -0.013  16.800  0.2037 -0.8803 -0.5977
 6510TIP3    H240946   3.997  -0.017  16.893  1.7236  0.9147  1.5059
 6511TIP3   OH240947   4.081   3.534   3.514 -0.1965  0.0673  0.1324
 6511TIP3    H140948   4.146   3.559   3.448 -1.6132 -0.0850 -1.4132
 6511TIP3    H240949   4.128   3.478   3.575  0.9729 -0.5829 -1.3113
 6512TIP3   OH240950   1.928   1.911   5.843  0.2422 -0.2839  0.0997
 6512TIP3    H140951   1.855   1.891   5.785 -1.9388 -1.4628  2.9785
 6512TIP3    H240952   1.890   1.969   5.909  2.2665  0.0973  0.9909
 6513TIP3   OH240953   0.574   0.744   4.840 -0.1060 -0.3153  0.3747
 6513TIP3    H140954   0.546   0.826   4.800  0.5058 -1.1790 -1.9850
 6513TIP3    H240955   0.665   0.759   4.864 -0.3817  0.1047  1.1896
 6514TIP3   OH240956   6.531   2.331   3.667 -0.0657  0.1922  0.4601
 6514TIP3    H140957   6.440   2.325   3.699 -0.2821  0.0780 -0.1679
 6514TIP3    H240958   6.522   2.356   3.575  0.5481  0.2741  0.4227
 6515TIP3   OH240959   6.239   0.451   2.375 -0.3231 -0.0847  0.1709
 6515TIP3    H140960   6.151   0.482   2.400 -0.5702 -2.0159  1.9154
 6515TIP3    H240961   6.294   0.473   2.449  1.2276  2.8303 -1.6560
 6516TIP3   OH240962   2.150   4.236   0.093 -0.2216  0.2163 -0.2619
 6516TIP3    H140963   2.234   4.277   0.075  0.3771 -1.1215 -0.6100
 6516TIP3    H240964   2.087   4.308   0.091  0.7808  1.0905 -0.9710
 6517TIP3   OH240965   0.578   2.783  15.239  0.6353 -0.4493 -0.5229
 6517TIP3    H140966   0.511   2.729  15.197  0.0283 -0.1268  0.0072
 6517TIP3    H240967   0.529   2.854  15.280  1.2737 -0.3824  0.1443
 6518TIP3   OH240968   2.575   5.230  13.547 -0.0741 -0.6208 -0.2435
 6518TIP3    H140969   2.503   5.274  13.501 -0.2043 -0.3264  0.2344
 6518TIP3    H240970   2.567   5.138  13.521 -0.1068 -0.4533 -0.8608
 6519TIP3   OH240971   2.524   0.135   6.052  0.0802 -0.2233  0.3380
 6519TIP3    H140972   2.510   0.116   5.960  1.3925  1.3917 -0.2476
 6519TIP3    H240973   2.520   0.050   6.095 -0.7376 -0.9779 -1.1700
 6520TIP3   OH240974   4.587   3.666  10.944  0.3076  0.1705  0.3700
 6520TIP3    H140975   4.662   3.705  10.988  0.4682 -0.3147  0.5355
 6520TIP3    H240976   4.621   3.586  10.905 -0.2367 -0.3191  0.8833
 6521TIP3   OH240977   2.777   6.391  14.944  0.1262 -0.3848 -0.2290
 6521TIP3    H140978   2.775   6.306  14.988  1.8508 -1.0315 -1.2732
 6521TIP3    H240979   2.870   6.410  14.934 -0.2121  2.0727  0.7486
 6522TIP3   OH240980   5.707   0.840  13.220  0.3849 -0.1663  0.0724
 6522TIP3    H140981   5.669   0.927  13.230  0.3552  0.1033 -1.9880
 6522TIP3    H240982   5.794   0.855  13.184  0.9771 -0.9608  1.0952
 6523TIP3   OH240983   4.498   5.881  11.464 -0.0620 -0.1922 -0.4317
 6523TIP3    H140984   4.528   5.927  11.385 -0.5281  1.2049  0.1757
 6523TIP3    H240985   4.518   5.941  11.535 -2.8400  0.1601  0.1673
 6524TIP3   OH240986   4.959   3.999  14.336 -0.0739 -0.3273 -0.0991
 6524TIP3    H140987   4.886   3.946  14.304  0.4484 -0.5770 -0.9165
 6524TIP3    H240988   4.929   4.089  14.331 -0.4544 -0.4528 -0.0698
 6525TIP3   OH240989   3.787   6.668   2.195  0.2110  0.0109 -0.4122
 6525TIP3    H140990   3.799   6.759   2.167  0.0923 -0.5928 -2.6299
 6525TIP3    H240991   3.804   6.669   2.289  0.0396  2.3467 -0.3519
 6526TIP3   OH240992   0.638   5.798  10.487 -0.2394  0.1522  0.2106
 6526TIP3    H140993   0.647   5.722  10.430 -0.1501  0.1201  0.2668
 6526TIP3    H240994   0.704   5.859  10.456  0.5363 -0.2864  0.9484
 6527TIP3   OH240995   6.227   5.298  15.829  0.0105 -0.2871 -0.0379
 6527TIP3    H140996   6.227   5.206  15.804  0.3940 -0.1473 -0.5637
 6527TIP3    H240997   6.212   5.346  15.748  2.6566  0.2331 -0.2952
 6528TIP3   OH240998   3.611   6.022   0.586  0.1126  0.4534  0.2222
 6528TIP3    H140999   3.645   5.966   0.516 -1.1744 -0.7010  0.4890
 6528TIP3    H241000   3.577   6.099   0.541  0.5491  0.3592 -0.2801
 6529TIP3   OH241001   3.614   3.466  10.806  0.5916  0.2928  0.8186
 6529TIP3    H141002   3.708   3.447  10.805  0.2980 -1.3487 -0.0719
 6529TIP3    H241003   3.595   3.500  10.719  0.1024 -0.9776  0.4032
 6530TIP3   OH241004   5.983   1.064   5.808  0.0604  0.3199  0.4348
 6530TIP3    H141005   6.068   1.023   5.790  0.1374  0.5664  0.2286
 6530TIP3    H241006   5.930   0.994   5.844 -1.1785 -1.1780 -3.6842
 6531TIP3   OH241007   0.022   3.726   6.393 -0.0891 -0.3219  0.8504
 6531TIP3    H141008  -0.070   3.712   6.416 -1.0275  0.9574 -1.7340
 6531TIP3    H241009   0.049   3.644   6.352 -0.9316  0.1396 -0.7084
 6532TIP3   OH241010   0.458   3.410  12.275  0.2108 -0.3147 -0.5323
 6532TIP3    H141011   0.494   3.480  12.329 -1.2397 -1.2300  1.7858
 6532TIP3    H241012   0.452   3.448  12.187  2.2384  1.4132 -0.0120
 6533TIP3   OH241013   5.112   3.772   2.017  0.1637 -0.4458 -0.0674
 6533TIP3    H141014   5.052   3.800   1.947  0.4904  0.5488  0.0476
 6533TIP3    H241015   5.110   3.843   2.081  1.1390 -0.5977  0.1477
 6534TIP3   OH241016   1.100   3.839   0.724 -0.3950  0.2162 -0.3010
 6534TIP3    H141017   1.114   3.766   0.784 -0.1691  0.7892  0.3553
 6534TIP3    H241018   1.185   3.852   0.682 -0.2052  0.6287  0.1951
 6535TIP3   OH241019   1.725   2.144  17.173 -0.6802 -0.1778  0.2221
 6535TIP3    H141020   1.701   2.058  17.138 -1.7291  0.5365 -0.8476
 6535TIP3    H241021   1.766   2.124  17.258 -0.0941 -1.7832 -0.3996
 6536TIP3   OH241022   3.198   6.116  17.312  0.3962  0.0505 -0.6668
 6536TIP3    H141023   3.220   6.035  17.358  4.1729  1.0138 -0.3776
 6536TIP3    H241024   3.146   6.088  17.237 -0.8778 -2.2431  0.9480
 6537TIP3   OH241025   1.739   5.985   0.066  0.2166 -0.8637  0.4162
 6537TIP3    H141026   1.666   6.045   0.053  1.4393  0.6431  0.2762
 6537TIP3    H241027   1.786   5.986  -0.018  1.5026 -0.2791  1.1216
 6538TIP3   OH241028   0.932   0.901  12.329  0.6727  0.3484  0.3015
 6538TIP3    H141029   0.961   0.810  12.330  1.0285  0.4411  1.8925
 6538TIP3    H241030   0.848   0.900  12.376 -0.4220  0.5508 -1.5493
 6539TIP3   OH241031   1.190   4.134  13.829  0.1044  0.4837  0.2782
 6539TIP3    H141032   1.096   4.120  13.825 -0.1910  1.9338  1.3023
 6539TIP3    H241033   1.208   4.152  13.921  1.6609 -1.3363  0.4031
 6540TIP3   OH241034   6.665   0.564  15.824 -0.0195  0.9257 -0.6306
 6540TIP3    H141035   6.759   0.556  15.834  0.0375  1.4799 -0.7058
 6540TIP3    H241036   6.652   0.592  15.733 -0.3027  0.1224 -0.8520
 6541TIP3   OH241037   1.162   1.746  16.338 -0.8702 -0.3281  0.2487
 6541TIP3    H141038   1.215   1.667  16.345  0.4122  0.6004  1.6262
 6541TIP3    H241039   1.203   1.808  16.398 -1.4782  1.6013 -1.2347
 6542TIP3   OH241040   2.970   3.344  12.871  0.0327 -0.1059 -0.2550
 6542TIP3    H141041   3.048   3.400  12.879 -0.1817  0.0233  1.0323
 6542TIP3    H241042   2.900   3.404  12.844 -0.1019  0.1896  0.7147
 6543TIP3   OH241043   0.932   1.522  12.704  0.8353  0.3631  0.3875
 6543TIP3    H141044   0.941   1.565  12.619  0.1190 -0.1608  0.0415
 6543TIP3    H241045   0.947   1.592  12.768 -0.1678  1.0972 -0.1731
 6544TIP3   OH241046   5.211   4.258   5.622  0.7072 -0.2521 -0.2157
 6544TIP3    H141047   5.158   4.331   5.656  1.6761  1.4599 -2.1540
 6544TIP3    H241048   5.187   4.183   5.677  0.9804  1.8786  3.0881
 6545TIP3   OH241049   0.412   6.737  11.892 -0.7490 -0.5586 -0.5832
 6545TIP3    H141050   0.408   6.774  11.980  1.1291  1.6596 -1.3511
 6545TIP3    H241051   0.478   6.668  11.898  0.2184  0.3560 -0.4723
 6546TIP3   OH241052   2.021   6.666  15.357  0.3037  0.6657 -0.0489
 6546TIP3    H141053   1.953   6.700  15.299 -1.8689 -0.3669  1.7204
 6546TIP3    H241054   2.063   6.745  15.393 -0.9684  1.3959 -0.0944
 6547TIP3   OH241055   4.995   0.035  12.744  0.2554 -0.0656 -0.1050
 6547TIP3    H141056   4.900   0.050  12.744  0.0744 -0.7492  2.2982
 6547TIP3    H241057   5.012  -0.011  12.826  2.5606 -0.8947 -0.9608
 6548TIP3   OH241058   4.602   0.138   4.400 -0.1920 -0.1586 -0.7811
 6548TIP3    H141059   4.551   0.155   4.480 -1.3602  0.2679 -1.5915
 6548TIP3    H241060   4.692   0.128   4.431 -0.6537 -0.2196  0.6159
 6549TIP3   OH241061   0.682   2.504   4.934 -0.2182 -0.0295  0.9317
 6549TIP3    H141062   0.598   2.545   4.954 -0.7793 -0.6208 -0.1489
 6549TIP3    H241063   0.742   2.578   4.923 -0.2158  0.3819  3.1051
 6550TIP3   OH241064   4.959   1.254  13.232 -0.1446 -0.6544 -0.6130
 6550TIP3    H141065   4.873   1.291  13.214  1.0968  1.5143 -2.6469
 6550TIP3    H241066   4.991   1.303  13.307 -0.9765 -2.1049  0.7465
 6551TIP3   OH241067   0.411   1.814  10.924  0.7022 -0.1795  0.4422
 6551TIP3    H141068   0.468   1.884  10.891 -0.3253  0.4851  0.0104
 6551TIP3    H241069   0.383   1.766  10.846 -1.5274  1.2365  0.2734
 6552TIP3   OH241070   1.626   4.632   0.820  1.0201  0.1386  0.0563
 6552TIP3    H141071   1.594   4.557   0.869  1.5885  0.0482  0.2979
 6552TIP3    H241072   1.585   4.708   0.862  1.5267  0.0662  0.7044
 6553TIP3   OH241073   4.561   1.324  11.963  0.6516 -0.5777  0.3735
 6553TIP3    H141074   4.485   1.303  11.908  0.1348  2.6069 -0.3059
 6553TIP3    H241075   4.636   1.320  11.903  0.1457  2.4320 -0.6084
 6554TIP3   OH241076   3.976   4.679   3.884 -0.3160  0.1799 -0.0484
 6554TIP3    H141077   3.969   4.751   3.947  0.3183 -0.3608  0.6418
 6554TIP3    H241078   4.003   4.722   3.803 -1.6376  0.9464 -0.1170
 6555TIP3   OH241079   0.425   5.382   2.901 -0.4734 -0.2985  0.1676
 6555TIP3    H141080   0.355   5.361   2.840  0.8864 -0.9293 -1.2421
 6555TIP3    H241081   0.478   5.303   2.905 -0.0394  0.0378  1.4972
 6556TIP3   OH241082   3.443   2.067  14.918 -0.2736  0.5894  0.1389
 6556TIP3    H141083   3.377   2.013  14.876  0.5537 -1.9474  1.8395
 6556TIP3    H241084   3.505   2.089  14.848 -1.5251  0.8286 -0.9286
 6557TIP3   OH241085   5.927   4.482   5.576  0.3610  0.2633  0.0273
 6557TIP3    H141086   5.833   4.495   5.583  0.4346  0.6615  0.2968
 6557TIP3    H241087   5.961   4.502   5.663  0.5293 -1.3912  0.3831
 6558TIP3   OH241088   3.022   2.910  11.543  0.1431  0.5251  0.6628
 6558TIP3    H141089   3.042   2.827  11.499 -1.8949  0.7162 -0.7926
 6558TIP3    H241090   3.091   2.970  11.512 -0.5119  0.3165 -1.3687
 6559TIP3   OH241091   0.782   5.829   4.444 -0.1227  0.2056  0.2086
 6559TIP3    H141092   0.859   5.775   4.425 -0.6118 -1.1220  1.7451
 6559TIP3    H241093   0.744   5.789   4.523 -2.3317  0.8777 -0.4508
 6560TIP3   OH241094   1.212   4.670   3.923 -0.6228 -0.0835  0.2029
 6560TIP3    H141095   1.226   4.580   3.893 -1.3944  0.2512 -1.2844
 6560TIP3    H241096   1.271   4.723   3.870 -0.1997  0.3050  1.0461
 6561TIP3   OH241097   3.817   5.095   4.779  0.3218 -0.4216  0.1872
 6561TIP3    H141098   3.723   5.074   4.776  0.1119  0.5479 -0.9449
 6561TIP3    H241099   3.860   5.011   4.787 -0.5952 -1.0262 -0.9238
 6562TIP3   OH241100   2.085   6.093  10.820 -0.0055 -0.3061 -0.2856
 6562TIP3    H141101   2.180   6.081  10.812 -0.2590 -1.5467 -1.7392
 6562TIP3    H241102   2.070   6.184  10.795  0.7677 -0.1752 -0.2976
 6563TIP3   OH241103   0.566   4.775   2.876 -0.0325 -0.1698 -0.0567
 6563TIP3    H141104   0.639   4.818   2.920  0.5296 -0.6484 -0.5156
 6563TIP3    H241105   0.600   4.690   2.848 -1.3792 -1.3463  1.6410
 6564TIP3   OH241106   0.064   0.432  16.379  1.0101 -0.7265  0.4718
 6564TIP3    H141107   0.128   0.434  16.450  0.1992  1.0887  1.2292
 6564TIP3    H241108  -0.003   0.370  16.410  0.7857 -0.1395  1.1967
 6565TIP3   OH241109   5.512   4.153   6.232 -0.1975  0.0682  0.8749
 6565TIP3    H141110   5.428   4.192   6.206 -1.1327 -1.5319  1.3582
 6565TIP3    H241111   5.504   4.061   6.209  1.5174 -0.0892  0.7756
 6566TIP3   OH241112   0.999   5.694  16.172  0.7070 -0.3042  0.0180
 6566TIP3    H141113   1.082   5.737  16.195  3.0207 -3.8632 -0.9775
 6566TIP3    H241114   0.974   5.646  16.251 -0.7483  1.0316  0.4400
 6567TIP3   OH241115   6.119   3.368  15.258  0.0156 -0.4255  0.1332
 6567TIP3    H141116   6.184   3.391  15.324 -0.7520 -2.7081  1.8233
 6567TIP3    H241117   6.058   3.310  15.304 -1.4910 -0.8099 -2.1852
 6568TIP3   OH241118   5.944   4.335  11.256 -0.0585  0.1765 -0.5059
 6568TIP3    H141119   5.961   4.412  11.201 -1.6225 -0.3105 -1.7627
 6568TIP3    H241120   5.894   4.276  11.199 -0.8060 -0.8268  1.1135
 6569TIP3   OH241121   6.308   6.564  11.544 -0.1904 -1.1578  0.4080
 6569TIP3    H141122   6.250   6.607  11.607 -0.0209 -1.1768  0.5803
 6569TIP3    H241123   6.366   6.634  11.512 -0.0045 -1.2285  0.5864
 6570TIP3   OH241124   2.176   5.715  16.469  0.2123  0.5032 -0.3057
 6570TIP3    H141125   2.260   5.739  16.507  1.0353  0.6355 -2.1312
 6570TIP3    H241126   2.197   5.683  16.381 -1.3766 -1.9974  0.1247
 6571TIP3   OH241127   0.194   5.031   5.317  0.2357  0.2816  0.4823
 6571TIP3    H141128   0.122   4.997   5.370 -0.7246 -0.0516 -0.9812
 6571TIP3    H241129   0.173   5.005   5.228  2.0231  0.4639 -0.0347
 6572TIP3   OH241130   1.372   4.677  14.171  0.5484  0.0830 -0.1818
 6572TIP3    H141131   1.430   4.601  14.178  2.7635  1.4341 -2.4171
 6572TIP3    H241132   1.293   4.643  14.130  1.2087 -1.1290 -0.5052
 6573TIP3   OH241133   1.089   5.033  14.002  0.2462 -0.7893 -0.0662
 6573TIP3    H141134   1.027   5.094  14.041  0.0573  0.6999 -2.4748
 6573TIP3    H241135   1.148   5.008  14.073 -0.7917  0.7754  1.3922
 6574TIP3   OH241136   2.156   0.871  12.456 -0.3422  0.2024  0.5323
 6574TIP3    H141137   2.107   0.859  12.537 -2.5328  0.3036 -0.7265
 6574TIP3    H241138   2.170   0.966  12.450  0.5971  0.1245  1.1792
 6575TIP3   OH241139   5.109   1.798  16.672 -0.4574 -0.3594 -0.5105
 6575TIP3    H141140   5.176   1.797  16.740 -0.5717  1.1517 -0.3321
 6575TIP3    H241141   5.058   1.719  16.687 -0.1423 -0.3320  0.8320
 6576TIP3   OH241142   6.413   0.304   6.295 -0.0398  0.3485 -0.5522
 6576TIP3    H141143   6.480   0.237   6.278  0.0096 -0.0593  1.1603
 6576TIP3    H241144   6.343   0.258   6.340 -1.6084  0.7405 -2.4226
 6577TIP3   OH241145   6.472   5.750   5.851 -0.4109  0.5760  0.0061
 6577TIP3    H141146   6.409   5.810   5.813  0.7623 -0.3575 -3.9041
 6577TIP3    H241147   6.424   5.667   5.858 -0.2268  0.3512 -1.1237
 6578TIP3   OH241148   4.417   5.498   3.671  0.3923  0.1856 -0.2233
 6578TIP3    H141149   4.443   5.589   3.656  1.4140  0.1647  1.1784
 6578TIP3    H241150   4.349   5.504   3.738  0.3059 -0.0722 -0.2889
 6579TIP3   OH241151   2.256   5.363  16.723  0.7148  0.1399 -0.1774
 6579TIP3    H141152   2.229   5.376  16.632  1.8506 -1.0848 -0.7289
 6579TIP3    H241153   2.315   5.288  16.719  1.7639  0.8412  1.3999
 6580TIP3   OH241154   2.232   3.639  16.752  0.3526 -0.4586  0.1462
 6580TIP3    H141155   2.169   3.567  16.759  0.2644 -0.4579 -0.5742
 6580TIP3    H241156   2.277   3.624  16.669  0.3932  0.2625  0.0235
 6581TIP3   OH241157   3.285   4.748   1.462 -0.8664  1.1410 -0.3667
 6581TIP3    H141158   3.210   4.688   1.470 -0.4788  0.7531  0.4749
 6581TIP3    H241159   3.295   4.785   1.550 -0.2699  1.4269 -0.5537
 6582TIP3   OH241160   1.395   3.450  15.915 -0.1238  0.3334  0.1190
 6582TIP3    H141161   1.478   3.469  15.959  0.8617  1.8898 -2.2087
 6582TIP3    H241162   1.419   3.441  15.822 -2.5110  0.5159 -0.5695
 6583TIP3   OH241163   2.972   5.651   3.073 -0.0482  0.1624 -0.1411
 6583TIP3    H141164   2.886   5.616   3.095 -1.0197  2.3613 -0.1526
 6583TIP3    H241165   3.016   5.663   3.157  0.1219 -0.6362 -0.1111
 6584TIP3   OH241166   1.417   6.563   4.683  0.3132 -0.2380 -0.3980
 6584TIP3    H141167   1.470   6.636   4.714  1.3625 -1.4227  0.7774
 6584TIP3    H241168   1.333   6.601   4.661  1.1173  1.4448 -0.6771
 6585TIP3   OH241169   5.520   3.659  14.774  0.2559 -0.3324  0.3722
 6585TIP3    H141170   5.428   3.636  14.762 -0.1283  0.2510  1.9303
 6585TIP3    H241171   5.561   3.639  14.690 -0.7437 -3.1473  0.4255
 6586TIP3   OH241172   5.430   1.919   6.843 -0.1877  0.2034  0.3853
 6586TIP3    H141173   5.508   1.873   6.874 -2.6453 -2.2223  3.6269
 6586TIP3    H241174   5.461   2.008   6.825  3.7281 -1.2063 -0.8803
 6587TIP3   OH241175   4.800   2.650   2.423 -0.7426 -0.6707  0.3403
 6587TIP3    H141176   4.708   2.661   2.448 -0.4836 -0.6865  1.3367
 6587TIP3    H241177   4.824   2.564   2.456  0.4333  0.4816  2.7315
 6588TIP3   OH241178   0.273   0.794  11.834 -0.0234 -0.1554 -0.2314
 6588TIP3    H141179   0.315   0.878  11.820  0.0005  0.1067  1.2700
 6588TIP3    H241180   0.179   0.812  11.826 -0.0664  0.2074  0.8664
 6589TIP3   OH241181   6.081   1.419  14.784 -0.2811 -0.1407 -0.2478
 6589TIP3    H141182   6.170   1.449  14.803 -0.8945  1.2944  0.5743
 6589TIP3    H241183   6.045   1.488  14.728 -1.3975  0.1558  0.7942
 6590TIP3   OH241184   6.649   1.192   3.072 -0.4347  0.2747 -0.0853
 6590TIP3    H141185   6.604   1.107   3.076 -1.8560  1.0242  0.4484
 6590TIP3    H241186   6.584   1.255   3.102  0.7031  1.5314 -0.1769
 6591TIP3   OH241187   6.556   4.383   3.707 -0.0027 -0.0642  0.7126
 6591TIP3    H141188   6.645   4.369   3.674 -0.3125 -1.0278  0.2488
 6591TIP3    H241189   6.543   4.313   3.771 -0.6231 -0.3005  0.3420
 6592TIP3   OH241190   4.114   3.161   3.440  0.0951  0.1072 -0.4019
 6592TIP3    H141191   4.114   3.185   3.347 -0.4233  1.2073 -0.1388
 6592TIP3    H241192   4.034   3.110   3.453  0.0901  0.0832 -0.5313
 6593TIP3   OH241193   0.657   3.932   3.703  0.2382 -0.0956  0.1211
 6593TIP3    H141194   0.695   3.995   3.642 -1.5950  1.5028  0.5215
 6593TIP3    H241195   0.608   3.872   3.648  0.9927 -0.4653 -0.1687
 6594TIP3   OH241196   0.121   3.800  13.432  0.2320  0.0486  0.1210
 6594TIP3    H141197   0.194   3.762  13.482 -0.7164  0.1049  1.6040
 6594TIP3    H241198   0.091   3.729  13.375 -0.6296 -1.0416  1.8619
 6595TIP3   OH241199   1.746   2.778  14.191 -0.1934  0.6410 -0.2637
 6595TIP3    H141200   1.830   2.733  14.192 -0.3888  0.2739  1.6134
 6595TIP3    H241201   1.682   2.709  14.173 -0.1774  0.8319 -1.1356
 6596TIP3   OH241202   4.286   5.543   2.895  0.0255 -0.4246  0.1538
 6596TIP3    H141203   4.192   5.554   2.913 -0.3256 -0.1203 -1.7007
 6596TIP3    H241204   4.296   5.569   2.804  1.7998 -1.2046  0.0967
 6597TIP3   OH241205   5.327   1.854  14.590  0.4100  0.3945 -0.4705
 6597TIP3    H141206   5.422   1.847  14.580  0.5809  2.9927 -1.3326
 6597TIP3    H241207   5.294   1.855  14.500 -0.3300  0.6146 -0.2018
 6598TIP3   OH241208   4.292   1.482   5.998  0.1306 -0.0621 -0.0445
 6598TIP3    H141209   4.382   1.509   5.979  1.1172 -1.7152  1.8287
 6598TIP3    H241210   4.256   1.553   6.050  1.5634 -0.7261  2.0266
 6599TIP3   OH241211   6.070   2.790  13.720 -0.3516  0.4338  0.4717
 6599TIP3    H141212   6.054   2.812  13.812  0.8890 -1.7275  1.2727
 6599TIP3    H241213   6.071   2.695  13.718  1.1941  0.4281 -1.5089
 6600TIP3   OH241214   0.868   5.941  10.341 -0.5088 -0.2087  0.2912
 6600TIP3    H141215   0.911   6.019  10.305 -1.0162  0.2405  0.6359
 6600TIP3    H241216   0.848   5.887  10.264  2.0985 -1.2220  0.2266
 6601TIP3   OH241217   2.271   5.964  15.080 -0.0800 -0.0287  0.1470
 6601TIP3    H141218   2.317   6.048  15.070 -0.8673  0.3336 -0.6039
 6601TIP3    H241219   2.260   5.932  14.990 -0.1145 -0.7664  0.4054
 6602TIP3   OH241220   2.977   4.407  13.930 -0.0415 -0.1077  0.4641
 6602TIP3    H141221   2.954   4.380  14.019  0.3398 -1.5039  0.1776
 6602TIP3    H241222   2.905   4.463  13.901 -0.9435 -0.9115  1.1037
 6603TIP3   OH241223   0.997   5.967   6.125  0.2247 -0.1697  0.1840
 6603TIP3    H141224   0.983   5.931   6.037  0.1643 -1.1442  0.5785
 6603TIP3    H241225   0.978   6.060   6.116 -1.8929 -0.6115 -0.3589
 6604TIP3   OH241226   0.442   1.222  13.619  0.0647 -0.3462 -0.2579
 6604TIP3    H141227   0.509   1.173  13.572  0.9465 -0.9240  1.5109
 6604TIP3    H241228   0.360   1.197  13.576  0.6659 -2.0354 -0.5045
 6605TIP3   OH241229   5.038   0.996  15.288 -0.7299  0.1589  0.0216
 6605TIP3    H141230   5.075   1.078  15.256  0.4190 -0.9238 -1.6068
 6605TIP3    H241231   4.974   1.022  15.354  1.0518  2.2638  1.0542
 6606TIP3   OH241232   3.281   1.730   3.176  0.2737 -0.4887 -0.0382
 6606TIP3    H141233   3.275   1.759   3.085 -0.8225 -0.1712  0.1151
 6606TIP3    H241234   3.354   1.779   3.213  0.7342 -0.6302 -0.7454
 6607TIP3   OH241235   2.636   5.361   3.954  0.0293 -0.0346  0.0423
 6607TIP3    H141236   2.606   5.316   3.875 -1.3714  0.6927  0.1450
 6607TIP3    H241237   2.702   5.422   3.922  0.4613 -0.6957 -0.3687
 6608TIP3   OH241238   4.597   2.443   0.887  0.1267  0.2771  0.2435
 6608TIP3    H141239   4.601   2.531   0.849 -0.5138  0.0720 -0.3196
 6608TIP3    H241240   4.550   2.391   0.822 -2.2450  0.2042  1.9051
 6609TIP3   OH241241   4.456   3.908  16.573 -0.1806 -0.5212 -0.0375
 6609TIP3    H141242   4.530   3.899  16.633 -0.3589  2.3658  0.7826
 6609TIP3    H241243   4.379   3.904  16.630 -0.6516 -2.0950 -0.7117
 6610TIP3   OH241244   5.842   2.203   0.618  0.1892  0.5484  0.6065
 6610TIP3    H141245   5.872   2.262   0.688  0.3747  1.0343  0.1286
 6610TIP3    H241246   5.814   2.262   0.548 -1.3531  0.0850  0.8123
 6611TIP3   OH241247   5.106   2.098  15.687  0.4435 -0.4155 -0.8466
 6611TIP3    H141248   5.184   2.053  15.719 -0.5365 -0.6206  1.3998
 6611TIP3    H241249   5.075   2.149  15.761 -2.4293 -1.5221 -1.1411
 6612TIP3   OH241250   1.564   4.901  12.688 -0.5079 -0.3916  0.0802
 6612TIP3    H141251   1.528   4.981  12.650 -0.6878 -0.8910 -0.8238
 6612TIP3    H241252   1.500   4.833  12.668 -0.7435 -0.6264  1.5404
 6613TIP3   OH241253   4.961   4.587   5.076 -0.3497  0.6975  0.2809
 6613TIP3    H141254   5.054   4.609   5.078 -0.6567  2.0165  1.1229
 6613TIP3    H241255   4.934   4.588   5.168 -1.3138  0.8865  0.0040
 6614TIP3   OH241256   6.414   2.761  14.321 -0.0131 -0.3694 -0.3590
 6614TIP3    H141257   6.329   2.722  14.342  0.3214 -0.6313  0.5739
 6614TIP3    H241258   6.400   2.804  14.237 -2.1519  2.7667  1.3425
 6615TIP3   OH241259   3.263   1.249   4.218 -0.3585 -0.4167 -0.5759
 6615TIP3    H141260   3.284   1.163   4.182  3.5424 -0.5844  1.5749
 6615TIP3    H241261   3.244   1.232   4.311 -2.2526  0.8409 -0.6720
 6616TIP3   OH241262   0.212   1.691   3.865  0.3076 -0.3086 -0.4918
 6616TIP3    H141263   0.225   1.678   3.771 -1.0086 -1.5133 -0.5482
 6616TIP3    H241264   0.250   1.613   3.905 -0.1736 -0.3513 -0.1158
 6617TIP3   OH241265   6.472   2.041   1.598  0.1984  0.2010  0.1435
 6617TIP3    H141266   6.561   2.070   1.620  0.2986 -0.0286  0.0427
 6617TIP3    H241267   6.425   2.044   1.681  1.0077 -2.2507  0.7642
 6618TIP3   OH241268   5.681   3.424  16.496  0.0260  0.0523 -0.2729
 6618TIP3    H141269   5.702   3.391  16.409 -0.3963 -0.0614 -0.3288
 6618TIP3    H241270   5.678   3.346  16.551  0.4426  0.1382 -0.1244
 6619TIP3   OH241271   3.535   0.557  13.401  0.2012  0.0911 -0.1612
 6619TIP3    H141272   3.498   0.645  13.396  0.3224  0.1220 -0.5200
 6619TIP3    H241273   3.574   0.543  13.315 -0.5753 -0.6566 -0.3974
 6620TIP3   OH241274   4.143   4.661   3.063 -0.5194  0.5212 -0.3652
 6620TIP3    H141275   4.127   4.753   3.039 -1.1291  1.0212  1.7849
 6620TIP3    H241276   4.061   4.633   3.104  0.2131 -0.5055  0.4185
 6621TIP3   OH241277   3.027   1.358  14.731 -0.3868 -0.3896 -0.3324
 6621TIP3    H141278   3.073   1.401  14.659  1.1117 -1.4922 -0.0942
 6621TIP3    H241279   3.088   1.364  14.804 -1.5890  0.0798  0.6590
 6622TIP3   OH241280   1.226   3.054  12.241  0.2287 -0.9854  0.3462
 6622TIP3    H141281   1.307   3.105  12.248  0.2108 -0.8903 -0.1076
 6622TIP3    H241282   1.253   2.974  12.196  0.5184 -1.9616  2.1480
 6623TIP3   OH241283   6.074   5.227   2.414  0.0113  0.3163  0.0275
 6623TIP3    H141284   6.103   5.308   2.457  0.0472 -0.1310  0.8699
 6623TIP3    H241285   5.989   5.249   2.376  0.1784  0.8475 -0.0388
 6624TIP3   OH241286   6.697   6.623   4.345  0.7039 -0.0682  0.0996
 6624TIP3    H141287   6.688   6.607   4.251  1.5896 -1.9131  0.2991
 6624TIP3    H241288   6.783   6.589   4.368 -0.1863 -1.2995  1.8953
 6625TIP3   OH241289   4.572   6.615   4.406 -0.4116  0.1378 -0.1807
 6625TIP3    H141290   4.625   6.606   4.327 -1.2577  1.3013 -0.9046
 6625TIP3    H241291   4.485   6.637   4.374 -1.0746 -0.6253  1.0398
 6626TIP3   OH241292   3.580   2.544   4.252 -0.4504  0.3763  0.4381
 6626TIP3    H141293   3.496   2.572   4.216 -1.0407 -0.3467  1.2337
 6626TIP3    H241294   3.583   2.582   4.340 -0.7480 -1.0507  1.0892
 6627TIP3   OH241295   0.182   0.925   2.608 -0.0298 -0.4826 -0.3856
 6627TIP3    H141296   0.265   0.937   2.561 -0.2884 -0.9391 -0.9684
 6627TIP3    H241297   0.117   0.969   2.553 -0.1428  0.0834  0.1913
 6628TIP3   OH241298   1.726   1.437  17.264 -0.9331 -0.7989 -0.2552
 6628TIP3    H141299   1.683   1.406  17.344 -0.7054  0.6746  0.4641
 6628TIP3    H241300   1.667   1.504  17.230 -0.2985 -0.3585 -0.4980
 6629TIP3   OH241301   5.912   4.116  16.056  0.3742  0.6670 -0.5884
 6629TIP3    H141302   5.895   4.207  16.079 -2.2832 -0.3001  1.9306
 6629TIP3    H241303   5.829   4.084  16.020 -0.5887 -1.8931  3.2232
 6630TIP3   OH241304   2.248   4.550  13.094  0.0271 -0.0658 -0.2965
 6630TIP3    H141305   2.316   4.593  13.042  0.1393  0.9391  0.6598
 6630TIP3    H241306   2.282   4.549  13.183  0.0008 -2.1200 -0.2531
 6631TIP3   OH241307   6.328   4.184  13.842 -0.5159 -0.3746 -0.5910
 6631TIP3    H141308   6.286   4.116  13.894 -0.9268 -0.2914 -0.8161
 6631TIP3    H241309   6.307   4.162  13.751 -0.2284 -0.2292 -0.6951
 6632TIP3   OH241310   3.110   4.893  15.466  0.3073  0.5637 -0.2078
 6632TIP3    H141311   3.100   4.947  15.544 -0.5439 -0.9510  0.7785
 6632TIP3    H241312   3.176   4.828  15.490 -0.4505 -0.3311 -0.4955
 6633TIP3   OH241313   0.581   5.635  13.378 -0.1649  0.1626  0.1645
 6633TIP3    H141314   0.511   5.652  13.315  0.4761 -0.9364 -0.8942
 6633TIP3    H241315   0.634   5.567  13.336  0.5544 -0.2559  1.7020
 6634TIP3   OH241316   3.533   3.695  12.039 -0.4022 -0.0285 -0.4938
 6634TIP3    H141317   3.607   3.698  11.978  0.5757 -0.3935  0.6259
 6634TIP3    H241318   3.468   3.640  11.996 -0.5650  1.2863 -2.0393
 6635TIP3   OH241319   1.927   3.658   3.334 -1.0021 -0.2363 -0.2314
 6635TIP3    H141320   1.922   3.637   3.427 -0.6636  0.2889 -0.0860
 6635TIP3    H241321   1.870   3.594   3.292 -0.4189 -1.0948  0.2370
 6636TIP3   OH241322   5.012   0.580   1.948 -0.3007 -0.1669  0.1447
 6636TIP3    H141323   5.006   0.551   2.039  1.1545  0.8584  0.6003
 6636TIP3    H241324   5.017   0.499   1.898  0.1295 -0.7366  1.0864
 6637TIP3   OH241325   4.949   1.343  15.645  0.1266  0.1328 -0.1516
 6637TIP3    H141326   4.942   1.381  15.733  0.6537  0.1152 -0.1014
 6637TIP3    H241327   5.027   1.382  15.607  0.1030 -0.1323 -0.4810
 6638TIP3   OH241328   2.445   6.657  14.273  0.3029 -0.0733  0.1020
 6638TIP3    H141329   2.520   6.668  14.331 -0.2970 -1.4147  1.1699
 6638TIP3    H241330   2.457   6.570  14.234  0.2425  0.4514 -1.1424
 6639TIP3   OH241331   6.190   3.337   4.368  0.4241 -0.0499  0.2265
 6639TIP3    H141332   6.174   3.297   4.283  0.8797 -0.4966  0.3449
 6639TIP3    H241333   6.179   3.431   4.353 -0.6574 -0.2149 -0.0546
 6640TIP3   OH241334   4.125   3.321  14.182  0.0588 -0.0759 -0.1771
 6640TIP3    H141335   4.157   3.406  14.214 -0.8339 -0.1432  0.9480
 6640TIP3    H241336   4.030   3.328  14.187 -0.1172 -0.3517 -2.2578
 6641TIP3   OH241337   4.755   0.184   5.097 -0.4732  0.2031 -0.1557
 6641TIP3    H141338   4.837   0.220   5.133 -0.4521 -0.3263  0.3373
 6641TIP3    H241339   4.774   0.172   5.004  0.5783 -1.4506  0.2401
 6642TIP3   OH241340   4.508   5.129  16.557 -0.3427  0.3708  0.5717
 6642TIP3    H141341   4.495   5.041  16.521  1.6200 -0.3097  1.3637
 6642TIP3    H241342   4.442   5.137  16.625 -1.1101 -0.1344 -0.0935
 6643TIP3   OH241343   0.917   6.618   1.088 -0.1578 -0.0200 -0.2349
 6643TIP3    H141344   0.844   6.610   1.027  0.4892  0.2066 -1.0387
 6643TIP3    H241345   0.932   6.528   1.119 -1.3110  0.0436  0.5860
 6644TIP3   OH241346   2.265   1.368   0.334 -0.3835 -0.3798 -0.4365
 6644TIP3    H141347   2.350   1.379   0.291  0.7199 -2.0232  1.1463
 6644TIP3    H241348   2.211   1.323   0.269  0.8415 -1.6762 -0.6238
 6645TIP3   OH241349   0.943   1.962   3.642 -0.2735  0.0670  0.0152
 6645TIP3    H141350   0.944   1.871   3.671 -0.9531 -0.4037 -1.3426
 6645TIP3    H241351   0.896   2.008   3.711 -0.5234 -0.7349  0.3970
 6646TIP3   OH241352   2.574   3.317   3.354  0.2917  0.2906 -0.1141
 6646TIP3    H141353   2.557   3.223   3.361 -3.0145  0.6092 -1.7227
 6646TIP3    H241354   2.566   3.349   3.444 -1.7879 -0.6049  0.0851
 6647TIP3   OH241355   2.264   6.566  11.745  0.1104  0.2816  0.5086
 6647TIP3    H141356   2.285   6.549  11.837 -0.2658  0.2748  0.5944
 6647TIP3    H241357   2.341   6.610  11.710 -0.0676  1.0181  1.0358
 6648TIP3   OH241358   1.158   6.327  17.157  0.2519 -0.3393  0.2111
 6648TIP3    H141359   1.176   6.243  17.115 -0.8529 -0.3803 -0.2181
 6648TIP3    H241360   1.065   6.341  17.144  1.0286  3.0318 -3.6840
 6649TIP3   OH241361   3.154   0.308   4.789 -0.2288 -0.7354  0.3182
 6649TIP3    H141362   3.068   0.344   4.766 -0.1903 -2.2419 -2.6194
 6649TIP3    H241363   3.160   0.226   4.741  3.0128 -0.5372  0.1323
 6650TIP3   OH241364   3.955   0.602   3.196  0.0816 -0.6863  0.2418
 6650TIP3    H141365   3.963   0.513   3.162  1.0840 -1.6427  2.7353
 6650TIP3    H241366   4.018   0.653   3.146  0.1163 -1.5637 -0.6300
 6651TIP3   OH241367   3.715   5.953   2.981  0.7158  0.2588 -0.3654
 6651TIP3    H141368   3.729   5.878   3.039 -1.9185 -0.1641 -0.1634
 6651TIP3    H241369   3.661   6.013   3.032 -1.1066  0.1767 -2.0533
 6652TIP3   OH241370   3.306   1.968   1.578 -0.5547  0.3869  0.2401
 6652TIP3    H141371   3.248   1.900   1.543 -0.3290 -0.3700  1.2807
 6652TIP3    H241372   3.336   2.016   1.501 -0.7180 -0.7003 -0.5199
 6653TIP3   OH241373   0.773   5.671   3.700 -0.0505 -0.3692  0.7923
 6653TIP3    H141374   0.768   5.598   3.763  0.9879  0.4579  1.8920
 6653TIP3    H241375   0.848   5.649   3.645 -0.1580 -0.4641  0.6842
 6654TIP3   OH241376   1.912   1.300  14.955  0.4922  0.0596 -0.7172
 6654TIP3    H141377   1.841   1.253  15.000  0.3596 -0.3150 -1.3092
 6654TIP3    H241378   1.967   1.334  15.026 -0.9194  1.3813 -0.2219
 6655TIP3   OH241379   1.494   1.338   1.821 -0.3582  0.1415 -0.1079
 6655TIP3    H141380   1.441   1.330   1.900 -2.1037  1.0377 -1.1298
 6655TIP3    H241381   1.557   1.266   1.827 -1.2762 -0.5891  1.4610
 6656TIP3   OH241382   1.905   2.808   3.788 -0.1439 -0.1247  0.0036
 6656TIP3    H141383   1.886   2.899   3.767  2.3364  0.4662  0.0595
 6656TIP3    H241384   1.900   2.804   3.884 -2.4436 -0.6555 -0.0664
 6657TIP3   OH241385   5.021   3.077   4.370  0.1672 -0.1798 -0.0015
 6657TIP3    H141386   4.949   3.032   4.326  0.7407 -0.4617 -0.6552
 6657TIP3    H241387   4.980   3.156   4.407 -0.7705 -1.0329  0.8637
 6658TIP3   OH241388   0.020   6.433  10.790  0.3561 -0.2435  0.2997
 6658TIP3    H141389  -0.010   6.342  10.779 -0.2573 -0.0460  0.3540
 6658TIP3    H241390   0.114   6.424  10.808  0.0174 -0.9577  1.9130
 6659TIP3   OH241391   0.197   0.204  12.974 -0.0988 -0.5238  0.2323
 6659TIP3    H141392   0.229   0.287  12.939 -0.6826  0.1809  1.3074
 6659TIP3    H241393   0.170   0.225  13.064  0.0565 -1.9545  0.6303
 6660TIP3   OH241394   2.281   5.324  13.566 -0.5870 -0.2932 -0.1620
 6660TIP3    H141395   2.201   5.373  13.547 -0.6859  0.5490  2.1354
 6660TIP3    H241396   2.251   5.235  13.583 -1.3295  0.3299  2.2020
 6661TIP3   OH241397   5.167   4.393  16.063 -0.5618 -0.0608 -0.3270
 6661TIP3    H141398   5.102   4.463  16.067 -0.4565  0.0028  1.0359
 6661TIP3    H241399   5.153   4.343  16.144  1.7460  0.5988  0.5924
 6662TIP3   OH241400   0.323   2.550   1.889  0.4227  0.2443  0.3514
 6662TIP3    H141401   0.235   2.586   1.900 -0.4034 -2.0849  2.2309
 6662TIP3    H241402   0.356   2.591   1.809 -2.6998  0.6089 -0.8774
 6663TIP3   OH241403   6.070   4.545  12.006 -0.6822  0.2579  0.2033
 6663TIP3    H141404   6.068   4.586  12.092  0.1086  0.7198  0.0064
 6663TIP3    H241405   6.162   4.522  11.992 -1.0165 -1.0881  0.0680
 6664TIP3   OH241406   6.087   3.474   4.626 -0.1081  0.2675 -0.2092
 6664TIP3    H141407   6.090   3.428   4.710  0.3285 -0.2675 -0.5079
 6664TIP3    H241408   6.008   3.441   4.583  1.8883 -2.8722 -1.8631
 6665TIP3   OH241409   5.237   5.087   1.477  0.1295 -0.0883  0.1353
 6665TIP3    H141410   5.180   5.039   1.417 -0.1661  0.3732  0.0498
 6665TIP3    H241411   5.205   5.177   1.475 -1.0798 -0.3950  2.3524
 6666TIP3   OH241412   5.555   1.342  11.579 -0.0238 -0.2837  0.0802
 6666TIP3    H141413   5.564   1.342  11.484  0.6539  0.5850  0.1323
 6666TIP3    H241414   5.465   1.315  11.595 -0.4589  0.5543 -0.8545
 6667TIP3   OH241415   5.986   3.377   0.470  0.2689 -0.3160  0.2025
 6667TIP3    H141416   6.066   3.371   0.418 -0.1371  0.1529 -0.4830
 6667TIP3    H241417   5.939   3.451   0.434  0.2076  0.3444  1.5669
 6668TIP3   OH241418   1.700   5.630  16.700 -0.1224  0.2581  0.1643
 6668TIP3    H141419   1.644   5.579  16.758 -0.3433  0.9033  0.5277
 6668TIP3    H241420   1.707   5.716  16.742  1.9636 -0.1023  0.6564
 6669TIP3   OH241421   6.201   3.867  11.741  0.2383  0.0034 -0.2828
 6669TIP3    H141422   6.117   3.842  11.781  0.3334  1.7932  1.1802
 6669TIP3    H241423   6.176   3.902  11.655 -0.7354  1.6675  0.6092
 6670TIP3   OH241424   4.615   5.579  13.321  0.5213  0.2638  0.0980
 6670TIP3    H141425   4.641   5.487  13.326  0.1984  0.0465 -1.6478
 6670TIP3    H241426   4.695   5.624  13.294  0.9176  0.6607  1.8145
 6671TIP3   OH241427   4.205   2.255   2.531  0.6049 -0.3182 -0.2990
 6671TIP3    H141428   4.282   2.300   2.564  0.3612 -0.3655  0.3605
 6671TIP3    H241429   4.164   2.218   2.609 -1.2769  1.5578 -0.3138
 6672TIP3   OH241430   1.333   0.786  11.253  0.5857  0.8443 -0.1046
 6672TIP3    H141431   1.249   0.780  11.207  0.8356  2.7294 -0.9222
 6672TIP3    H241432   1.397   0.800  11.183  1.4614  0.3811  0.5920
 6673TIP3   OH241433   5.467   3.095   5.645 -0.0760 -0.3254  0.2398
 6673TIP3    H141434   5.462   3.000   5.656 -0.7686 -0.1705  1.4599
 6673TIP3    H241435   5.548   3.109   5.596 -0.1501 -1.5633 -0.2670
 6674TIP3   OH241436   2.553   5.185  14.902 -0.0070  0.6385 -0.2570
 6674TIP3    H141437   2.615   5.250  14.868  0.0894  0.8843  0.3619
 6674TIP3    H241438   2.524   5.222  14.985 -1.9166  1.1042 -1.0831
 6675TIP3   OH241439   3.463   2.413  12.395  0.4051  0.2778 -0.2740
 6675TIP3    H141440   3.534   2.357  12.428  0.3706  1.3397  1.7556
 6675TIP3    H241441   3.500   2.501  12.395 -0.7678  0.7937  0.4353
 6676TIP3   OH241442   6.741   4.394  13.759 -0.6834  0.2320  0.0364
 6676TIP3    H141443   6.681   4.375  13.831 -0.5139  2.2639  0.7914
 6676TIP3    H241444   6.828   4.384  13.797 -0.5944  1.5162  0.2062
 6677TIP3   OH241445   6.414   4.086  10.759  0.0198 -0.2060 -0.3059
 6677TIP3    H141446   6.446   4.110  10.672  0.7094 -0.0804 -0.0251
 6677TIP3    H241447   6.355   4.012  10.743  0.3547 -0.3605 -0.8564
 6678TIP3   OH241448   1.239   3.938  13.415  0.1187  0.4101 -0.0464
 6678TIP3    H141449   1.181   3.866  13.442  0.4461 -0.2169 -0.9889
 6678TIP3    H241450   1.285   3.963  13.495 -1.0684  0.5847  0.6174
 6679TIP3   OH241451   1.326   1.345  14.048 -0.2300 -0.2215 -0.0517
 6679TIP3    H141452   1.399   1.314  14.101  0.6115  1.4228 -0.2140
 6679TIP3    H241453   1.364   1.365  13.963 -1.2341 -1.1081 -0.7341
 6680TIP3   OH241454   3.792   3.328   0.151  0.0640 -0.0228  0.1761
 6680TIP3    H141455   3.860   3.387   0.184 -2.2848  2.3247  1.1772
 6680TIP3    H241456   3.752   3.290   0.230  0.6825 -2.0675 -0.4203
 6681TIP3   OH241457   3.534   0.244   3.555  0.5702  0.0392  0.1123
 6681TIP3    H141458   3.616   0.201   3.578  0.8681  0.5193 -0.0300
 6681TIP3    H241459   3.536   0.250   3.460 -1.2579 -3.1249 -0.2716
 6682TIP3   OH241460   5.092   1.010   2.912  0.0383 -0.3430  0.5358
 6682TIP3    H141461   5.064   0.927   2.953 -0.0024 -0.9755 -0.7223
 6682TIP3    H241462   5.181   0.992   2.882  0.4850  0.4887  1.3392
 6683TIP3   OH241463   1.507   3.265  11.754  0.0050 -0.4949 -0.0104
 6683TIP3    H141464   1.564   3.202  11.710 -0.6832 -0.4679 -0.9805
 6683TIP3    H241465   1.476   3.220  11.832 -0.7209 -1.4919 -0.8460
 6684TIP3   OH241466   5.255   0.490  10.841 -0.0437 -0.1538  0.0494
 6684TIP3    H141467   5.276   0.496  10.934 -0.1904  2.4799 -0.0144
 6684TIP3    H241468   5.333   0.525  10.797 -0.8133  0.6858 -0.6728
 6685TIP3   OH241469   6.067   1.992   5.393 -0.2891  0.6090 -0.2473
 6685TIP3    H141470   6.151   2.010   5.350 -0.4062 -1.0148 -1.2375
 6685TIP3    H241471   6.008   1.969   5.322 -1.0893 -0.0508  0.6069
 6686TIP3   OH241472   1.148   1.029  12.220  0.0864 -0.2907 -0.2371
 6686TIP3    H141473   1.202   0.958  12.187 -1.5445 -2.3440  1.2395
 6686TIP3    H241474   1.060   0.992  12.227 -0.6189  1.5212  1.6296
 6687TIP3   OH241475   4.429   5.763  15.314 -0.9017  0.4563 -0.0831
 6687TIP3    H141476   4.406   5.672  15.295  2.2052 -0.1715 -1.5376
 6687TIP3    H241477   4.370   5.814  15.259 -2.3012 -0.6792  0.3008
 6688TIP3   OH241478   6.163   0.955   0.127 -0.0635  0.0500  0.3872
 6688TIP3    H141479   6.102   0.916   0.190  0.0578  0.0426  0.4981
 6688TIP3    H241480   6.109   1.017   0.078 -0.4934 -0.9271 -0.4239
 6689TIP3   OH241481   1.458   5.118   5.420  0.2602 -0.0049  0.6763
 6689TIP3    H141482   1.522   5.092   5.486 -0.6498 -1.8454  0.8920
 6689TIP3    H241483   1.472   5.212   5.409  1.8401 -0.0514  1.9454
 6690TIP3   OH241484   6.314   6.270  13.964  0.2225 -0.3870 -0.3237
 6690TIP3    H141485   6.250   6.238  13.901 -0.0348 -0.6989  0.0919
 6690TIP3    H241486   6.322   6.200  14.029 -0.6194  0.5046  0.7999
 6691TIP3   OH241487   3.493   1.342   1.103 -0.0646 -0.3396  0.7913
 6691TIP3    H141488   3.572   1.388   1.076  0.6752 -0.4595  2.6097
 6691TIP3    H241489   3.523   1.257   1.134 -1.0561 -0.8326  0.4767
 6692TIP3   OH241490   2.400   2.346  13.029 -0.2187  0.6753 -0.3275
 6692TIP3    H141491   2.389   2.420  13.088 -0.0698  0.4536 -0.0168
 6692TIP3    H241492   2.355   2.274  13.073 -0.1444  0.5205 -0.5049
 6693TIP3   OH241493   4.602   4.352   1.642 -0.6025  0.4589 -0.3534
 6693TIP3    H141494   4.584   4.387   1.555  2.3931  2.2041 -0.4309
 6693TIP3    H241495   4.621   4.260   1.627 -1.3987  0.4432 -1.3472
 6694TIP3   OH241496   1.970   6.529  12.288 -0.0026 -0.4102  0.0087
 6694TIP3    H141497   1.900   6.594  12.282 -1.1909 -1.6618 -0.1687
 6694TIP3    H241498   2.051   6.579  12.275 -0.9593  0.7902 -1.6107
 6695TIP3   OH241499   0.259   2.838   4.410 -0.3917  0.4647 -0.3237
 6695TIP3    H141500   0.178   2.801   4.375 -1.1867  1.1232  0.7388
 6695TIP3    H241501   0.282   2.779   4.482  0.3123  0.0500 -0.8781
 6696TIP3   OH241502   3.039   1.443  16.164  0.1684 -0.9402  0.3157
 6696TIP3    H141503   3.054   1.459  16.257  2.8688  0.3148 -0.2328
 6696TIP3    H241504   3.044   1.530  16.124  0.5880 -1.6077 -1.1654
 6697TIP3   OH241505   1.052   0.227   5.906  0.1889 -0.5953  0.0809
 6697TIP3    H141506   1.108   0.268   5.972 -0.2348  0.2497 -0.0703
 6697TIP3    H241507   1.090   0.255   5.823  0.1339 -0.8491 -0.0295
 6698TIP3   OH241508   2.076   3.986   5.036  0.0331  1.1510  0.2966
 6698TIP3    H141509   2.047   3.989   5.127 -1.2462 -3.0737  0.2215
 6698TIP3    H241510   2.168   3.960   5.040  0.1083  1.4177  0.3526
 6699TIP3   OH241511   0.204   0.491  15.564 -0.4049  0.3721 -0.5631
 6699TIP3    H141512   0.286   0.441  15.559 -1.5223 -1.6493  0.1650
 6699TIP3    H241513   0.136   0.428  15.543 -1.8353  1.9419 -0.8823
 6700TIP3   OH241514   2.218   0.012  12.581 -0.0599  0.5078 -0.1873
 6700TIP3    H141515   2.276  -0.063  12.589  0.0664  0.5868 -0.3592
 6700TIP3    H241516   2.273   0.082  12.546  0.3096  1.2587  1.7443
 6701TIP3   OH241517   6.128   1.923   0.370  0.0591 -0.5816  0.0543
 6701TIP3    H141518   6.195   1.854   0.365  0.2445 -0.4679  0.8224
 6701TIP3    H241519   6.127   1.962   0.283  0.6262 -0.9282 -0.1143
 6702TIP3   OH241520   6.148   2.131   4.697 -0.1089 -1.0113 -0.3445
 6702TIP3    H141521   6.185   2.078   4.627  0.8910 -2.3695  1.1472
 6702TIP3    H241522   6.224   2.164   4.745 -0.7763 -0.2401  0.2099
 6703TIP3   OH241523   6.288   4.622   4.718  0.0482  0.2423  0.1950
 6703TIP3    H141524   6.203   4.650   4.682 -0.3827 -0.8292  0.3485
 6703TIP3    H241525   6.268   4.542   4.766  1.5010 -1.3537 -1.7005
 6704TIP3   OH241526   4.748   0.859   6.180  0.0961 -0.1571 -0.3041
 6704TIP3    H141527   4.779   0.879   6.269  0.9297  0.2039 -0.6697
 6704TIP3    H241528   4.703   0.939   6.152 -1.4622 -0.7598  0.3180
 6705TIP3   OH241529   4.552   3.990  17.062  0.3444  0.3003  0.5522
 6705TIP3    H141530   4.585   4.037  17.138  0.2267  0.4222  0.5294
 6705TIP3    H241531   4.530   3.903  17.096 -0.0590  0.4722  0.7395
 6706TIP3   OH241532   3.402   2.251  17.041  0.0990  0.3692 -0.5673
 6706TIP3    H141533   3.472   2.213  16.988 -1.1105  0.8097 -2.6219
 6706TIP3    H241534   3.332   2.185  17.039  0.3906 -0.0364  1.3849
 6707TIP3   OH241535   5.630   1.445   0.161  0.1234  0.2024 -0.6234
 6707TIP3    H141536   5.589   1.523   0.198 -0.3709 -1.2098  1.9434
 6707TIP3    H241537   5.562   1.405   0.107 -0.1489  0.6730 -0.6336
 6708TIP3   OH241538   1.195   2.782  13.691 -0.0645 -0.5926  0.2469
 6708TIP3    H141539   1.149   2.864  13.712 -0.6877 -0.9226  0.1888
 6708TIP3    H241540   1.288   2.805  13.697 -0.1925 -0.4374  2.5206
 6709TIP3   OH241541   3.686   0.437   0.853 -0.1445  0.0240  0.6137
 6709TIP3    H141542   3.771   0.476   0.872  0.1177 -1.0172  1.6902
 6709TIP3    H241543   3.641   0.502   0.798  1.5421  0.3388 -0.4576
 6710TIP3   OH241544   4.592   2.104  12.403  0.0280  0.2144 -1.1652
 6710TIP3    H141545   4.577   2.080  12.494 -0.6703  1.1658 -1.0146
 6710TIP3    H241546   4.659   2.172  12.406  2.0246 -1.6077 -1.5928
 6711TIP3   OH241547   5.083   1.527  15.173 -0.1292  0.3995  0.3442
 6711TIP3    H141548   5.111   1.564  15.089 -0.8793 -2.0139 -1.0723
 6711TIP3    H241549   5.029   1.595  15.212  0.2861  1.6221 -1.1025
 6712TIP3   OH241550   4.629   3.436  14.514  0.1172  0.3732 -0.6762
 6712TIP3    H141551   4.566   3.507  14.503  1.2486  1.3631 -1.1187
 6712TIP3    H241552   4.711   3.472  14.479  0.8638 -0.9504 -0.3601
 6713TIP3   OH241553   5.710   4.125   0.864  0.2120  0.3514 -0.6899
 6713TIP3    H141554   5.645   4.078   0.812  0.5669  1.1901 -1.9626
 6713TIP3    H241555   5.664   4.201   0.899 -0.0496 -0.2635  0.3055
 6714TIP3   OH241556   0.031   6.053  14.549  0.8282 -0.1940 -0.4285
 6714TIP3    H141557   0.045   6.132  14.600  0.5235 -0.4846  0.1100
 6714TIP3    H241558   0.059   5.982  14.606 -0.2410 -0.5794 -0.3663
 6715TIP3   OH241559   0.028   0.139  13.591  0.5121  0.2508  0.6042
 6715TIP3    H141560  -0.016   0.193  13.526  1.4760  1.3400  0.8113
 6715TIP3    H241561  -0.035   0.130  13.663 -0.1320  0.0052  0.0148
 6716TIP3   OH241562   5.534   0.305   3.009 -0.0365  0.0224  0.6917
 6716TIP3    H141563   5.560   0.396   3.026 -0.1981 -0.0172  1.1808
 6716TIP3    H241564   5.568   0.286   2.922  1.0885  0.1594  1.0794
 6717TIP3   OH241565   4.491   6.474  14.409  0.1227  0.0883 -0.0035
 6717TIP3    H141566   4.551   6.527  14.355 -0.5696  0.4125 -0.4737
 6717TIP3    H241567   4.457   6.408  14.349  0.0380 -0.1165  0.2682
 6718TIP3   OH241568   0.085   1.021   1.208 -0.0957  0.0368  0.5644
 6718TIP3    H141569   0.040   1.037   1.125  3.0827  0.0244 -1.3705
 6718TIP3    H241570   0.079   0.927   1.221 -1.8202  0.2023  1.1715
 6719TIP3   OH241571   1.022   0.757  14.518 -0.3876  0.0029 -0.1862
 6719TIP3    H141572   0.992   0.740  14.428 -1.7510 -0.1686  0.2714
 6719TIP3    H241573   0.942   0.778  14.566  0.0716 -1.5861  1.3813
 6720TIP3   OH241574   1.489   2.461  14.627  0.3137  0.1644 -0.1351
 6720TIP3    H141575   1.572   2.413  14.627  0.5837  0.6190  0.5234
 6720TIP3    H241576   1.424   2.395  14.603  0.7596 -0.4000  0.1741
 6721TIP3   OH241577   3.542   4.785  11.759  0.2007 -0.1208  0.5140
 6721TIP3    H141578   3.513   4.870  11.792 -1.1263 -0.2058 -0.3470
 6721TIP3    H241579   3.629   4.802  11.723  0.1590  0.7580  0.7958
 6722TIP3   OH241580   0.302   4.960  13.621 -0.1630 -0.1174 -0.2886
 6722TIP3    H141581   0.353   4.926  13.695  1.2087  0.0723 -1.1160
 6722TIP3    H241582   0.211   4.940  13.643  0.2407 -0.2468  1.3463
 6723TIP3   OH241583   5.980   6.730   5.722 -0.0650  0.4150 -0.1580
 6723TIP3    H141584   5.937   6.792   5.663 -0.8667  0.4260  0.4314
 6723TIP3    H241585   5.909   6.690   5.771  0.6448  1.0504  1.4358
 6724TIP3   OH241586   6.042   6.755  12.731 -0.3459 -0.2352 -0.4987
 6724TIP3    H141587   5.994   6.717  12.805  0.3312 -0.6271 -0.2530
 6724TIP3    H241588   6.063   6.844  12.759  0.1504 -0.4719 -0.0930
 6725TIP3   OH241589   1.718   4.928  15.345 -0.6903 -0.3809  0.6636
 6725TIP3    H141590   1.763   4.942  15.262 -1.9861  1.2881  0.1708
 6725TIP3    H241591   1.629   4.904  15.320 -0.8433 -0.8178  1.5835
 6726TIP3   OH241592   5.570   3.964  16.414 -0.0722  0.3505  0.2151
 6726TIP3    H141593   5.515   3.921  16.348 -0.3789 -1.7905  1.7740
 6726TIP3    H241594   5.659   3.949  16.384 -0.1995 -0.8843  0.4039
 6727TIP3   OH241595   3.678   1.239  16.220 -0.1960  0.3591 -0.1684
 6727TIP3    H141596   3.705   1.331  16.230 -2.0679  0.7440  2.1354
 6727TIP3    H241597   3.592   1.244  16.178  0.0433 -0.4180 -0.7734
 6728TIP3   OH241598   0.387   1.421   5.481 -0.6866 -0.2991 -0.9306
 6728TIP3    H141599   0.355   1.500   5.526 -0.7873 -0.2300 -1.1246
 6728TIP3    H241600   0.307   1.378   5.450 -0.6897 -0.8997 -0.1224
 6729TIP3   OH241601   1.824   1.210   5.661  0.1492 -0.1905 -0.4944
 6729TIP3    H141602   1.902   1.214   5.605  0.2921  1.3242 -0.2402
 6729TIP3    H241603   1.801   1.117   5.663  2.1461 -0.7412 -0.2989
 6730TIP3   OH241604   2.681   5.787  14.747 -0.5497  0.0585 -0.1119
 6730TIP3    H141605   2.647   5.866  14.704  0.1464  0.2244 -0.3621
 6730TIP3    H241606   2.773   5.784  14.723 -0.0575  0.3081  1.5960
 6731TIP3   OH241607   5.237   5.703   5.983 -0.3496 -0.2296  0.0752
 6731TIP3    H141608   5.179   5.677   5.911 -0.6085  0.3464  0.0684
 6731TIP3    H241609   5.233   5.629   6.044 -1.9872  0.2532  0.6053
 6732TIP3   OH241610   5.096   1.279  15.305  0.1154 -0.3854  0.4418
 6732TIP3    H141611   5.098   1.356  15.248  2.0799 -1.0243 -0.4689
 6732TIP3    H241612   5.144   1.306  15.383  1.7479 -0.9126 -0.3138
 6733TIP3   OH241613   0.945   6.063  16.106 -0.1799 -0.1795 -0.1520
 6733TIP3    H141614   0.934   6.127  16.176 -1.7297  1.8724 -2.0909
 6733TIP3    H241615   0.868   6.007  16.111 -1.3789  1.2522 -1.3191
 6734TIP3   OH241616   3.623   1.264   3.382 -0.5400  0.1698 -0.6420
 6734TIP3    H141617   3.529   1.278   3.397 -0.6135 -0.2743 -0.6696
 6734TIP3    H241618   3.652   1.341   3.334 -0.7170  0.7039  0.0919
 6735TIP3   OH241619   1.154   1.741   1.959 -0.0648 -0.3689  0.2377
 6735TIP3    H141620   1.226   1.686   1.928 -0.1459 -1.6467  2.1653
 6735TIP3    H241621   1.090   1.679   1.993 -2.1867  0.7361 -1.4812
 6736TIP3   OH241622   6.272   1.701  11.765 -0.4328 -0.1486  0.1991
 6736TIP3    H141623   6.193   1.735  11.808 -0.0619  2.1644 -0.7802
 6736TIP3    H241624   6.241   1.627  11.712 -1.8901  0.4824  0.1308
 6737TIP3   OH241625   6.193   5.083   1.123 -0.1767 -0.0347  0.0827
 6737TIP3    H141626   6.261   5.019   1.104 -1.7731 -1.6338 -0.5382
 6737TIP3    H241627   6.188   5.137   1.045  0.0129 -0.2708 -0.0957
 6738TIP3   OH241628   5.265   3.414  16.935 -0.0562 -0.8768  0.3438
 6738TIP3    H141629   5.219   3.334  16.911 -0.3139 -0.8121  0.6109
 6738TIP3    H241630   5.228   3.481  16.878 -0.4667 -0.7784  0.7204
 6739TIP3   OH241631   5.964   6.492  13.320  0.7558 -0.0465 -0.4025
 6739TIP3    H141632   6.004   6.459  13.241  1.1806  1.7292 -0.9833
 6739TIP3    H241633   5.913   6.419  13.355  0.6961 -0.9025 -2.2178
 6740TIP3   OH241634   6.305   0.387  12.462  0.3766  0.5165 -0.0938
 6740TIP3    H141635   6.231   0.326  12.465 -2.4313  3.6189  1.5247
 6740TIP3    H241636   6.305   0.428  12.549  0.7771  4.0875 -1.6032
 6741TIP3   OH241637   4.085   5.906  15.849  0.4566 -0.8316 -0.0021
 6741TIP3    H141638   4.080   6.002  15.857 -1.1039 -0.9533  0.9124
 6741TIP3    H241639   4.111   5.891  15.758  0.0234  0.4618 -0.3632
 6742TIP3   OH241640   5.961   4.464  16.503  0.3528  0.9197  0.1971
 6742TIP3    H141641   5.941   4.371  16.500 -0.3224  1.0418  0.6455
 6742TIP3    H241642   5.947   4.489  16.594  2.7302  1.0014  0.6179
 6743TIP3   OH241643   6.456   5.791  17.030  0.0147 -0.3030  0.1070
 6743TIP3    H141644   6.428   5.753  17.113 -0.4807  0.1320  0.1465
 6743TIP3    H241645   6.422   5.731  16.963 -1.8515  0.6936  0.1096
 6744TIP3   OH241646   5.639   0.149  16.700 -0.3084 -0.0403 -0.6590
 6744TIP3    H141647   5.727   0.186  16.696 -0.2877 -0.1245 -0.9747
 6744TIP3    H241648   5.590   0.197  16.634 -0.3838 -0.3011 -0.7933
 6745TIP3   OH241649   0.947   5.167   3.194 -0.6274  0.2078 -0.2578
 6745TIP3    H141650   0.883   5.105   3.161 -0.8047 -0.5378  1.4186
 6745TIP3    H241651   0.934   5.246   3.141 -2.2348 -0.2704 -0.6044
 6746TIP3   OH241652   3.892   3.201   5.146 -0.0204  0.0506  0.0160
 6746TIP3    H141653   3.967   3.145   5.126 -0.5800 -0.8736  0.4784
 6746TIP3    H241654   3.822   3.169   5.089 -0.5481 -0.1996  0.7976
 6747TIP3   OH241655   6.210   0.399  15.267 -0.1195  0.4311  0.2275
 6747TIP3    H141656   6.196   0.309  15.296  1.0449 -0.2094 -1.0548
 6747TIP3    H241657   6.122   0.433  15.250 -0.7197  0.2405  2.6025
 6748TIP3   OH241658   3.257   5.499  10.945 -0.4469  0.2750  1.0729
 6748TIP3    H141659   3.347   5.520  10.921 -1.0587  0.6013 -1.2072
 6748TIP3    H241660   3.253   5.403  10.942 -0.7410  0.2876 -1.5207
 6749TIP3   OH241661   1.606   1.008   4.599 -0.3192 -0.0990  0.0437
 6749TIP3    H141662   1.536   0.961   4.645 -0.1001  0.4112  0.9037
 6749TIP3    H241663   1.560   1.064   4.537 -0.7106  0.6335  0.9775
 6750TIP3   OH241664   6.346   5.755   3.818 -0.1255  0.6784 -0.1615
 6750TIP3    H141665   6.425   5.735   3.869 -0.0395  2.3596  0.4364
 6750TIP3    H241666   6.375   5.756   3.727  0.3968  0.6108  0.0028
 6751TIP3   OH241667   1.156   0.732   0.333 -0.2455  0.2034  0.0896
 6751TIP3    H141668   1.069   0.709   0.301 -0.4132  0.1144  0.6055
 6751TIP3    H241669   1.196   0.648   0.356  0.3523  0.1491 -1.0732
 6752TIP3   OH241670   2.189   0.593  16.104  0.1185 -0.1869 -0.0233
 6752TIP3    H141671   2.146   0.677  16.119  1.8722  0.4140  2.1080
 6752TIP3    H241672   2.282   0.614  16.097  0.7334 -2.0003  1.6561
 6753TIP3   OH241673   4.421   0.068   0.118  0.4010  0.3671 -0.1390
 6753TIP3    H141674   4.484   0.100   0.054  0.9072  2.0782  1.1470
 6753TIP3    H241675   4.395   0.146   0.167 -1.7963 -0.4972  0.1854
 6754TIP3   OH241676   4.519   5.505   0.750  0.9872  0.1614  0.1551
 6754TIP3    H141677   4.502   5.411   0.760 -0.3609  0.2311 -1.1728
 6754TIP3    H241678   4.586   5.510   0.682  1.2597  0.1544  0.4219
 6755TIP3   OH241679   5.220   6.517   4.193  0.2449 -0.4002 -0.1080
 6755TIP3    H141680   5.311   6.488   4.198  0.4571  0.4088  2.2597
 6755TIP3    H241681   5.214   6.588   4.257 -1.8717  0.0890 -0.7622
 6756TIP3   OH241682   2.177   6.693   1.858 -0.0315  0.2213 -0.3652
 6756TIP3    H141683   2.232   6.625   1.896 -0.8965  0.3547  1.1977
 6756TIP3    H241684   2.088   6.667   1.879 -0.5012  0.7014 -1.6873
 6757TIP3   OH241685   2.905   4.719  15.589 -0.1598 -0.6775  0.0523
 6757TIP3    H141686   2.919   4.802  15.543 -0.0813 -1.4613 -1.3562
 6757TIP3    H241687   2.859   4.745  15.669  1.9184  0.9839  0.8011
 6758TIP3   OH241688   5.875   4.684  13.165 -0.2176  0.2704 -0.4891
 6758TIP3    H141689   5.964   4.685  13.202 -0.9445 -0.3240  1.4404
 6758TIP3    H241690   5.870   4.601  13.118 -0.1307 -0.3070  0.4858
 6759TIP3   OH241691   1.891   1.602  14.043 -0.0237  0.1067 -0.7912
 6759TIP3    H141692   1.839   1.681  14.060 -1.6119 -1.0897  0.3461
 6759TIP3    H241693   1.918   1.572  14.130 -0.9079 -1.4887 -1.0204
 6760TIP3   OH241694   2.243   0.092  11.883  0.1605 -0.5063 -0.1379
 6760TIP3    H141695   2.226   0.118  11.793  0.9154  0.0560 -0.1213
 6760TIP3    H241696   2.332   0.057  11.882  0.1947 -0.4469  0.4042
 6761TIP3   OH241697   5.948   3.674  14.134 -0.8223  0.6320  0.0411
 6761TIP3    H141698   5.902   3.680  14.218 -0.5629 -2.3984  0.5092
 6761TIP3    H241699   6.039   3.694  14.156 -0.8180  0.1998  0.4502
 6762TIP3   OH241700   6.438   0.183   1.680 -0.0790  0.5665 -0.5731
 6762TIP3    H141701   6.346   0.205   1.666  0.1669  1.7031 -0.5325
 6762TIP3    H241702   6.477   0.184   1.593 -0.1139  0.0567 -0.5933
 6763TIP3   OH241703   3.638   0.438   6.133 -0.1653  0.6666 -0.1002
 6763TIP3    H141704   3.631   0.346   6.161 -2.4096  0.7678 -0.1552
 6763TIP3    H241705   3.560   0.480   6.169  1.3981  2.8802  0.9497
 6764TIP3   OH241706   5.588   5.637  14.406  0.7142 -0.5059 -0.0496
 6764TIP3    H141707   5.650   5.685  14.460  1.4889 -1.8898  0.3611
 6764TIP3    H241708   5.520   5.700  14.384  1.6021  0.7018  0.5861
 6765TIP3   OH241709   4.960   3.092  13.906 -0.2122 -0.2147  0.2136
 6765TIP3    H141710   4.964   3.011  13.855 -0.5434  1.2166 -2.2622
 6765TIP3    H241711   4.867   3.116  13.907 -0.1086  0.1838  0.8400
 6766TIP3   OH241712   4.015   3.014   0.096  0.6764 -0.2581 -0.9670
 6766TIP3    H141713   4.055   3.001   0.010 -1.1771 -0.5509 -1.8348
 6766TIP3    H241714   3.965   2.935   0.111 -1.0403  0.8068 -0.7973
 6767TIP3   OH241715   5.676   5.849  16.291 -0.1905 -0.8180  0.2169
 6767TIP3    H141716   5.746   5.819  16.234  1.1144  1.3797  0.5224
 6767TIP3    H241717   5.656   5.937  16.260 -1.8424 -0.8579  1.0423
 6768TIP3   OH241718   3.089   5.802   4.722  0.0324 -0.1495  0.3798
 6768TIP3    H141719   3.023   5.750   4.768  0.6438 -0.8096  0.5275
 6768TIP3    H241720   3.170   5.750   4.730 -0.0905 -0.9282 -2.4820
 6769TIP3   OH241721   0.896   1.418   2.467 -0.3971 -0.1301  0.1421
 6769TIP3    H141722   0.933   1.333   2.490 -1.5338 -1.4147 -2.3343
 6769TIP3    H241723   0.972   1.473   2.449  0.3434 -1.0279  0.4415
 6770TIP3   OH241724   3.563   6.169   3.722 -0.4977  0.5329 -0.4217
 6770TIP3    H141725   3.615   6.229   3.668  0.2430  0.7735  0.5274
 6770TIP3    H241726   3.478   6.213   3.731 -0.9520  0.0611 -2.1159
 6771TIP3   OH241727   5.452   6.405   0.039  0.0912  0.2948 -0.5922
 6771TIP3    H141728   5.439   6.443   0.126 -0.7739  0.5828 -0.8432
 6771TIP3    H241729   5.436   6.477  -0.022  0.8852  0.1458 -0.9951
 6772TIP3   OH241730   3.944   2.330  14.784  0.2866 -0.8295 -0.3404
 6772TIP3    H141731   3.887   2.326  14.861 -0.4476  1.4600 -0.6830
 6772TIP3    H241732   3.911   2.263  14.725 -0.3429 -1.3254  0.5608
 6773TIP3   OH241733   5.170   5.937   5.646 -0.2667 -0.5101 -0.8416
 6773TIP3    H141734   5.186   6.029   5.624  2.7605 -0.6349  0.3909
 6773TIP3    H241735   5.090   5.938   5.698 -1.0011  1.2369 -1.9320
 6774TIP3   OH241736   5.919   6.573  14.526 -0.1877 -0.0373  0.2904
 6774TIP3    H141737   5.952   6.623  14.451  1.0790 -0.2984  0.6528
 6774TIP3    H241738   5.825   6.562  14.508 -0.2674  1.4322 -0.3809
 6775TIP3   OH241739   4.228   2.305   0.076  0.2741  0.0285 -0.2982
 6775TIP3    H141740   4.221   2.210   0.082 -1.8905  0.0674 -1.1878
 6775TIP3    H241741   4.248   2.334   0.165 -0.0278 -1.1836  0.1814
 6776TIP3   OH241742   3.246   3.941   5.972 -0.2538  0.5252 -0.7192
 6776TIP3    H141743   3.245   3.941   6.068 -1.7790 -0.8550 -0.6914
 6776TIP3    H241744   3.179   4.005   5.948  0.4697  1.2315 -0.8885
 6777TIP3   OH241745   4.558   2.390  14.836  0.4844  0.1496 -0.0720
 6777TIP3    H141746   4.526   2.425  14.753 -1.4151 -0.4641  0.3272
 6777TIP3    H241747   4.589   2.302  14.815  1.5368  0.5907 -0.3959
 6778TIP3   OH241748   1.806   5.851  15.924  0.4991  0.0142  0.2336
 6778TIP3    H141749   1.844   5.855  16.012  0.2602  0.0015  0.3390
 6778TIP3    H241750   1.840   5.929  15.880  0.0286  0.4255  0.5842
 6779TIP3   OH241751   5.069   0.209   4.951 -0.2279 -0.3360  0.0670
 6779TIP3    H141752   5.047   0.287   4.900 -1.1466 -2.3380 -2.8930
 6779TIP3    H241753   5.159   0.188   4.926 -0.4316 -0.9331 -0.1804
 6780TIP3   OH241754   6.418   6.629  13.293 -0.1324 -0.1804  0.4538
 6780TIP3    H141755   6.473   6.669  13.361 -0.6211  0.0266  0.7260
 6780TIP3    H241756   6.463   6.650  13.211 -0.2808  0.7780  0.6025
 6781TIP3   OH241757   6.428   1.780   3.557  0.4500  0.2607  0.0545
 6781TIP3    H141758   6.495   1.795   3.624  1.5312  0.5235 -1.0651
 6781TIP3    H241759   6.351   1.826   3.591  1.2642  1.2285  0.6620
 6782TIP3   OH241760   2.167   1.568   5.471  0.1570  0.3820  0.1324
 6782TIP3    H141761   2.086   1.548   5.516  0.1880 -0.2099 -0.0647
 6782TIP3    H241762   2.175   1.499   5.404 -0.2628  1.6575 -1.2712
 6783TIP3   OH241763   1.314   4.002  12.542  0.1082  0.3096 -0.2553
 6783TIP3    H141764   1.279   3.962  12.622 -0.9920  1.2794 -0.2226
 6783TIP3    H241765   1.244   3.990  12.477  0.8756 -0.2201 -1.0081
 6784TIP3   OH241766   4.226   3.777  11.706 -0.3056  0.2281 -0.2361
 6784TIP3    H141767   4.150   3.814  11.661 -0.9527 -0.3391  0.3654
 6784TIP3    H241768   4.222   3.816  11.793 -0.9320 -1.1308  0.3679
 6785TIP3   OH241769   5.840   5.343  16.822  0.2078 -0.7353  0.1296
 6785TIP3    H141770   5.840   5.406  16.750  1.1051 -1.9385 -0.9717
 6785TIP3    H241771   5.748   5.325  16.838 -0.2248  2.2570  1.8090
 6786TIP3   OH241772   3.030   5.665   5.288 -0.0062 -0.1087  0.6429
 6786TIP3    H141773   2.951   5.632   5.246 -0.2114  0.5346  0.5006
 6786TIP3    H241774   2.998   5.728   5.352  0.4285  1.4422 -0.5814
 6787TIP3   OH241775   6.738   1.906  13.049  0.4078  0.0082 -0.1887
 6787TIP3    H141776   6.663   1.958  13.022 -0.8462 -0.7122  1.6600
 6787TIP3    H241777   6.797   1.969  13.090 -0.4201  0.2225  0.7095
 6788TIP3   OH241778   3.265   2.330   5.096 -0.6559 -0.3128  0.1199
 6788TIP3    H141779   3.204   2.264   5.128  0.8814 -1.5781  0.5777
 6788TIP3    H241780   3.350   2.287   5.097  0.4626  1.7568  0.6782
 6789TIP3   OH241781   2.053   3.149  17.011  0.2217  0.5621 -0.4318
 6789TIP3    H141782   2.088   3.123  16.925 -1.0674  1.3133 -1.2190
 6789TIP3    H241783   1.961   3.171  16.994 -0.1234  0.4768  1.2055
 6790TIP3   OH241784   4.318   5.649  16.615 -0.0594 -0.0168 -0.5046
 6790TIP3    H141785   4.374   5.672  16.689  3.1771 -0.2859 -2.6528
 6790TIP3    H241786   4.327   5.554  16.607 -3.5665 -0.6068  1.0054
 6791TIP3   OH241787   2.257   0.738  17.387 -0.3681  0.4624 -0.1563
 6791TIP3    H141788   2.286   0.647  17.388  0.2830  0.6483  1.5214
 6791TIP3    H241789   2.330   0.786  17.347  0.1951  0.4835  0.8564
 6792TIP3   OH241790   1.666   0.069  16.374 -0.7447  0.1050  0.3759
 6792TIP3    H141791   1.616   0.145  16.404  0.5921  0.5003  1.7412
 6792TIP3    H241792   1.735   0.106  16.319 -2.7777 -0.5649 -2.8556
 6793TIP3   OH241793   5.728   4.993   4.928 -0.1658  0.4844 -0.3744
 6793TIP3    H141794   5.823   4.981   4.922  0.0992 -0.0194  2.8944
 6793TIP3    H241795   5.692   4.915   4.886  0.6239  1.9474 -4.1989
 6794TIP3   OH241796   6.050   6.345  14.068 -0.1587 -0.1780 -0.6904
 6794TIP3    H141797   6.141   6.359  14.095  0.0983  0.8050 -1.9768
 6794TIP3    H241798   6.035   6.252  14.080  0.9057 -0.2917 -0.1459
 6795TIP3   OH241799   4.182   1.267   3.204 -0.8659  0.6643  0.0923
 6795TIP3    H141800   4.181   1.358   3.233  2.1086  0.1997  2.1769
 6795TIP3    H241801   4.096   1.233   3.226 -1.2198  2.3700  1.5065
 6796TIP3   OH241802   5.750   5.433  16.388  0.0488  0.2123  0.2454
 6796TIP3    H141803   5.746   5.400  16.298 -1.2622 -1.0893  0.7428
 6796TIP3    H241804   5.697   5.371  16.438  0.2101  1.2983  1.8057
 6797TIP3   OH241805   1.275   4.441   1.333  0.3904 -0.1865  0.8423
 6797TIP3    H141806   1.261   4.497   1.409  0.6546  0.4142  0.4566
 6797TIP3    H241807   1.370   4.428   1.331  0.6222  1.4126 -0.4937
 6798TIP3   OH241808   5.795   0.279  12.761 -0.2407  0.1737  0.0220
 6798TIP3    H141809   5.889   0.260  12.763 -0.2338  0.2176  0.1184
 6798TIP3    H241810   5.789   0.372  12.786 -0.0647  1.0305 -2.7268
 6799TIP3   OH241811   2.462   2.689  13.344 -0.1829  0.2307  0.2015
 6799TIP3    H141812   2.541   2.700  13.291 -1.2786  0.3700 -1.4414
 6799TIP3    H241813   2.400   2.752  13.309 -1.5946 -1.0280  0.3500
 6800TIP3   OH241814   3.047   2.822  17.175  0.0046  0.2711 -0.8288
 6800TIP3    H141815   3.015   2.912  17.177 -0.2142  0.1905 -0.5633
 6800TIP3    H241816   3.077   2.809  17.085  1.9681  1.2671 -0.3665
 6801TIP3   OH241817   0.647   3.078   0.130 -0.5176  0.0915 -0.3179
 6801TIP3    H141818   0.615   3.167   0.113 -1.3352  0.1526  1.3342
 6801TIP3    H241819   0.668   3.078   0.224  2.6796 -0.5034 -0.9249
 6802TIP3   OH241820   6.419   0.188   2.617 -0.1741 -0.1944 -0.0298
 6802TIP3    H141821   6.460   0.254   2.673 -0.5370  0.5388 -0.6142
 6802TIP3    H241822   6.492   0.145   2.572  0.0353  0.0814  0.0459
 6803TIP3   OH241823   4.850   3.963  12.698 -0.3548 -0.4618  0.3575
 6803TIP3    H141824   4.826   3.876  12.665  2.3034 -0.7601 -1.0629
 6803TIP3    H241825   4.938   3.951  12.735 -0.1137  1.5455  0.5395
 6804TIP3   OH241826   5.349   3.725   6.262 -0.0113 -0.0612  1.0779
 6804TIP3    H141827   5.382   3.640   6.290  0.2388  0.1348  1.3751
 6804TIP3    H241828   5.427   3.779   6.253 -0.2043  0.2447  1.2491
 6805TIP3   OH241829   0.298   2.821  13.185  0.3127 -0.7678 -0.4354
 6805TIP3    H141830   0.250   2.745  13.218 -0.9619  0.4331  0.6278
 6805TIP3    H241831   0.295   2.812  13.090 -1.7589 -0.9257 -0.3984
 6806TIP3   OH241832   1.298   3.812   4.246  0.2777 -0.0367  0.4731
 6806TIP3    H141833   1.255   3.819   4.161 -0.5368 -0.9109  0.8015
 6806TIP3    H241834   1.379   3.765   4.228 -1.1373 -2.6782  0.5502
 6807TIP3   OH241835   6.282   4.849   4.885  0.4394  0.1700 -0.1480
 6807TIP3    H141836   6.283   4.767   4.836 -3.3749 -0.0751 -0.1454
 6807TIP3    H241837   6.193   4.854   4.921  1.8500  2.1377  3.6832
 6808TIP3   OH241838   6.291   1.339  11.504 -0.2461 -0.1007  0.4783
 6808TIP3    H141839   6.252   1.254  11.487  2.4909 -1.5661  0.8415
 6808TIP3    H241840   6.360   1.348  11.438  0.9477  0.8099  1.7742
 6809TIP3   OH241841   5.708   2.162  14.637 -0.6127  0.5451 -0.5719
 6809TIP3    H141842   5.737   2.074  14.660 -2.8462 -0.2238 -0.5634
 6809TIP3    H241843   5.728   2.215  14.714 -0.1773 -0.1515 -0.2023
 6810TIP3   OH241844   3.591   3.996   2.121 -0.2268  0.2889 -0.0336
 6810TIP3    H141845   3.627   3.940   2.189 -1.1513 -0.5972 -0.2383
 6810TIP3    H241846   3.580   3.937   2.045 -0.0384  1.0408 -0.6562
 6811TIP3   OH241847   1.066   2.761   4.639 -0.1263 -0.4984 -0.7320
 6811TIP3    H141848   0.982   2.806   4.642  0.1309  0.3013 -3.3970
 6811TIP3    H241849   1.044   2.668   4.636 -0.9692 -0.2730 -2.0772
 6812TIP3   OH241850   5.627   6.600  16.549 -0.1502  0.3678 -0.3403
 6812TIP3    H141851   5.543   6.610  16.505 -0.4345 -2.1265 -0.5412
 6812TIP3    H241852   5.620   6.654  16.628 -1.5495  0.9936 -0.8659
 6813TIP3   OH241853   1.230   1.338  15.225  0.3262 -0.4200 -0.0683
 6813TIP3    H141854   1.180   1.374  15.152  0.3431  2.4505  1.2016
 6813TIP3    H241855   1.169   1.340  15.299  1.0657 -0.9262  0.5670
 6814TIP3   OH241856   5.305   4.973   1.716  0.0443 -0.1709 -0.6853
 6814TIP3    H141857   5.375   4.910   1.702  1.6677  1.6144 -0.9687
 6814TIP3    H241858   5.299   5.022   1.634 -0.4007  0.7738 -0.1104
 6815TIP3   OH241859   6.641   4.146  12.976  0.1321  0.0033 -0.2830
 6815TIP3    H141860   6.732   4.136  13.006  0.5082  3.6321  0.2269
 6815TIP3    H241861   6.649   4.188  12.891 -1.1008 -1.0836 -0.9596
 6816TIP3   OH241862   4.643   4.487  15.958  0.3778 -0.0059  0.2590
 6816TIP3    H141863   4.652   4.401  15.916 -0.3231 -0.0800  0.2443
 6816TIP3    H241864   4.631   4.467  16.051 -0.0020  0.0642  0.2255
 6817TIP3   OH241865   4.444   2.884  16.799 -0.1427 -1.0109  0.5808
 6817TIP3    H141866   4.362   2.872  16.751 -0.0019 -1.3588  0.4209
 6817TIP3    H241867   4.466   2.796  16.833 -0.1859 -0.7903  1.1944
 6818TIP3   OH241868   1.415   0.436   5.191  0.2701  0.5669  0.6981
 6818TIP3    H141869   1.390   0.433   5.283 -1.3221 -0.6836  0.2844
 6818TIP3    H241870   1.355   0.500   5.152 -0.6490 -0.6025  0.1396
 6819TIP3   OH241871   1.781   0.914   5.169  0.4088  0.3866  0.3418
 6819TIP3    H141872   1.745   0.942   5.085 -1.3954  1.2331  1.3103
 6819TIP3    H241873   1.806   0.823   5.156 -2.8978 -0.5732 -0.3162
 6820TIP3   OH241874   0.234   6.727  13.545  0.1344  0.3659  0.2069
 6820TIP3    H141875   0.302   6.794  13.547 -0.3318  0.8473 -0.0923
 6820TIP3    H241876   0.152   6.774  13.557 -0.4687  0.2228 -2.7307
 6821TIP3   OH241877   4.482   4.029   3.453  0.4476  0.2843  0.4789
 6821TIP3    H141878   4.478   4.086   3.531 -0.8947  1.5421 -0.4495
 6821TIP3    H241879   4.420   3.958   3.473  0.3218  0.4456  0.6752
 6822TIP3   OH241880   3.821   0.122  16.336 -0.1362  0.1426 -0.1172
 6822TIP3    H141881   3.742   0.081  16.371  0.2018 -0.6718 -0.2725
 6822TIP3    H241882   3.853   0.178  16.408 -1.2308  1.0476 -0.3112
 6823TIP3   OH241883   6.488   4.547   2.499 -0.2823  0.1754  0.2757
 6823TIP3    H141884   6.488   4.465   2.449  2.3680 -1.6460  2.9363
 6823TIP3    H241885   6.400   4.551   2.536 -0.2662 -1.9501  0.6980
 6824TIP3   OH241886   6.276   2.778  13.478  0.5078 -0.0304  0.1214
 6824TIP3    H141887   6.312   2.696  13.513 -0.1553 -0.4786 -0.2409
 6824TIP3    H241888   6.205   2.800  13.538 -1.5152 -1.4975 -1.5893
 6825TIP3   OH241889   2.696   5.133   5.049  0.1591  0.1702 -0.4970
 6825TIP3    H141890   2.787   5.148   5.077  0.8243 -0.4687 -2.2103
 6825TIP3    H241891   2.688   5.037   5.045 -0.6390  0.2221 -0.2233
 6826TIP3   OH241892   3.287   5.760  16.969 -0.4801  0.4792  0.2450
 6826TIP3    H141893   3.248   5.673  16.975  0.9682 -0.1875  0.2615
 6826TIP3    H241894   3.317   5.779  17.058 -0.9040  1.0537  0.2706
 6827TIP3   OH241895   1.435   5.706  13.758 -0.2096 -0.4574  0.4915
 6827TIP3    H141896   1.387   5.630  13.724  0.8899 -1.1145  0.3671
 6827TIP3    H241897   1.382   5.781  13.733  0.1141 -0.9619 -1.9306
 6828TIP3   OH241898   3.692   4.571   0.685  0.1243  0.3404  0.1359
 6828TIP3    H141899   3.596   4.573   0.685 -0.0039 -2.1674  0.9573
 6828TIP3    H241900   3.714   4.497   0.742  2.5037 -0.5772 -1.8262
 6829TIP3   OH241901   4.636   1.943   1.311 -0.0944  0.4283  0.4772
 6829TIP3    H141902   4.560   1.994   1.339 -1.2582 -1.4275  0.9263
 6829TIP3    H241903   4.682   1.922   1.393 -0.8660 -1.0231  0.5870
 6830TIP3   OH241904   4.458   1.755  13.482  0.1969  0.6024  0.4877
 6830TIP3    H141905   4.386   1.728  13.424  1.1968 -2.1359  0.3589
 6830TIP3    H241906   4.426   1.736  13.570  0.7332 -0.7161  0.4248
 6831TIP3   OH241907   5.528   5.006  11.079 -0.4415  0.2056  0.5562
 6831TIP3    H141908   5.560   4.994  10.989  1.1992  0.7505  1.0296
 6831TIP3    H241909   5.578   4.942  11.130 -0.8124  0.4252  1.2012
 6832TIP3   OH241910   4.463   1.081  11.075 -0.0426 -0.4991  0.7306
 6832TIP3    H141911   4.413   1.053  10.998 -0.6379  2.8270 -0.2264
 6832TIP3    H241912   4.552   1.095  11.043  0.2604 -1.2395  1.2074
 6833TIP3   OH241913   2.625   1.351   4.827 -0.0469 -0.6450  0.7114
 6833TIP3    H141914   2.604   1.346   4.734 -1.2560 -0.4049  0.9601
 6833TIP3    H241915   2.693   1.285   4.839 -2.0351 -2.9445  0.2419
 6834TIP3   OH241916   3.327   4.760  15.229 -0.3353  0.3461  0.8371
 6834TIP3    H141917   3.344   4.779  15.321 -0.7471 -1.3198  1.2833
 6834TIP3    H241918   3.233   4.742  15.225 -0.0311 -1.2557  0.4213
 6835TIP3   OH241919   0.887   4.313   4.318  0.3094 -0.2260  0.2089
 6835TIP3    H141920   0.940   4.267   4.383  1.6089  0.9631  0.0389
 6835TIP3    H241921   0.950   4.364   4.267 -0.9169  0.5792 -0.5593
 6836TIP3   OH241922   6.385   5.540   2.797 -0.1787 -0.2958 -0.4151
 6836TIP3    H141923   6.472   5.561   2.832 -0.4282 -0.7027  0.4748
 6836TIP3    H241924   6.376   5.597   2.720  0.8551 -0.2218 -0.4972
 6837TIP3   OH241925   5.669   5.629  13.745 -0.4086  0.3622  0.1941
 6837TIP3    H141926   5.577   5.649  13.733 -0.6215 -1.1287 -0.9410
 6837TIP3    H241927   5.700   5.695  13.808 -1.9740  1.5252 -0.1916
 6838TIP3   OH241928   4.859   6.583  15.948  0.5522 -0.0338  0.4344
 6838TIP3    H141929   4.910   6.520  15.898 -0.2427 -1.3313  1.2148
 6838TIP3    H241930   4.920   6.620  16.011  0.9395 -0.2918  0.2101
 6839TIP3   OH241931   0.205   5.247   0.708  0.3077  0.5418 -0.1421
 6839TIP3    H141932   0.227   5.179   0.772 -1.9370 -0.0698  0.0526
 6839TIP3    H241933   0.281   5.249   0.649  2.0186  0.4410  1.9076
 6840TIP3   OH241934   3.426   0.082   0.437 -0.8824 -1.1362  0.0116
 6840TIP3    H141935   3.369   0.117   0.505  0.4185  0.8678  0.1501
 6840TIP3    H241936   3.380   0.102   0.355 -0.3121  0.6993  0.1082
 6841TIP3   OH241937   2.665   4.274  11.280 -0.2384  0.0462 -0.2726
 6841TIP3    H141938   2.639   4.184  11.299  0.6371 -0.3475 -0.8615
 6841TIP3    H241939   2.582   4.320  11.267 -0.7031 -0.6260  0.2355
 6842TIP3   OH241940   4.372   3.552  15.092 -0.5535  0.2675 -0.3767
 6842TIP3    H141941   4.338   3.620  15.149 -0.4865  1.3845 -1.6280
 6842TIP3    H241942   4.295   3.515  15.049 -0.4135  1.1539 -1.4183
 6843TIP3   OH241943   1.905   5.071  15.491  0.4218 -0.6430 -0.1088
 6843TIP3    H141944   1.857   5.152  15.505  0.8559 -0.2869 -0.6324
 6843TIP3    H241945   1.842   5.011  15.452  0.3418 -0.2465 -0.5992
 6844TIP3   OH241946   1.785   0.248   3.048  0.2000  0.4407  0.0231
 6844TIP3    H141947   1.764   0.195   2.972 -0.5649 -0.4644  0.8434
 6844TIP3    H241948   1.770   0.191   3.123  0.3517  1.4931  0.8920
 6845TIP3   OH241949   0.631   4.950  12.404 -0.4198 -0.0686  0.2647
 6845TIP3    H141950   0.622   5.013  12.475 -1.1974 -0.2057  0.2975
 6845TIP3    H241951   0.692   4.884  12.437  0.8237  0.9176  0.0357
 6846TIP3   OH241952   6.450   3.583  15.652  0.2255 -0.5894  0.5304
 6846TIP3    H141953   6.390   3.555  15.721 -0.8538  1.8773  0.7047
 6846TIP3    H241954   6.528   3.614  15.698 -0.0276 -0.0264  0.5920
 6847TIP3   OH241955   6.405   3.850   2.467 -0.1078  0.2159 -0.0072
 6847TIP3    H141956   6.487   3.866   2.421 -0.3122 -0.6917 -0.7235
 6847TIP3    H241957   6.340   3.900   2.418  0.0838  1.3992  0.8976
 6848TIP3   OH241958   5.240   1.924   5.857 -0.5399 -0.4196  0.3333
 6848TIP3    H141959   5.225   1.859   5.925  0.0099 -0.0265  0.8446
 6848TIP3    H241960   5.319   1.971   5.885 -0.8390  0.3677 -0.0957
 6849TIP3   OH241961   2.870   3.375  13.208 -0.4659  0.0192 -0.0844
 6849TIP3    H141962   2.849   3.302  13.149 -1.2653 -1.1750  1.5927
 6849TIP3    H241963   2.891   3.448  13.150 -1.5735 -0.9973 -1.8339
 6850TIP3   OH241964   4.622   2.901  14.523 -0.2808  0.3254  0.0493
 6850TIP3    H141965   4.599   2.992  14.503 -0.4131  0.0741 -1.0300
 6850TIP3    H241966   4.687   2.877  14.457 -0.4159 -0.4362  0.1763
 6851TIP3   OH241967   4.719   4.106  15.318  0.0197 -0.3690 -0.1397
 6851TIP3    H141968   4.698   4.028  15.267 -1.7751 -0.2472  0.3324
 6851TIP3    H241969   4.705   4.079  15.409  0.8927  0.0868  0.1431
 6852TIP3   OH241970   1.701   1.493   3.013 -0.5141 -0.0772 -0.0467
 6852TIP3    H141971   1.768   1.556   2.988 -0.0037 -0.5519  0.1046
 6852TIP3    H241972   1.619   1.541   3.005 -0.0932  0.7924  0.6472
 6853TIP3   OH241973   3.872   2.574   6.705 -0.0664 -0.2969  0.3019
 6853TIP3    H141974   3.902   2.650   6.655 -1.5478 -0.8997 -1.6847
 6853TIP3    H241975   3.951   2.539   6.747  0.6193  2.3473  1.3570
 6854TIP3   OH241976   4.872   5.385   5.037 -0.4484 -0.6495  0.1242
 6854TIP3    H141977   4.821   5.464   5.020 -0.5955 -1.0089 -1.1979
 6854TIP3    H241978   4.817   5.313   5.006 -0.2045 -1.2585  1.0615
 6855TIP3   OH241979   5.306   0.554   2.247  1.1877  0.1764  0.0581
 6855TIP3    H141980   5.213   0.578   2.250  1.6424  2.0179  0.7344
 6855TIP3    H241981   5.307   0.462   2.272 -0.3487  0.4670  1.3795
 6856TIP3   OH241982   4.828   5.715  14.251  0.1423  0.0125  0.1043
 6856TIP3    H141983   4.761   5.662  14.293  3.0745 -2.5549  1.9766
 6856TIP3    H241984   4.886   5.742  14.322  1.7230  1.1479 -1.5295
 6857TIP3   OH241985   5.512   3.677   0.924  0.4113  0.0275  0.2731
 6857TIP3    H141986   5.592   3.677   0.872 -0.5888 -1.9672 -1.3928
 6857TIP3    H241987   5.441   3.688   0.860 -0.8029 -1.1184  1.3557
 6858TIP3   OH241988   0.532   2.033  10.858 -0.1166 -0.3468 -0.8781
 6858TIP3    H141989   0.550   2.097  10.789 -1.7723 -0.9456 -1.9396
 6858TIP3    H241990   0.515   2.085  10.936  2.6797  0.3273 -0.5879
 6859TIP3   OH241991   1.948   5.304   1.141  0.3285 -0.4185  0.6763
 6859TIP3    H141992   2.024   5.276   1.091 -0.1968 -1.9696  0.6993
 6859TIP3    H241993   1.906   5.370   1.087  0.4244 -1.2141 -0.3915
 6860TIP3   OH241994   1.590   4.053  10.614 -0.0353  0.0430 -0.2274
 6860TIP3    H141995   1.629   4.102  10.542  0.6686 -1.1349 -0.6610
 6860TIP3    H241996   1.567   3.968  10.577 -2.8737  0.5732  0.0490
 6861TIP3   OH241997   2.365   3.498  15.896  0.0179 -0.2249 -0.2139
 6861TIP3    H141998   2.339   3.573  15.950  0.5602  1.9274 -2.7480
 6861TIP3    H241999   2.294   3.435  15.907  0.6671 -0.5438  3.8837
 6862TIP3   OH242000   0.015   4.259  13.496  0.1784  0.0002 -0.2237
 6862TIP3    H142001  -0.035   4.303  13.564  1.5703  0.6026  0.4614
 6862TIP3    H242002   0.106   4.266  13.525  0.7180 -0.6276 -1.6463
 6863TIP3   OH242003   3.900   1.405  12.434 -0.4151 -0.0651 -0.0947
 6863TIP3    H142004   3.979   1.448  12.467 -1.2173  0.3423  1.3916
 6863TIP3    H242005   3.845   1.476  12.404 -0.8174 -0.2199  0.2657
 6864TIP3   OH242006   2.213   5.863   2.398 -0.4825 -0.1847 -0.3046
 6864TIP3    H142007   2.251   5.951   2.396  1.7863 -1.0214  1.4802
 6864TIP3    H242008   2.122   5.876   2.373 -0.5035  2.8312  0.9166
 6865TIP3   OH242009   5.969   3.616  16.911 -0.2542  0.5077 -0.3467
 6865TIP3    H142010   5.879   3.623  16.880 -0.4515 -0.9142 -0.1702
 6865TIP3    H242011   6.004   3.540  16.864  0.2181 -0.1784  1.0622
 6866TIP3   OH242012   2.011   1.799   4.910 -0.7830  0.3579 -0.0820
 6866TIP3    H142013   1.957   1.721   4.897 -1.9015  0.7730  1.6508
 6866TIP3    H242014   2.024   1.804   5.004  1.9368  0.5782 -0.4073
 6867TIP3   OH242015   5.787   5.790  12.483 -0.3868 -0.0267 -0.1330
 6867TIP3    H142016   5.754   5.778  12.572 -0.3345  0.0515 -0.1027
 6867TIP3    H242017   5.713   5.827  12.434  0.0870  1.5745  0.3001
 6868TIP3   OH242018   5.568   6.582  12.942  0.0535 -0.3887  0.0421
 6868TIP3    H142019   5.477   6.564  12.964 -0.7734  1.5144 -1.4688
 6868TIP3    H242020   5.588   6.663  12.989 -0.0660  0.8456 -1.9219
 6869TIP3   OH242021   6.743   1.509   3.248 -0.7786  0.1793 -0.2293
 6869TIP3    H142022   6.737   1.415   3.269 -2.0681  0.6259  1.7356
 6869TIP3    H242023   6.696   1.552   3.320  0.5171  2.4026 -0.6248
 6870TIP3   OH242024   1.386   1.919   0.010  0.4064  0.3583 -0.6802
 6870TIP3    H142025   1.403   2.013   0.011  1.1105  0.2343 -0.0846
 6870TIP3    H242026   1.401   1.893  -0.080  0.1710  0.8229 -0.8573
 6871TIP3   OH242027   4.787   3.695  16.246  0.1839  0.0233  0.0279
 6871TIP3    H142028   4.712   3.662  16.196  0.6152  0.0632 -0.6683
 6871TIP3    H242029   4.778   3.790  16.245  0.0880  0.0161  0.1950
 6872TIP3   OH242030   4.835   0.106  15.513  0.5620  0.1009  0.1015
 6872TIP3    H142031   4.886   0.027  15.532  0.2045 -0.2842 -0.5330
 6872TIP3    H242032   4.895   0.160  15.461  0.8792  0.3482  0.7071
 6873TIP3   OH242033   0.734   4.336  16.859  0.2618 -0.1418  0.2361
 6873TIP3    H142034   0.699   4.414  16.817 -0.0868  0.1861  1.1118
 6873TIP3    H242035   0.768   4.367  16.943  2.0170 -0.5665 -0.2762
 6874TIP3   OH242036   0.583   6.146   0.360 -0.4819  0.0525  0.0999
 6874TIP3    H142037   0.500   6.099   0.354  0.6450 -2.0077 -0.3655
 6874TIP3    H242038   0.631   6.102   0.431  1.0980 -0.3695 -1.1622
 6875TIP3   OH242039   5.199   3.896   0.088 -0.1931  0.7483 -0.0463
 6875TIP3    H142040   5.215   3.877   0.180  1.2171  0.6472 -0.2945
 6875TIP3    H242041   5.107   3.922   0.084 -0.5836 -0.3554  1.2073
 6876TIP3   OH242042   1.209   5.707  11.486 -0.4849  0.3757 -0.7533
 6876TIP3    H142043   1.257   5.641  11.436  0.8661  2.1540 -1.9058
 6876TIP3    H242044   1.134   5.659  11.523  1.2470 -2.1137 -0.2525
 6877TIP3   OH242045   2.857   0.552  16.810 -0.2288  0.3665  0.1486
 6877TIP3    H142046   2.908   0.581  16.735 -1.1734  1.2456 -0.1775
 6877TIP3    H242047   2.801   0.481  16.776  0.1885 -0.0508  0.3168
 6878TIP3   OH242048   3.554   2.221  14.701 -0.0597  0.2912  0.8596
 6878TIP3    H142049   3.646   2.203  14.681 -0.7371 -2.6596 -0.1283
 6878TIP3    H242050   3.520   2.262  14.621  0.2048  0.6369  0.9220
 6879TIP3   OH242051   5.087   0.373   2.980  0.3606 -0.1796  0.0224
 6879TIP3    H142052   5.009   0.340   3.025  1.0278 -3.2491 -0.8684
 6879TIP3    H242053   5.114   0.449   3.032 -0.8449 -1.4982  2.7985
 6880TIP3   OH242054   0.858   4.480  15.570 -0.8766 -0.1053 -0.1850
 6880TIP3    H142055   0.933   4.455  15.517  2.3910  0.6215  3.5879
 6880TIP3    H242056   0.838   4.570  15.544  0.8396  0.3375 -0.0640
 6881TIP3   OH242057   2.849   3.642  15.056  0.4850 -0.2575  0.5784
 6881TIP3    H142058   2.786   3.570  15.057  1.1854 -0.9426 -0.9692
 6881TIP3    H242059   2.815   3.704  15.121 -1.7043 -0.6591 -0.0772
 6882TIP3   OH242060   0.204   1.259  14.960  0.0781 -0.1147 -0.3918
 6882TIP3    H142061   0.277   1.266  14.899 -1.1940  1.7279 -1.8099
 6882TIP3    H242062   0.240   1.289  15.044  1.5270 -1.4926 -0.4765
 6883TIP3   OH242063   1.282   4.240   4.567  0.1615 -0.1217  0.2480
 6883TIP3    H142064   1.210   4.234   4.504 -0.5621 -1.4582  1.1456
 6883TIP3    H242065   1.358   4.264   4.514 -0.8002  0.7029 -0.8195
 6884TIP3   OH242066   3.187   1.136   1.817 -0.6764  0.3874  0.1909
 6884TIP3    H142067   3.137   1.072   1.868  1.7518  0.2817  2.6861
 6884TIP3    H242068   3.144   1.219   1.835 -0.1310  0.2904  2.2126
 6885TIP3   OH242069   2.148   6.554   4.646 -0.1032 -0.4261 -0.4869
 6885TIP3    H142070   2.183   6.568   4.734 -2.6379  3.2484  0.1077
 6885TIP3    H242071   2.197   6.615   4.591  0.8122 -2.0387 -1.5457
 6886TIP3   OH242072   1.268   5.403  12.605 -0.2782  0.3229 -0.2633
 6886TIP3    H142073   1.348   5.421  12.555 -0.6628  2.2309 -0.2440
 6886TIP3    H242074   1.235   5.321  12.568  1.4441 -0.2789 -0.5630
 6887TIP3   OH242075   4.465   1.525   3.545  0.0145  0.1034 -0.2146
 6887TIP3    H142076   4.495   1.523   3.635  1.9063 -1.4030 -0.8240
 6887TIP3    H242077   4.417   1.443   3.534 -0.4871  0.4301 -0.5026
 6888TIP3   OH242078   5.309   0.818   1.475 -0.1896 -0.0925  0.8049
 6888TIP3    H142079   5.313   0.913   1.473  2.7331 -0.1489 -0.7237
 6888TIP3    H242080   5.293   0.793   1.384 -0.6126 -1.1023  1.1358
 6889TIP3   OH242081   1.936   5.474  14.975 -0.3526  1.1123 -0.3205
 6889TIP3    H142082   1.897   5.448  15.058 -0.2085  0.8468 -0.3370
 6889TIP3    H242083   1.938   5.570  14.979  0.1620  1.0884  0.2139
 6890TIP3   OH242084   1.491   5.983   4.255  0.4614 -0.1398 -0.2219
 6890TIP3    H142085   1.470   5.918   4.188  0.6024  1.2193 -1.6351
 6890TIP3    H242086   1.519   6.060   4.206  0.5549  0.9107  1.4105
 6891TIP3   OH242087   5.540   6.649   5.698  0.3367 -0.2319 -0.1804
 6891TIP3    H142088   5.472   6.653   5.632  0.9110 -0.7537 -0.8211
 6891TIP3    H242089   5.535   6.732   5.744 -0.0845  0.1290 -0.8718
 6892TIP3   OH242090   4.359   2.404   4.482  0.5121 -0.0328  0.0199
 6892TIP3    H142091   4.425   2.358   4.534  1.7558  1.4986 -0.1129
 6892TIP3    H242092   4.343   2.348   4.406  0.3737 -1.2161  0.9063
 6893TIP3   OH242093   4.763   6.692   4.609  0.0529  0.7405  0.4851
 6893TIP3    H142094   4.714   6.684   4.527 -1.3788  0.9950  1.2780
 6893TIP3    H242095   4.841   6.743   4.585 -1.2516  2.4453 -0.3726
 6894TIP3   OH242096   0.889   0.183  11.865  0.2323  0.5283 -0.8204
 6894TIP3    H142097   0.972   0.212  11.827  1.2255 -0.0962  0.7495
 6894TIP3    H242098   0.912   0.104  11.915 -1.3600  0.2022 -0.5511
 6895TIP3   OH242099   2.074   6.139  12.846  0.2565  0.3475  0.3843
 6895TIP3    H142100   2.017   6.212  12.822  0.2166  0.5623  1.1152
 6895TIP3    H242101   2.153   6.180  12.879  0.0875  0.0677  1.1545
 6896TIP3   OH242102   3.043   4.263  17.378  0.2806 -0.3220  0.7062
 6896TIP3    H142103   3.130   4.271  17.416  0.5435 -2.2627  0.5804
 6896TIP3    H242104   2.995   4.207  17.439 -0.1530 -1.1561 -0.3688
 6897TIP3   OH242105   0.956   3.098  12.950 -0.3409  0.3222  0.1201
 6897TIP3    H142106   0.899   3.033  12.991  0.6118 -1.2026 -0.8396
 6897TIP3    H242107   0.906   3.179  12.952 -0.6384  0.1928  3.5698
 6898TIP3   OH242108   1.924   6.680  14.599 -0.2570  0.0831  0.2426
 6898TIP3    H142109   1.982   6.694  14.524 -0.4095  0.0052  0.1087
 6898TIP3    H242110   1.837   6.670  14.560 -0.6834  2.1415  0.5518
 6899TIP3   OH242111   1.799   2.496   0.028  0.0861 -0.2880  0.9082
 6899TIP3    H142112   1.788   2.577  -0.022  0.3843 -1.5476 -1.2930
 6899TIP3    H242113   1.877   2.455  -0.009 -1.9279 -3.2174 -0.4527
 6900TIP3   OH242114   1.718   3.931  15.607  0.0784  0.0783  0.2470
 6900TIP3    H142115   1.739   3.872  15.680 -0.1407  0.3912  0.5709
 6900TIP3    H242116   1.687   3.873  15.537  1.2635 -0.3213  0.0309
 6901TIP3   OH242117   4.683   0.269   2.610 -0.3473 -0.1254  0.1135
 6901TIP3    H142118   4.696   0.307   2.523 -0.2383 -0.4742 -0.0210
 6901TIP3    H242119   4.770   0.267   2.649 -0.5461  1.1172  0.6864
 6902TIP3   OH242120   4.312   4.659   1.567  0.1880  0.1723  0.4206
 6902TIP3    H142121   4.236   4.615   1.605  0.7385 -0.1327  1.1824
 6902TIP3    H242122   4.280   4.747   1.545 -0.4219 -0.0001  0.6058
 6903TIP3   OH242123   1.476   2.531   3.319 -0.0369  0.0783 -0.4053
 6903TIP3    H142124   1.458   2.534   3.413 -1.7211 -1.4490 -0.6349
 6903TIP3    H242125   1.571   2.546   3.313  0.3701 -1.1868  1.6546
 6904TIP3   OH242126   6.258   1.744   0.234 -0.1861  0.3080 -0.1293
 6904TIP3    H142127   6.283   1.714   0.146 -1.1292 -3.6332  0.7701
 6904TIP3    H242128   6.342   1.758   0.279  0.4552 -2.1973 -0.3700
 6905TIP3   OH242129   2.694   6.033   5.160 -0.0444 -0.0071  0.1906
 6905TIP3    H142130   2.682   6.110   5.215  0.7044 -1.0018  1.8048
 6905TIP3    H242131   2.611   5.986   5.165 -0.2221  0.2565 -0.1499
 6906TIP3   OH242132   0.934   0.442  16.077  0.5444 -0.1751 -0.3676
 6906TIP3    H142133   0.993   0.387  16.025  0.4597  0.6424 -1.3576
 6906TIP3    H242134   0.847   0.425  16.041  0.4132  0.0001 -0.1360
 6907TIP3   OH242135   3.911   2.978  16.007 -0.1641  0.4087 -0.4380
 6907TIP3    H142136   3.851   3.051  15.990  0.1454  0.3124 -2.0954
 6907TIP3    H242137   3.927   2.983  16.101 -0.3929  2.2987 -0.4433
 6908TIP3   OH242138   0.849   1.260  10.993 -0.2807  0.1363  0.8814
 6908TIP3    H142139   0.817   1.348  11.012 -0.9803 -0.0815  0.7384
 6908TIP3    H242140   0.937   1.258  11.029 -0.5027  0.6835  1.4636
 6909TIP3   OH242141   6.324   1.281  17.373 -0.1059 -0.1652 -0.1868
 6909TIP3    H142142   6.359   1.368  17.354  1.5787 -0.8219 -0.2834
 6909TIP3    H242143   6.272   1.258  17.296  0.5080  0.2340 -0.7296
 6910TIP3   OH242144   1.533   6.140  16.479  0.1415 -0.0763 -0.2161
 6910TIP3    H142145   1.549   6.214  16.537 -1.4581  0.7924 -0.7992
 6910TIP3    H242146   1.582   6.161  16.399  1.2971 -0.6466  0.3203
 6911TIP3   OH242147   5.220   6.592  14.683  0.2847 -0.1048 -0.3815
 6911TIP3    H142148   5.184   6.530  14.619  0.7823 -0.6990 -0.0967
 6911TIP3    H242149   5.312   6.567  14.692 -0.0307 -0.7605  1.3894
 6912TIP3   OH242150   4.042   5.431  12.300 -0.5511 -0.4211 -0.4661
 6912TIP3    H142151   4.074   5.497  12.239  1.6960 -2.1374 -1.2816
 6912TIP3    H242152   4.007   5.481  12.374 -1.5691  1.6816 -2.2529
 6913TIP3   OH242153   2.320   2.336   2.896  0.1938  0.6940  0.5374
 6913TIP3    H142154   2.230   2.351   2.867  0.4941  1.4825 -0.0176
 6913TIP3    H242155   2.324   2.243   2.917 -0.1662  0.1760 -1.5412
 6914TIP3   OH242156   1.734   4.086   6.513  0.0656 -0.6451 -0.2101
 6914TIP3    H142157   1.781   4.116   6.435  0.1725 -1.2967 -0.3976
 6914TIP3    H242158   1.789   4.114   6.586  0.1670 -0.3951 -0.3791
 6915TIP3   OH242159   5.535   6.275   2.247 -0.3108 -0.2484  0.2462
 6915TIP3    H142160   5.511   6.216   2.318  1.0808 -2.6436 -1.1342
 6915TIP3    H242161   5.614   6.236   2.210  0.4710  2.3387 -1.0051
 6916TIP3   OH242162   0.082   4.075   7.012 -0.1015 -0.4437  0.5488
 6916TIP3    H142163   0.139   4.149   7.036  2.0682 -1.7361 -0.2768
 6916TIP3    H242164   0.043   4.102   6.929  0.0065  0.1327  0.6797
 6917TIP3   OH242165   4.839   0.585   2.890 -0.0451 -0.0242  0.0765
 6917TIP3    H142166   4.757   0.613   2.931  0.0424 -1.0803  1.0329
 6917TIP3    H242167   4.828   0.490   2.877  0.8825 -0.1129 -0.1237
 6918TIP3   OH242168   6.515   4.484  11.307 -0.2502 -0.4975  0.2731
 6918TIP3    H142169   6.500   4.487  11.401  1.4459 -0.5820  0.5775
 6918TIP3    H242170   6.475   4.402  11.278 -2.2511  0.2910  0.5896
 6919TIP3   OH242171   2.434   5.801  15.244 -0.2445 -0.2759  0.2467
 6919TIP3    H142172   2.370   5.835  15.181  0.9076  1.9276  0.1917
 6919TIP3    H242173   2.513   5.852  15.228  1.1762 -2.0858  1.1596
 6920TIP3   OH242174   3.708   3.134   2.383 -0.1395 -0.4706 -1.1621
 6920TIP3    H142175   3.679   3.049   2.414  1.2733 -0.8877 -0.9143
 6920TIP3    H242176   3.800   3.139   2.409  0.0168  0.7942 -1.8775
 6921TIP3   OH242177   3.666   6.041   3.942  0.2657  0.2314 -0.2588
 6921TIP3    H142178   3.586   6.006   3.983  0.4826  0.5089  0.4033
 6921TIP3    H242179   3.634   6.102   3.876 -0.0733  2.3778  1.7724
 6922TIP3   OH242180   2.980   0.913  14.381 -0.9269  0.4827  0.1149
 6922TIP3    H142181   2.926   0.884  14.455 -0.3512  0.9046  0.7037
 6922TIP3    H242182   3.047   0.969  14.420  0.6424 -0.9177 -0.4321
 6923TIP3   OH242183   6.160   2.137  13.743 -0.2407  0.5795  0.0325
 6923TIP3    H142184   6.119   2.127  13.829 -0.2387 -0.7923 -0.1000
 6923TIP3    H242185   6.223   2.208  13.754 -1.3096  1.4356  0.7482
 6924TIP3   OH242186   3.345   0.953   0.411 -0.3817 -0.7354 -0.1343
 6924TIP3    H142187   3.296   0.971   0.491 -0.4603 -2.2954  0.1907
 6924TIP3    H242188   3.280   0.958   0.341 -0.3955  0.1911 -0.0713
 6925TIP3   OH242189   3.852   6.471  13.838  0.0086  0.0097  0.0177
 6925TIP3    H142190   3.826   6.403  13.776  1.8460  0.6754 -1.6035
 6925TIP3    H242191   3.866   6.425  13.920 -2.8932 -0.8510  0.1454
 6926TIP3   OH242192   3.649   0.285   2.597 -0.3381  0.4199 -0.4296
 6926TIP3    H142193   3.666   0.378   2.608  1.0067  0.0238  1.4900
 6926TIP3    H242194   3.678   0.266   2.508 -0.6874  1.8237 -0.8693
 6927TIP3   OH242195   1.887   4.551   5.077  0.6425 -0.1262 -0.0067
 6927TIP3    H142196   1.833   4.540   5.156  2.9260 -0.1291  1.6838
 6927TIP3    H242197   1.860   4.480   5.019  1.5981 -2.7381  2.5058
 6928TIP3   OH242198   0.778   4.060   3.935  0.5273  0.1525 -0.1270
 6928TIP3    H142199   0.770   4.009   3.855 -1.6664  0.3233 -0.0900
 6928TIP3    H242200   0.768   3.996   4.006 -0.4286  0.3718 -0.0537
 6929TIP3   OH242201   1.782   3.953   1.643  0.2405  0.1929  0.0803
 6929TIP3    H142202   1.768   3.877   1.585 -2.9211 -0.6763  1.7498
 6929TIP3    H242203   1.829   3.917   1.718 -0.0698  0.1569  0.2615
 6930TIP3   OH242204   2.330   3.819  11.471 -0.6270 -0.0857  0.3569
 6930TIP3    H142205   2.368   3.904  11.490 -0.5734 -0.1194  0.4013
 6930TIP3    H242206   2.242   3.838  11.439 -0.0386  0.0761 -1.2195
 6931TIP3   OH242207   0.100   4.099   3.260  0.8948  0.4500  0.0345
 6931TIP3    H142208   0.022   4.150   3.283  2.5903  2.0083  2.8828
 6931TIP3    H242209   0.141   4.148   3.189  0.9807  1.4772  0.7779
 6932TIP3   OH242210   1.311   6.721   1.490  0.4974 -0.1943 -0.5725
 6932TIP3    H142211   1.263   6.647   1.527  0.3535  0.3867  0.4344
 6932TIP3    H242212   1.260   6.747   1.413 -0.4010 -0.0485  0.0660
 6933TIP3   OH242213   5.821   2.761  12.602 -0.0468 -0.3120  0.1483
 6933TIP3    H142214   5.808   2.722  12.516  1.8466  0.9226 -0.7767
 6933TIP3    H242215   5.734   2.785  12.632 -0.5975  1.5728 -2.6013
 6934TIP3   OH242216   3.644   2.453  10.864  0.2026  0.0720  0.2074
 6934TIP3    H142217   3.592   2.440  10.943  0.6866 -0.3226  0.4751
 6934TIP3    H242218   3.727   2.489  10.896  0.6272 -0.6600 -0.0485
 6935TIP3   OH242219   1.674   3.848  14.152  0.7228 -0.5387 -0.0452
 6935TIP3    H142220   1.664   3.755  14.172 -0.7713 -0.1674  1.0596
 6935TIP3    H242221   1.743   3.878  14.211  1.2194 -0.9371 -0.4169
 6936TIP3   OH242222   3.785   6.124  14.567 -0.6174  0.2173  0.0107
 6936TIP3    H142223   3.843   6.198  14.548  0.7525 -1.0290 -0.8452
 6936TIP3    H242224   3.698   6.156  14.543  0.0147  1.3743 -0.8773
 6937TIP3   OH242225   4.751   6.007   6.856 -0.0805 -0.7646  0.3409
 6937TIP3    H142226   4.811   5.940   6.889  0.2938  0.0949  1.4669
 6937TIP3    H242227   4.770   6.011   6.762  1.9008 -0.3035  0.6992
 6938TIP3   OH242228   5.014   6.687   5.170 -0.3676 -0.1812  0.1882
 6938TIP3    H142229   4.945   6.628   5.201  0.8203  0.0785  3.8354
 6938TIP3    H242230   4.996   6.770   5.214  1.9295  0.0176  0.8803
 6939TIP3   OH242231   0.069   4.534  12.584 -0.3020 -0.0769 -0.2690
 6939TIP3    H142232   0.119   4.477  12.524 -1.3392 -2.1491  0.7303
 6939TIP3    H242233   0.106   4.621  12.569  1.7807 -1.0604 -1.4832
 6940TIP3   OH242234   5.372   5.138   6.012 -0.1543 -0.1153 -0.1657
 6940TIP3    H142235   5.467   5.126   6.003 -0.1511 -0.0956 -0.1564
 6940TIP3    H242236   5.355   5.121   6.105 -0.4326 -2.0954 -0.5265
 6941TIP3   OH242237   3.753   5.716   3.871  0.0275  0.1644 -0.1120
 6941TIP3    H142238   3.669   5.717   3.918 -1.0981  0.0560 -2.0053
 6941TIP3    H242239   3.784   5.626   3.879  0.0148  0.2260  0.6741
 6942TIP3   OH242240   3.093   0.070   5.000 -0.1965 -0.1926  0.3305
 6942TIP3    H142241   3.097   0.094   5.093 -1.7027 -1.8353  0.8931
 6942TIP3    H242242   3.003   0.039   4.988 -0.0135 -0.0547 -1.6860
 6943TIP3   OH242243   6.158   5.282   1.304 -0.1711  0.2234 -0.1349
 6943TIP3    H142244   6.152   5.356   1.244  0.2533 -0.2812 -0.8307
 6943TIP3    H242245   6.166   5.206   1.246  1.9399 -0.1398  0.5288
 6944TIP3   OH242246   2.916   2.688  12.048 -0.1428 -0.5517 -0.0579
 6944TIP3    H142247   2.918   2.601  12.088 -0.4069 -0.4031  0.2818
 6944TIP3    H242248   2.976   2.740  12.102 -0.7358 -0.2707  0.3361
 6945TIP3   OH242249   0.909   4.466   4.865 -0.0167 -0.0546  0.7289
 6945TIP3    H142250   0.972   4.532   4.836  0.5678 -0.4740  1.0187
 6945TIP3    H242251   0.934   4.447   4.955 -0.3001 -0.5277  0.7110
 6946TIP3   OH242252   6.589   6.214   0.550  0.1538  0.4586  0.1888
 6946TIP3    H142253   6.612   6.263   0.629 -0.3026  0.2670  0.4451
 6946TIP3    H242254   6.586   6.123   0.578  0.4702  0.3385 -0.1638
 6947TIP3   OH242255   1.229   0.745  12.829  0.4266 -0.3765 -0.3738
 6947TIP3    H142256   1.253   0.805  12.759 -1.0826  1.1574  0.3433
 6947TIP3    H242257   1.177   0.677  12.786  1.7470 -0.9614 -1.1171
 6948TIP3   OH242258   1.631   3.698   3.911 -0.0833  0.0779  0.0964
 6948TIP3    H142259   1.584   3.776   3.942  2.1469  1.1095  1.0589
 6948TIP3    H242260   1.682   3.728   3.836  1.4962 -0.2061  1.0247
 6949TIP3   OH242261   6.449   2.206  16.720 -0.1791 -0.0298 -0.2910
 6949TIP3    H142262   6.396   2.127  16.710  0.6377 -0.5990 -0.2881
 6949TIP3    H242263   6.387   2.278  16.712 -1.1573 -0.6844  0.9248
 6950TIP3   OH242264   6.073   4.950  12.804 -0.4905 -0.1934 -0.7544
 6950TIP3    H142265   6.148   4.986  12.852 -0.2203 -1.4994 -0.1592
 6950TIP3    H242266   6.009   5.022  12.803 -0.3961 -0.0074  1.3413
 6951TIP3   OH242267   6.257   2.848  10.891  0.5115  0.8774 -0.0299
 6951TIP3    H142268   6.214   2.833  10.975  2.2556 -1.4427  0.5432
 6951TIP3    H242269   6.349   2.861  10.913  0.7928  1.6015 -1.5124
 6952TIP3   OH242270   2.335   2.995  11.368 -0.3444 -0.2071 -0.2632
 6952TIP3    H142271   2.310   3.063  11.305  0.2808  1.4416  1.2130
 6952TIP3    H242272   2.263   2.991  11.429 -0.1253 -0.4765 -0.0193
 6953TIP3   OH242273   2.329   2.704   3.926 -0.2696 -0.4776  0.9099
 6953TIP3    H142274   2.356   2.612   3.915  2.2928  0.4153 -1.4232
 6953TIP3    H242275   2.293   2.728   3.841 -0.2156  0.8941  1.2587
 6954TIP3   OH242276   1.398   4.425   5.178 -0.2931  0.4678  0.3916
 6954TIP3    H142277   1.390   4.517   5.151  0.9783  0.5311  0.1563
 6954TIP3    H242278   1.430   4.380   5.100  0.9037  0.1852  1.0143
 6955TIP3   OH242279   1.553   3.699   4.207 -0.7790 -0.3126 -0.1219
 6955TIP3    H142280   1.547   3.615   4.254  1.1831 -0.7867 -0.6287
 6955TIP3    H242281   1.630   3.690   4.152 -1.3165  1.3546 -1.2139
 6956TIP3   OH242282   1.804   6.114  10.570 -0.0513 -0.0911  0.3872
 6956TIP3    H142283   1.740   6.043  10.564  0.8020 -0.8029 -0.4892
 6956TIP3    H242284   1.888   6.071  10.559  0.4637  1.1113 -0.5292
 6957TIP3   OH242285   6.311   3.862  16.005 -0.7357  0.4588 -0.5074
 6957TIP3    H142286   6.364   3.941  16.017 -0.0974  0.0139 -0.3370
 6957TIP3    H242287   6.339   3.803  16.075 -0.5597 -0.2599 -1.1632
 6958TIP3   OH242288   2.312   6.489   1.276  0.3410  0.2189 -0.0727
 6958TIP3    H142289   2.352   6.575   1.265  0.8330  0.0024 -0.0267
 6958TIP3    H242290   2.348   6.437   1.205  1.7584 -0.5504  1.1458
 6959TIP3   OH242291   5.187   4.606   5.617 -0.0169  0.0677 -0.3657
 6959TIP3    H142292   5.104   4.598   5.664 -0.0779  0.3419 -0.4284
 6959TIP3    H242293   5.252   4.615   5.687 -0.1776  1.1473 -0.3339
 6960TIP3   OH242294   5.160   6.553  16.641 -0.6905 -0.2032 -0.0510
 6960TIP3    H142295   5.140   6.484  16.578 -1.8375  0.5256 -0.5049
 6960TIP3    H242296   5.078   6.600  16.653  0.3874  2.0749 -0.9640
 6961TIP3   OH242297   1.460   3.211   4.224  0.0235 -0.1613 -0.5189
 6961TIP3    H142298   1.425   3.296   4.252 -0.3384  0.2272 -2.0382
 6961TIP3    H242299   1.454   3.156   4.302 -1.7447  0.5870 -0.0790
 6962TIP3   OH242300   5.194   6.747  11.498 -0.4427  0.1542 -0.0241
 6962TIP3    H142301   5.190   6.654  11.476  0.1444  0.2650 -0.6035
 6962TIP3    H242302   5.105   6.767  11.529 -0.5138 -0.6449  0.3266
 6963TIP3   OH242303   1.101   3.651  12.481  0.2229  0.0720 -0.2884
 6963TIP3    H142304   1.043   3.608  12.419 -1.6801  0.7551  0.9137
 6963TIP3    H242305   1.134   3.728  12.435  0.8808 -0.7738 -1.2667
 6964TIP3   OH242306   6.149   4.074   1.046  0.0340  0.2542  0.3004
 6964TIP3    H142307   6.093   4.034   0.979  1.0826 -0.1300 -0.3895
 6964TIP3    H242308   6.092   4.087   1.121 -0.7215 -1.1628  0.0127
 6965TIP3   OH242309   3.447   1.747   2.202  0.7277  0.1642  0.3415
 6965TIP3    H142310   3.485   1.758   2.115  0.5790 -1.9083 -0.0448
 6965TIP3    H242311   3.413   1.658   2.202 -1.5215  0.9424  1.6891
 6966TIP3   OH242312   1.013   4.538  12.591 -0.4167 -0.2808 -0.2738
 6966TIP3    H142313   1.022   4.613  12.533  1.8712  0.1845  0.5512
 6966TIP3    H242314   0.964   4.473  12.540  0.4602  0.5458 -2.2731
 6967TIP3   OH242315   5.157   4.823   2.527  0.6597 -0.1969 -0.1849
 6967TIP3    H142316   5.235   4.777   2.558 -0.2961 -1.1757  0.8388
 6967TIP3    H242317   5.143   4.790   2.438  1.2287 -0.2354 -0.2625
 6968TIP3   OH242318   2.977   1.598  11.003 -0.0945  0.4125 -0.0039
 6968TIP3    H142319   3.048   1.603  10.939  0.3403 -1.3029  0.3111
 6968TIP3    H242320   2.929   1.681  10.992  2.5606  2.1509  0.5082
 6969TIP3   OH242321   5.887   5.984  12.645  0.0445  0.1029 -0.0679
 6969TIP3    H142322   5.970   5.998  12.599 -0.4985 -0.5702 -1.2895
 6969TIP3    H242323   5.843   5.914  12.596 -0.1914 -1.2876  1.9955
 6970TIP3   OH242324   5.379   4.126   2.801  0.3073 -0.1194  0.0261
 6970TIP3    H142325   5.315   4.118   2.872 -0.5696 -1.2732 -0.8548
 6970TIP3    H242326   5.382   4.039   2.761  0.8944  0.4552 -1.2468
 6971TIP3   OH242327   2.094   2.154  13.309 -0.5493  0.8206 -0.0429
 6971TIP3    H142328   2.186   2.140  13.285 -0.3479 -0.5833  1.3692
 6971TIP3    H242329   2.050   2.167  13.225  0.7626  0.3535 -0.8451
 6972TIP3   OH242330   4.342   4.154   3.257  0.0124  0.4070 -0.1471
 6972TIP3    H142331   4.391   4.108   3.325  0.7644 -0.0406 -0.9734
 6972TIP3    H242332   4.273   4.093   3.231  0.9906 -0.2546 -1.2214
 6973TIP3   OH242333   4.830   5.498  12.058  0.2797  1.0640  0.0756
 6973TIP3    H142334   4.806   5.467  11.971  0.3873  1.3209 -0.0478
 6973TIP3    H242335   4.916   5.460  12.074 -0.1030  0.3214  0.4261
 6974TIP3   OH242336   2.061   1.054   3.454 -0.9397 -0.2489  0.5444
 6974TIP3    H142337   1.998   0.998   3.408 -0.7852 -1.1486  1.4036
 6974TIP3    H242338   2.013   1.088   3.529 -0.8955  0.4158  0.2757
 6975TIP3   OH242339   0.873   4.686   6.092  0.0891 -0.2557 -0.8718
 6975TIP3    H142340   0.895   4.761   6.037 -2.1595  1.3214  0.1877
 6975TIP3    H242341   0.821   4.724   6.164 -1.0399 -2.8229 -0.2247
 6976TIP3   OH242342   6.502   1.664  14.748  0.1012 -0.2280 -0.1721
 6976TIP3    H142343   6.574   1.649  14.809 -1.4150 -2.6886  1.1589
 6976TIP3    H242344   6.483   1.758  14.757  1.5031 -0.0403  1.3037
 6977TIP3   OH242345   6.186   0.492  13.680 -0.1215  0.1141 -0.1960
 6977TIP3    H142346   6.124   0.556  13.714 -0.2735  0.4881 -1.1584
 6977TIP3    H242347   6.242   0.470  13.755 -0.8562  0.4317  0.4524
 6978TIP3   OH242348   5.166   6.053   3.138 -0.1466 -0.1264  0.4031
 6978TIP3    H142349   5.252   6.056   3.097  0.3593 -0.1562  1.4151
 6978TIP3    H242350   5.154   5.960   3.160 -0.5722 -0.1693 -0.0108
 6979TIP3   OH242351   1.194   4.931  15.959  0.2243  0.2670  0.4445
 6979TIP3    H142352   1.241   5.000  16.005  2.0654 -0.7726  0.2531
 6979TIP3    H242353   1.259   4.861  15.949 -0.1690  0.2035 -3.2381
 6980TIP3   OH242354   2.126   2.427   2.212  0.5551  0.5375 -0.1594
 6980TIP3    H142355   2.121   2.370   2.288  1.1209  1.6205  0.7139
 6980TIP3    H242356   2.110   2.515   2.246  1.6007  1.1429 -1.1441
 6981TIP3   OH242357   0.451   6.340   5.016 -0.6123 -0.7482  0.2068
 6981TIP3    H142358   0.362   6.317   4.992 -1.4307  1.4014  0.9848
 6981TIP3    H242359   0.501   6.332   4.934 -1.7306 -0.9421 -0.4688
 6982TIP3   OH242360   2.416   5.807  11.490  0.2230  0.2976 -0.1337
 6982TIP3    H142361   2.477   5.852  11.432  0.6381  0.3682  0.3474
 6982TIP3    H242362   2.329   5.830  11.457  0.4105  1.7712  0.3242
 6983TIP3   OH242363   4.856   0.959   3.628 -0.1823  0.6585  0.0649
 6983TIP3    H142364   4.776   0.930   3.671 -0.5958 -0.5276 -1.4262
 6983TIP3    H242365   4.839   0.947   3.534  1.9408 -0.2666 -0.2676
 6984TIP3   OH242366   0.746   0.284  11.224  0.6239  0.2928 -0.1379
 6984TIP3    H142367   0.825   0.289  11.170  0.3150  1.3896 -0.5064
 6984TIP3    H242368   0.680   0.243  11.167  0.6851  0.1747 -0.1237
 6985TIP3   OH242369   6.723   2.303  13.056 -0.0875 -0.3037  0.0750
 6985TIP3    H142370   6.699   2.260  13.138 -2.0093 -2.5472 -1.5325
 6985TIP3    H242371   6.653   2.366  13.041 -1.3273 -1.9006 -1.1627
 6986TIP3   OH242372   1.913   4.143  15.869 -0.2863 -0.4726 -1.2023
 6986TIP3    H142373   1.888   4.070  15.926 -0.1014  0.4258  0.0648
 6986TIP3    H242374   2.006   4.129  15.852 -0.6188 -1.4441 -2.3761
 6987TIP3   OH242375   2.491   5.325   0.362  0.3498  0.1987 -0.3366
 6987TIP3    H142376   2.577   5.361   0.342  0.2018  1.7133  1.4001
 6987TIP3    H242377   2.500   5.291   0.451 -1.0660  1.2529  0.2421
 6988TIP3   OH242378   4.888   2.870  12.968 -0.5545  0.0060  0.2424
 6988TIP3    H142379   4.930   2.864  13.054 -2.7332 -2.0177  1.2858
 6988TIP3    H242380   4.871   2.964  12.956 -0.3096  0.3348  2.1066
 6989TIP3   OH242381   4.419   3.424   3.156  0.6343 -0.2372 -0.5378
 6989TIP3    H142382   4.409   3.384   3.070 -0.4275  1.6281 -1.3279
 6989TIP3    H242383   4.408   3.518   3.142 -2.1053 -0.0095  1.9054
 6990TIP3   OH242384   4.303   4.155  17.179  0.1866  0.2177 -0.7545
 6990TIP3    H142385   4.377   4.112  17.221  0.7143  0.0888 -1.7750
 6990TIP3    H242386   4.333   4.244  17.161 -0.6345  0.8053  0.6580
 6991TIP3   OH242387   1.411   2.142  11.316  0.0763 -0.1292  0.3002
 6991TIP3    H142388   1.507   2.143  11.310 -0.0009  0.9964 -1.1886
 6991TIP3    H242389   1.393   2.101  11.401  1.8308 -1.5677  0.0406
 6992TIP3   OH242390   0.246   4.238  14.937  0.3202  0.5139  0.6023
 6992TIP3    H142391   0.282   4.189  15.011  0.0871  0.3230  0.5917
 6992TIP3    H242392   0.195   4.173  14.888 -1.6565  1.1822  1.6709
 6993TIP3   OH242393   4.734   6.554   1.013 -0.2019  0.0965 -0.3113
 6993TIP3    H142394   4.816   6.538   0.966  1.4199  1.0207  2.0089
 6993TIP3    H242395   4.695   6.468   1.024  0.8750 -0.4635 -0.7329
 6994TIP3   OH242396   4.848   6.418   3.092 -0.1339 -0.0865  0.6630
 6994TIP3    H142397   4.859   6.472   3.014  0.5914  0.3597  1.0643
 6994TIP3    H242398   4.754   6.400   3.095 -0.7239  2.6087  1.4527
 6995TIP3   OH242399   2.627   2.340  17.108 -0.4986  0.0060  0.1589
 6995TIP3    H142400   2.619   2.342  17.012  0.2174  0.3122  0.0970
 6995TIP3    H242401   2.720   2.354  17.124 -0.3939 -1.4199  0.8656
 6996TIP3   OH242402   1.176   0.632   0.746  0.4176 -0.1698 -0.3139
 6996TIP3    H142403   1.227   0.681   0.811 -0.8131  1.5708 -0.6106
 6996TIP3    H242404   1.116   0.696   0.709 -0.8762 -1.7935 -1.1413
 6997TIP3   OH242405   4.630   3.453  13.642  0.5583 -0.8664 -0.0703
 6997TIP3    H142406   4.538   3.475  13.647  1.2003  2.1668  0.2873
 6997TIP3    H242407   4.641   3.410  13.557 -1.1876 -1.6206  0.0520
 6998TIP3   OH242408   1.865   5.066  11.996  0.4172 -0.3314 -0.0095
 6998TIP3    H142409   1.783   5.109  12.020 -0.1472 -1.4283  0.1181
 6998TIP3    H242410   1.859   4.979  12.036  1.6375 -0.4327 -0.0207
 6999TIP3   OH242411   4.619   6.162  14.548 -0.1202 -0.4433  0.7265
 6999TIP3    H142412   4.644   6.114  14.469 -1.5683  1.5061 -1.0561
 6999TIP3    H242413   4.523   6.157  14.549 -0.1930  0.7642  1.5607
 7000TIP3   OH242414   5.763   2.288  14.881 -0.6506 -0.1245  1.2594
 7000TIP3    H142415   5.755   2.253  14.970 -0.6968  1.6533  1.9810
 7000TIP3    H242416   5.768   2.383  14.892 -0.3310  0.1179 -0.6239
 7001TIP3   OH242417   0.373   2.995  14.132  0.1762 -0.6832 -0.3545
 7001TIP3    H142418   0.309   3.066  14.124  0.9845  0.0205 -0.8811
 7001TIP3    H242419   0.329   2.927  14.182 -0.5509  0.2870  0.3511
 7002TIP3   OH242420   1.826   4.964   5.383  0.2157  0.6285 -0.4081
 7002TIP3    H142421   1.773   5.008   5.317 -0.4401  0.7086  0.1682
 7002TIP3    H242422   1.915   4.995   5.367 -0.0552  1.2287 -0.7728
 7003TIP3   OH242423   5.629   3.854  11.978  0.1747  1.0005  0.4438
 7003TIP3    H142424   5.627   3.893  12.065  0.6554  1.9628  0.0388
 7003TIP3    H242425   5.619   3.760  11.994 -1.2418  1.2938  1.4226
 7004TIP3   OH242426   6.203   4.724   1.199  0.1356  0.1719 -0.9764
 7004TIP3    H142427   6.270   4.792   1.197  0.1556  0.1476 -1.1703
 7004TIP3    H242428   6.252   4.642   1.191  0.1764  0.0889 -0.0078
 7005TIP3   OH242429   3.837   4.821   1.972  0.2319 -0.1091 -0.0537
 7005TIP3    H142430   3.880   4.816   1.886 -0.2491 -0.4774 -0.2806
 7005TIP3    H242431   3.744   4.830   1.951  0.1515  0.2158  0.4323
 7006TIP3   OH242432   0.719   6.214  13.793 -0.3622 -1.1943  0.6890
 7006TIP3    H142433   0.691   6.236  13.882 -0.1587  0.4936  0.3624
 7006TIP3    H242434   0.649   6.159  13.759 -2.9033  2.0225  0.2767
 7007TIP3   OH242435   1.146   5.357  13.945  0.0489 -0.6160 -0.2458
 7007TIP3    H142436   1.200   5.422  13.900 -0.3386  0.2628  0.5280
 7007TIP3    H242437   1.209   5.294  13.979  0.5054 -0.1942 -0.2828
 7008TIP3   OH242438   2.409   2.593  11.786  0.6521  0.3671  0.1149
 7008TIP3    H142439   2.353   2.525  11.750  2.7487 -1.0825 -0.5711
 7008TIP3    H242440   2.393   2.670  11.731  0.0644 -0.2977 -0.6539
 7009TIP3   OH242441   1.598   2.536   5.131  0.1196  0.1733  1.0387
 7009TIP3    H142442   1.662   2.605   5.145 -0.2074  0.3258  1.8376
 7009TIP3    H242443   1.627   2.491   5.051 -0.1069  1.7320  0.0275
 7010TIP3   OH242444   3.254   3.618   5.967  0.1510  0.2751  0.4303
 7010TIP3    H142445   3.335   3.596   6.014  0.3646 -1.0367 -0.4877
 7010TIP3    H242446   3.262   3.711   5.948  1.2780  0.2572  0.7025
 7011TIP3   OH242447   4.175   6.375  15.986  0.2992 -0.0602 -0.1315
 7011TIP3    H142448   4.124   6.294  15.997  1.4163 -0.5956  1.6873
 7011TIP3    H242449   4.110   6.445  15.988 -0.7081 -0.8773 -1.8355
 7012TIP3   OH242450   2.516   1.543   0.626 -0.4789 -0.0085 -0.2292
 7012TIP3    H142451   2.561   1.459   0.636 -1.6860 -0.9181 -1.8243
 7012TIP3    H242452   2.537   1.571   0.537  0.9249  2.0673  0.6939
 7013TIP3   OH242453   1.399   1.725   1.552  0.5708  0.0244 -0.4890
 7013TIP3    H142454   1.432   1.639   1.578  0.8604 -0.7682 -3.2335
 7013TIP3    H242455   1.474   1.784   1.563  0.2024  0.1383  1.9829
 7014TIP3   OH242456   5.142   3.165   3.954 -0.2876  0.3918 -0.0650
 7014TIP3    H142457   5.061   3.195   3.996 -0.6170 -0.6810  0.1041
 7014TIP3    H242458   5.170   3.090   4.006  0.2365  0.0974 -0.7477
 7015TIP3   OH242459   1.675   0.282  14.581 -0.5696 -0.4824 -0.4484
 7015TIP3    H142460   1.620   0.239  14.516  1.3624  0.4988 -2.9154
 7015TIP3    H242461   1.763   0.281  14.542  0.6370  0.4755  2.0349
 7016TIP3   OH242462   4.178   2.892   0.905  0.1456  0.8118 -0.3461
 7016TIP3    H142463   4.117   2.882   0.978  1.5502  0.0142  0.7574
 7016TIP3    H242464   4.122   2.918   0.831 -1.0612  4.1374  1.5178
 7017TIP3   OH242465   5.831   4.357  15.732  0.1403  0.1868 -0.5155
 7017TIP3    H142466   5.888   4.311  15.669  0.8830  0.8353 -0.3289
 7017TIP3    H242467   5.864   4.331  15.818  0.3687  0.8201 -0.4074
 7018TIP3   OH242468   3.844   4.848   2.377 -0.1416 -0.0449 -0.3396
 7018TIP3    H142469   3.906   4.792   2.331 -0.5910 -0.9233  0.0965
 7018TIP3    H242470   3.758   4.814   2.352 -0.3986 -0.7491  1.3721
 7019TIP3   OH242471   4.570   2.556   5.421  0.4470 -0.0041 -0.3778
 7019TIP3    H142472   4.578   2.542   5.327  0.8291  1.8021 -0.6602
 7019TIP3    H242473   4.652   2.522   5.457 -0.1473 -1.6909 -0.5229
 7020TIP3   OH242474   2.601   4.376   6.308  0.1834 -0.2628  0.0524
 7020TIP3    H142475   2.693   4.389   6.328  0.0672  0.0692  0.3837
 7020TIP3    H242476   2.579   4.447   6.249  0.6260 -1.4645 -1.6365
 7021TIP3   OH242477   0.074   5.899  12.965 -0.0503  0.2076 -0.1387
 7021TIP3    H142478  -0.010   5.859  12.943  0.3829 -1.1446  0.5639
 7021TIP3    H242479   0.068   5.988  12.930 -0.5186 -0.8676 -3.0320
 7022TIP3   OH242480   2.380   2.774  16.062  0.4526  0.0970 -0.0144
 7022TIP3    H142481   2.335   2.858  16.055 -1.5588 -0.8169  1.1619
 7022TIP3    H242482   2.382   2.740  15.972  0.0039  0.7680 -0.2825
 7023TIP3   OH242483   1.190   2.197   5.637 -0.0656  0.3782 -0.6874
 7023TIP3    H142484   1.252   2.127   5.656  0.5026  1.3274  1.1274
 7023TIP3    H242485   1.107   2.166   5.673 -0.1843 -0.0089 -1.2784
 7024TIP3   OH242486   4.681   3.443   4.489 -0.2234 -0.4457  0.1013
 7024TIP3    H142487   4.625   3.379   4.533 -0.5044 -0.1117  0.2370
 7024TIP3    H242488   4.665   3.525   4.536 -0.7917 -0.0004 -0.8428
 7025TIP3   OH242489   3.032   0.982   3.611 -0.3318 -0.1965  0.6970
 7025TIP3    H142490   3.008   1.050   3.548  0.2192  0.3808  1.0872
 7025TIP3    H242491   3.087   1.028   3.675 -1.3415 -0.6462  1.9158
 7026TIP3   OH242492   0.959   5.121  16.211 -0.1611 -0.5125  0.1664
 7026TIP3    H142493   1.047   5.125  16.250 -0.4843 -0.4332  0.9047
 7026TIP3    H242494   0.926   5.210  16.218 -0.7554 -0.7893  0.9726
 7027TIP3   OH242495   6.229   5.772  10.778 -0.0257  0.3990 -0.3391
 7027TIP3    H142496   6.213   5.706  10.710  0.9018  1.6408 -1.8209
 7027TIP3    H242497   6.152   5.829  10.773  0.2643  0.7608 -0.6759
 7028TIP3   OH242498   4.319   3.779  15.248  0.5702  0.2978 -0.2800
 7028TIP3    H142499   4.375   3.837  15.197 -0.4181  0.2258 -1.4826
 7028TIP3    H242500   4.233   3.820  15.245  0.6981  0.9865  2.4483
 7029TIP3   OH242501   0.335   1.785  16.411  0.3894  0.6384 -0.2590
 7029TIP3    H142502   0.378   1.859  16.370  1.8057 -0.5226 -0.9374
 7029TIP3    H242503   0.394   1.758  16.481  1.3617 -1.5813 -1.8224
 7030TIP3   OH242504   2.955   5.461  15.447  0.5537 -0.5762  0.0010
 7030TIP3    H142505   2.903   5.539  15.467 -1.4118 -1.9003  0.3807
 7030TIP3    H242506   2.911   5.422  15.372  0.5712 -2.1009  0.7465
 7031TIP3   OH242507   0.970   0.515  14.631 -0.1301  0.1962  0.0242
 7031TIP3    H142508   1.019   0.584  14.586  1.3095 -0.1331  0.9978
 7031TIP3    H242509   0.968   0.544  14.723  0.1732 -0.8539  0.3777
 7032TIP3   OH242510   1.238   1.525   5.357  0.2121  0.2303 -0.2866
 7032TIP3    H142511   1.266   1.614   5.337 -1.7700  0.7222 -1.0488
 7032TIP3    H242512   1.192   1.532   5.441 -4.0509  0.9420 -2.4339
 7033TIP3   OH242513   5.070   4.895  13.135  0.1256  0.0748  0.0185
 7033TIP3    H142514   5.031   4.855  13.213  1.0109 -1.5090 -0.3055
 7033TIP3    H242515   5.007   4.878  13.066  0.4754 -0.7419 -0.1062
 7034TIP3   OH242516   5.004   0.308   1.821 -0.3017  0.1825 -0.0302
 7034TIP3    H142517   5.017   0.224   1.865 -0.6219  1.5707  2.9234
 7034TIP3    H242518   5.074   0.312   1.755  0.4877 -1.8427  0.6226
 7035TIP3   OH242519   1.879   3.652   5.047  0.3901 -0.2967  0.0296
 7035TIP3    H142520   1.894   3.628   5.139 -2.5300  0.6279  0.8757
 7035TIP3    H242521   1.851   3.744   5.051 -0.0800 -0.3352 -1.7424
 7036TIP3   OH242522   0.689   5.548  11.512  0.7815 -0.2623 -0.2339
 7036TIP3    H142523   0.756   5.560  11.444 -0.1695  1.2040 -0.9707
 7036TIP3    H242524   0.631   5.623  11.501 -1.3231 -1.7672 -0.0164
 7037TIP3   OH242525   5.567   6.405   2.795 -0.5503 -0.0208  0.0522
 7037TIP3    H142526   5.499   6.470   2.781 -1.2975 -0.3439  1.9243
 7037TIP3    H242527   5.646   6.445   2.759 -0.7289  2.4469  2.1508
 7038TIP3   OH242528   6.505   2.958   1.279 -0.3856 -0.1354  0.2570
 7038TIP3    H142529   6.586   2.946   1.329 -1.1867  0.3026  1.7480
 7038TIP3    H242530   6.524   3.029   1.218  0.6435 -0.7145 -0.1091
 7039TIP3   OH242531   3.312   2.828  16.916 -0.1130  0.0605  0.0869
 7039TIP3    H142532   3.220   2.851  16.921 -0.1014  0.1912 -0.2282
 7039TIP3    H242533   3.314   2.732  16.914 -0.2493  0.0602 -0.0117
 7040TIP3   OH242534   5.070   6.500  14.479  0.0303  0.0619  0.1425
 7040TIP3    H142535   5.012   6.425  14.492 -0.3861  0.2321 -0.6593
 7040TIP3    H242536   5.015   6.576  14.492 -0.3250  0.2404 -2.0223
 7041TIP3   OH242537   3.365   4.422   5.565  0.0156  0.4899  0.2857
 7041TIP3    H142538   3.404   4.374   5.492  0.3323  0.4732  0.4660
 7041TIP3    H242539   3.306   4.485   5.524 -0.9435 -0.5292  0.0684
 7042TIP3   OH242540   2.794   5.822  11.922 -0.3022  0.0778  0.2388
 7042TIP3    H142541   2.701   5.799  11.934 -0.0946 -1.3508 -0.6498
 7042TIP3    H242542   2.837   5.788  12.000 -0.3895 -0.1884  0.1735
 7043TIP3   OH242543   0.486   1.466   1.324 -0.4118 -0.0807  0.3959
 7043TIP3    H142544   0.416   1.472   1.390 -0.5340 -0.7612  0.3371
 7043TIP3    H242545   0.563   1.440   1.374 -0.7570 -1.7144  0.1353
 7044TIP3   OH242546   2.064   1.867  10.673 -0.1888 -0.3714 -0.3755
 7044TIP3    H142547   2.027   1.803  10.734 -0.4265  0.9224  0.9047
 7044TIP3    H242548   2.159   1.851  10.677 -0.0394  0.6393  1.5413
 7045TIP3   OH242549   0.273   6.449   5.752 -0.1276 -0.0752 -0.2749
 7045TIP3    H142550   0.273   6.354   5.739  0.2905  0.1894 -2.7169
 7045TIP3    H242551   0.191   6.478   5.713 -0.1019  0.6116  0.1734
 7046TIP3   OH242552   1.609   2.440  12.874 -0.2632 -0.3660 -0.4238
 7046TIP3    H142553   1.627   2.447  12.780 -0.3217  1.1835 -0.3415
 7046TIP3    H242554   1.658   2.512  12.913 -0.1894 -1.0365  0.7531
 7047TIP3   OH242555   5.896   6.128  11.299 -0.7546 -0.1066  0.8071
 7047TIP3    H142556   5.913   6.038  11.272 -0.6095 -0.2021  1.2130
 7047TIP3    H242557   5.983   6.163  11.320 -0.3476  1.1219 -2.3543
 7048TIP3   OH242558   1.366   0.419   5.459 -0.0463 -0.0760  0.2390
 7048TIP3    H142559   1.342   0.511   5.459  1.8770  0.4639 -0.1247
 7048TIP3    H242560   1.398   0.402   5.547  1.0980  0.0405 -0.1441
 7049TIP3   OH242561   6.364   2.532  13.578  0.2920 -0.1606  0.1912
 7049TIP3    H142562   6.355   2.493  13.491 -0.1411  0.7499 -0.1893
 7049TIP3    H242563   6.365   2.457  13.638 -1.5140 -0.7335 -0.4186
 7050TIP3   OH242564   3.535   3.502   0.779  0.2455 -0.2060  0.1920
 7050TIP3    H142565   3.507   3.555   0.853  2.6212  1.6253 -0.1220
 7050TIP3    H242566   3.606   3.552   0.738 -0.0560 -1.7809 -2.5263
 7051TIP3   OH242567   4.593   0.318   0.937  0.4674 -0.1587 -0.3574
 7051TIP3    H142568   4.533   0.326   0.862  0.1028 -1.1954 -0.1884
 7051TIP3    H242569   4.656   0.252   0.910  1.7504  1.1296 -0.6490
 7052TIP3   OH242570   4.391   2.145  12.045 -0.2538  0.5861 -0.3273
 7052TIP3    H142571   4.433   2.083  12.105 -1.3232 -0.0529 -0.2024
 7052TIP3    H242572   4.427   2.124  11.959  0.0230  0.3629 -0.1577
 7053TIP3   OH242573   6.154   5.311   6.133 -0.4463 -0.1770 -0.1728
 7053TIP3    H142574   6.102   5.357   6.067 -2.5865 -1.6112  0.3947
 7053TIP3    H242575   6.103   5.319   6.214  0.2925 -1.4933  0.4518
 7054TIP3   OH242576   1.276   3.754  16.328 -0.3836 -0.2875  0.4561
 7054TIP3    H142577   1.233   3.835  16.356  0.1203  0.1352  0.0197
 7054TIP3    H242578   1.363   3.758  16.367 -0.7054 -1.1243  1.3021
 7055TIP3   OH242579   4.187   4.474   5.118  0.2801  0.0602 -0.0943
 7055TIP3    H142580   4.121   4.421   5.073  0.7479 -0.5123 -0.1157
 7055TIP3    H242581   4.240   4.411   5.167  1.6948  0.3373 -1.1865
 7056TIP3   OH242582   0.993   6.604   3.861  0.0764 -0.1524  0.5282
 7056TIP3    H142583   0.900   6.624   3.868 -0.0332 -1.2537  3.3868
 7056TIP3    H242584   1.001   6.557   3.778 -1.7717  0.5403 -0.1005
 7057TIP3   OH242585   2.328   5.323  12.792  0.4335  0.1025  0.3061
 7057TIP3    H142586   2.301   5.237  12.823 -0.0551  0.2257  0.2331
 7057TIP3    H242587   2.359   5.308  12.703 -0.4752  0.1353 -0.0252
 7058TIP3   OH242588   0.216   0.087  12.154 -0.3405  0.5810  0.0103
 7058TIP3    H142589   0.160   0.161  12.132 -1.2801  0.5306  2.0228
 7058TIP3    H242590   0.260   0.113  12.234  0.6586 -0.3568 -0.2141
 7059TIP3   OH242591   4.015   3.183  11.686 -0.3071 -0.3744 -0.1688
 7059TIP3    H142592   3.999   3.277  11.685 -0.1076 -0.2716 -3.6971
 7059TIP3    H242593   4.110   3.174  11.681 -0.3865 -0.6857 -1.5395
 7060TIP3   OH242594   3.249   4.032   2.011 -0.1431  0.1517  0.1751
 7060TIP3    H142595   3.307   4.065   2.079 -0.6042  1.5832 -0.0819
 7060TIP3    H242596   3.185   3.978   2.058  0.4271 -0.1062  0.6665
 7061TIP3   OH242597   2.498   2.424  12.646  0.1284  0.4319  0.2503
 7061TIP3    H142598   2.451   2.508  12.642 -2.9856 -1.2184 -1.1227
 7061TIP3    H242599   2.506   2.397  12.555 -2.2983 -2.3868  0.7368
 7062TIP3   OH242600   4.856   2.362  13.412 -0.4682  0.0220 -0.0434
 7062TIP3    H142601   4.918   2.435  13.414  0.1855 -0.4846 -1.0782
 7062TIP3    H242602   4.849   2.338  13.320  1.0965 -2.6623  0.4023
 7063TIP3   OH242603   3.212   3.736  17.344 -0.4734  0.5855  0.0953
 7063TIP3    H142604   3.137   3.771  17.296 -1.5768 -0.4731  1.0177
 7063TIP3    H242605   3.175   3.676  17.408  1.1256  0.4307  0.9332
 7064TIP3   OH242606   4.845   4.353  11.573 -0.4613 -0.5491  0.4016
 7064TIP3    H142607   4.759   4.372  11.535 -2.7751 -2.1104  4.3334
 7064TIP3    H242608   4.839   4.263  11.604  2.7252 -0.7795  0.6686
 7065TIP3   OH242609   6.642   1.414  14.040 -0.1566  0.3733 -0.5645
 7065TIP3    H142610   6.714   1.450  14.092  0.5210 -1.2090 -0.3437
 7065TIP3    H242611   6.594   1.490  14.009  0.5120  1.4075  0.8554
 7066TIP3   OH242612   3.077   4.770   0.373  0.1376 -0.1691 -0.2768
 7066TIP3    H142613   3.122   4.687   0.354  1.6999  0.2076  1.4587
 7066TIP3    H242614   3.148   4.833   0.386 -0.9932  1.1776 -0.4121
 7067TIP3   OH242615   3.361   6.358   3.824  0.2647 -0.2154 -0.3463
 7067TIP3    H142616   3.286   6.301   3.806  0.4307 -0.6112  0.1857
 7067TIP3    H242617   3.350   6.385   3.915  0.6359 -0.0739 -0.3424
 7068TIP3   OH242618   0.365   1.717  14.701  0.0761 -0.5035  0.1365
 7068TIP3    H142619   0.359   1.623  14.714  1.0998 -0.5698  0.1697
 7068TIP3    H242620   0.458   1.736  14.699 -0.0903  0.7370  1.7103
 7069TIP3   OH242621   6.138   1.609  16.098 -0.1612 -0.1895 -0.4439
 7069TIP3    H142622   6.133   1.622  16.003 -2.2890 -1.4589 -0.5762
 7069TIP3    H242623   6.231   1.593  16.115 -0.0099 -2.5112 -2.7468
 7070TIP3   OH242624   0.624   6.165   4.096  0.9537 -0.2290  0.2249
 7070TIP3    H142625   0.533   6.177   4.068  0.3046 -3.3173  0.6428
 7070TIP3    H242626   0.676   6.212   4.032 -0.9061  1.0080 -0.4423
 7071TIP3   OH242627   2.202   5.568   6.350  0.2067  0.6386  0.3971
 7071TIP3    H142628   2.296   5.559   6.362  0.5937  3.1191 -0.2684
 7071TIP3    H242629   2.174   5.627   6.420 -0.9330 -0.3201  0.7832
 7072TIP3   OH242630   2.001   4.218   3.632  0.1394 -0.3544 -0.2257
 7072TIP3    H142631   1.945   4.175   3.567 -0.8599 -0.4558  0.6749
 7072TIP3    H242632   2.086   4.175   3.623 -0.3891 -1.3781 -0.4559
 7073TIP3   OH242633   3.099   0.301   3.858  0.3624  0.0466 -0.1325
 7073TIP3    H142634   3.108   0.375   3.798  2.0301 -0.6908 -0.8366
 7073TIP3    H242635   3.165   0.316   3.925 -0.6092  0.1751  0.8277
 7074TIP3   OH242636   1.719   1.432  12.962 -0.5673  0.1455  0.2659
 7074TIP3    H142637   1.783   1.397  12.900 -0.6442 -2.9779  1.7456
 7074TIP3    H242638   1.748   1.522  12.977  0.6807  0.3530 -2.6022
 7075TIP3   OH242639   6.307   4.518   5.260  0.6468  0.2892  0.1259
 7075TIP3    H142640   6.211   4.513   5.265  0.6868 -1.3742 -0.3419
 7075TIP3    H242641   6.335   4.521   5.352  0.2297 -1.9199  0.3767
 7076TIP3   OH242642   4.534   4.999  10.918  0.5267  0.2473 -0.4415
 7076TIP3    H142643   4.581   4.920  10.891 -0.7664 -0.3881 -0.9546
 7076TIP3    H242644   4.595   5.047  10.973  0.8233 -1.8903  1.2217
 7077TIP3   OH242645   2.045   4.907   1.042  0.3569  0.0061 -0.1481
 7077TIP3    H142646   2.033   4.943   1.130  0.7833  1.2529 -0.5697
 7077TIP3    H242647   1.999   4.824   1.043 -0.5150  0.4790  0.9522
 7078TIP3   OH242648   6.633   3.184  13.390 -0.1423  0.2887 -0.3820
 7078TIP3    H142649   6.628   3.146  13.302 -1.7345 -1.2377  0.2996
 7078TIP3    H242650   6.664   3.112  13.445  0.5594  1.1425  0.3703
 7079TIP3   OH242651   2.515   0.074   0.223 -0.2445 -0.3789  0.6771
 7079TIP3    H142652   2.585   0.136   0.203 -0.0907 -0.3224  1.3524
 7079TIP3    H242653   2.559   0.003   0.270 -0.6343 -0.3470  1.0979
 7080TIP3   OH242654   3.566   6.526  11.360  0.5219 -0.5959 -0.2134
 7080TIP3    H142655   3.658   6.510  11.340  0.4561 -1.5727  0.2622
 7080TIP3    H242656   3.543   6.462  11.427 -0.6700 -0.7766 -0.7599
 7081TIP3   OH242657   2.910   1.916   2.709 -0.2408  0.0060  0.2815
 7081TIP3    H142658   2.929   1.904   2.616 -0.2776 -0.9059  0.3785
 7081TIP3    H242659   2.814   1.919   2.714 -0.2253  2.4781  0.0335
 7082TIP3   OH242660   0.588   2.582   2.791 -0.4977 -0.0990  0.1076
 7082TIP3    H142661   0.592   2.677   2.797 -0.2877  0.0136 -1.3831
 7082TIP3    H242662   0.547   2.565   2.706 -0.9366 -1.3423  0.5437
 7083TIP3   OH242663   0.262   4.717  17.212 -0.2273  0.7545  0.2460
 7083TIP3    H142664   0.230   4.663  17.140  1.1250  0.6751 -0.3276
 7083TIP3    H242665   0.324   4.778  17.170 -0.4355  1.6052  1.1372
 7084TIP3   OH242666   1.714   1.397   2.057  0.3874 -0.2144 -0.2222
 7084TIP3    H142667   1.637   1.388   2.000 -0.3963 -0.1448  0.7936
 7084TIP3    H242668   1.724   1.311   2.097  0.3913 -0.0273  0.1902
 7085TIP3   OH242669   2.112   3.636  14.410  0.3209 -0.0737  1.0121
 7085TIP3    H142670   2.087   3.705  14.472  1.7250 -1.5529  3.4191
 7085TIP3    H242671   2.044   3.569  14.421  1.4020 -1.0201  2.2168
 7086TIP3   OH242672   5.572   3.737  15.786 -0.6135 -0.2101  0.4725
 7086TIP3    H142673   5.660   3.773  15.797 -0.0869 -1.0398 -0.7622
 7086TIP3    H242674   5.557   3.739  15.691 -2.6154  1.4406  0.7513
 7087TIP3   OH242675   4.721   2.533  13.223  0.1407 -0.1339 -0.4082
 7087TIP3    H142676   4.633   2.494  13.227 -0.0647  0.3740  0.0225
 7087TIP3    H242677   4.772   2.471  13.170 -0.3613 -0.6528 -0.2904
 7088TIP3   OH242678   0.234   3.154  13.743 -0.8474 -0.3651  0.0499
 7088TIP3    H142679   0.304   3.204  13.702 -1.2613  0.5105  0.3747
 7088TIP3    H242680   0.167   3.146  13.674 -1.7322  1.4900  0.6436
 7089TIP3   OH242681   6.562   5.660  15.559  0.2407 -0.0688 -0.0497
 7089TIP3    H142682   6.564   5.577  15.606  0.3055 -0.0149  0.0447
 7089TIP3    H242683   6.652   5.676  15.534  0.2943  0.1700  0.2857
 7090TIP3   OH242684   5.806   1.685   3.423 -0.0086  0.0696  0.1156
 7090TIP3    H142685   5.819   1.773   3.458 -0.9533  0.2888 -0.0581
 7090TIP3    H242686   5.715   1.663   3.446  0.2645 -0.9193  0.2950
 7091TIP3   OH242687   1.525   6.021  11.780  0.3324  0.2687  0.3864
 7091TIP3    H142688   1.543   6.075  11.703 -0.3238 -0.9280 -0.6489
 7091TIP3    H242689   1.611   6.008  11.821  0.4624  2.3937  0.9304
 7092TIP3   OH242690   0.664   3.083  14.239 -1.1910  0.1632  0.6393
 7092TIP3    H142691   0.570   3.096  14.245 -1.0197  2.2391 -0.4330
 7092TIP3    H242692   0.701   3.171  14.233  0.8273 -0.5964  1.0252
 7093TIP3   OH242693   0.286   1.257   2.635 -0.1834 -0.1675  0.2134
 7093TIP3    H142694   0.200   1.273   2.595  0.3874  1.6947 -0.3373
 7093TIP3    H242695   0.326   1.343   2.641  1.7065 -1.0198  0.3781
 7094TIP3   OH242696   5.592   0.629   3.646 -0.0081  0.1219 -0.0006
 7094TIP3    H142697   5.661   0.576   3.605 -0.3295  0.3613 -0.8857
 7094TIP3    H242698   5.540   0.565   3.694  0.1295 -0.2440 -0.3223
 7095TIP3   OH242699   6.656   4.352   1.552  0.0214 -0.8864  0.5280
 7095TIP3    H142700   6.597   4.279   1.534  1.9779 -2.2421 -0.8265
 7095TIP3    H242701   6.739   4.326   1.512  0.6596  2.3739 -0.5662
 7096TIP3   OH242702   3.502   1.108  15.002  0.4046 -0.2280 -0.5441
 7096TIP3    H142703   3.450   1.033  14.975  3.2731 -2.7887  0.4676
 7096TIP3    H242704   3.538   1.084  15.087  1.8978  2.0633 -0.4107
 7097TIP3   OH242705   6.201   2.253   3.024  0.1896 -0.2933  0.2347
 7097TIP3    H142706   6.120   2.290   2.990 -0.5896 -0.4961  1.7704
 7097TIP3    H242707   6.180   2.161   3.042  1.3832 -0.9019 -1.2553
 7098TIP3   OH242708   5.733   6.164   2.128 -0.3078  0.1188 -0.5092
 7098TIP3    H142709   5.746   6.087   2.183  0.3278  0.3064 -0.3830
 7098TIP3    H242710   5.797   6.153   2.057  0.0417  0.7116 -0.2868
 7099TIP3   OH242711   4.337   1.798   4.632 -0.0132 -0.0672 -0.1349
 7099TIP3    H142712   4.241   1.792   4.639  0.0409 -2.0836 -0.4290
 7099TIP3    H242713   4.365   1.707   4.622  1.9643  0.4759  0.1719
 7100TIP3   OH242714   0.617   5.801   0.658  0.6402  0.0508  0.0797
 7100TIP3    H142715   0.531   5.828   0.690  0.0011 -1.0290 -0.6653
 7100TIP3    H242716   0.675   5.874   0.680 -0.3278  0.5215  1.1606
 7101TIP3   OH242717   2.739   3.714   2.483  0.0382 -0.0178 -0.2745
 7101TIP3    H142718   2.786   3.794   2.458 -1.1776  1.2861  1.3748
 7101TIP3    H242719   2.650   3.727   2.451 -0.1681 -0.7362 -0.0149
 7102TIP3   OH242720   0.994   4.936   0.498  0.3985 -0.7096 -0.2821
 7102TIP3    H142721   1.006   4.903   0.587 -0.3621  0.5334  0.3116
 7102TIP3    H242722   0.900   4.954   0.492  0.6823  0.7758 -0.7472
 7103TIP3   OH242723   5.653   5.265  11.418  0.0495 -0.0931 -0.5442
 7103TIP3    H142724   5.620   5.325  11.351  1.2256 -2.0541 -3.0851
 7103TIP3    H242725   5.736   5.233  11.382 -0.0501 -2.4585  1.1041
 7104TIP3   OH242726   0.688   4.615  15.798 -0.0695  0.2346 -0.6133
 7104TIP3    H142727   0.664   4.630  15.889 -0.1414 -1.1265 -0.3915
 7104TIP3    H242728   0.607   4.629  15.749 -0.6539 -1.4158 -0.1859
 7105TIP3   OH242729   2.564   2.321   3.515  0.2782 -0.0978  0.6855
 7105TIP3    H142730   2.539   2.382   3.584  0.6382 -0.2420  0.9491
 7105TIP3    H242731   2.504   2.247   3.524 -2.0224  1.3756 -1.3809
 7106TIP3   OH242732   6.641   3.733  13.651 -0.4766  0.4727  0.5167
 7106TIP3    H142733   6.557   3.718  13.695 -1.1195 -2.1052 -1.3716
 7106TIP3    H242734   6.617   3.764  13.564  0.6073  0.7455  0.2996
 7107TIP3   OH242735   4.437   0.514   4.159  0.4129 -0.0303 -0.5512
 7107TIP3    H142736   4.375   0.520   4.232 -0.0232  2.5167 -1.0417
 7107TIP3    H242737   4.522   0.500   4.202 -0.0989 -0.6783  0.2945
 7108TIP3   OH242738   6.096   1.974   6.230 -0.7661 -0.1216 -0.0822
 7108TIP3    H142739   6.074   1.988   6.322 -1.6521  3.6885 -0.7080
 7108TIP3    H242740   6.192   1.968   6.229 -0.6704  0.9058  1.0069
 7109TIP3   OH242741   6.257   5.507  16.233  0.6646 -0.0167 -0.0395
 7109TIP3    H142742   6.207   5.557  16.168 -1.1267 -0.1234  1.1840
 7109TIP3    H242743   6.240   5.416  16.211  0.7715 -0.0554  0.0417
 7110TIP3   OH242744   4.296   4.381   0.312 -0.4486  0.1615  0.3678
 7110TIP3    H142745   4.314   4.302   0.362  2.0109  0.3834 -0.0440
 7110TIP3    H242746   4.306   4.453   0.375  1.8435  0.3810 -0.1314
 7111TIP3   OH242747   5.630   4.747   4.884 -0.2906 -0.5561 -0.7331
 7111TIP3    H142748   5.649   4.668   4.935  0.0273 -0.4262 -0.6475
 7111TIP3    H242749   5.553   4.724   4.832 -1.3074 -0.3501  0.6000
 7112TIP3   OH242750   5.133   0.381   2.714 -0.3218 -0.0358 -0.2146
 7112TIP3    H142751   5.100   0.318   2.650  0.1035 -0.5920  0.1006
 7112TIP3    H242752   5.132   0.334   2.797  1.7552 -0.2935 -0.2731
 7113TIP3   OH242753   1.920   5.648  12.924  0.2115 -0.2423  0.7529
 7113TIP3    H142754   1.939   5.741  12.939 -0.6816  0.0800 -0.0258
 7113TIP3    H242755   2.005   5.605  12.933  0.3264  0.3508  3.1428
 7114TIP3   OH242756   4.271   0.247   6.539 -0.2813  0.7789  0.2135
 7114TIP3    H142757   4.240   0.316   6.598 -0.5819  0.3843  0.5224
 7114TIP3    H242758   4.240   0.166   6.579 -0.8567  0.5301 -0.7251
 7115TIP3   OH242759   4.638   2.735   3.906  0.0846 -0.4638  0.0226
 7115TIP3    H142760   4.669   2.664   3.849  0.6373 -1.1837  1.1768
 7115TIP3    H242761   4.709   2.799   3.904  0.3395 -0.7349  0.3195
 7116TIP3   OH242762   3.024   4.127  13.611  0.6476 -0.2684  0.0996
 7116TIP3    H142763   3.067   4.067  13.550  0.7737 -0.7483  0.6513
 7116TIP3    H242764   2.983   4.070  13.676 -0.9298  0.1570 -0.4596
 7117TIP3   OH242765   2.685   2.821  11.624  0.0120 -0.2007  0.2865
 7117TIP3    H142766   2.626   2.770  11.568 -0.2504  0.7788 -0.3619
 7117TIP3    H242767   2.645   2.816  11.711 -1.0410  0.4319 -0.1349
 7118TIP3   OH242768   1.687   5.017   0.751  0.1215 -0.1632 -0.6455
 7118TIP3    H142769   1.646   5.097   0.719 -0.2608 -0.0800  0.0330
 7118TIP3    H242770   1.764   5.048   0.801 -0.1516 -0.1966 -0.1953
 7119TIP3   OH242771   3.167   2.495  14.617 -0.1079  0.3010 -0.3688
 7119TIP3    H142772   3.111   2.422  14.590 -0.0892 -0.2068  0.8788
 7119TIP3    H242773   3.221   2.459  14.687  0.4124  1.3204 -0.2266
 7120TIP3   OH242774   6.062   6.643  15.736 -0.1721  0.1103  0.3290
 7120TIP3    H142775   6.101   6.724  15.704 -2.0895  1.3196  0.8884
 7120TIP3    H242776   5.967   6.659  15.732 -0.6602 -2.4538 -0.4437
 7121TIP3   OH242777   1.177   4.078  16.161  0.1062 -0.0470 -0.1696
 7121TIP3    H142778   1.145   4.031  16.238 -0.8152 -0.6431 -0.8899
 7121TIP3    H242779   1.099   4.092  16.108  0.5949  1.0857 -0.6233
 7122TIP3   OH242780   2.756   0.640   6.678  0.4278  0.1121  0.2375
 7122TIP3    H142781   2.740   0.553   6.642 -2.6968  1.2315 -1.5201
 7122TIP3    H242782   2.684   0.653   6.740  0.2459  1.7415 -0.2619
 7123TIP3   OH242783   0.698   5.578  16.550  0.2025 -0.2825 -0.1499
 7123TIP3    H142784   0.757   5.592  16.624 -0.8769 -0.0822  0.6981
 7123TIP3    H242785   0.694   5.662  16.505 -1.3495  0.4631  1.2590
 7124TIP3   OH242786   2.737   0.293   5.907  0.0652  0.0590  0.0319
 7124TIP3    H142787   2.735   0.370   5.964 -1.0710  0.0429  0.0505
 7124TIP3    H242788   2.738   0.219   5.968  0.0553  0.0567  0.0295
 7125TIP3   OH242789   6.670   3.056  15.663  0.0544  0.1988  0.4385
 7125TIP3    H142790   6.765   3.057  15.658  0.0013 -0.5313 -2.2318
 7125TIP3    H242791   6.650   2.981  15.720  1.1159 -1.8265 -1.6907
 7126TIP3   OH242792   6.684   1.071  14.899 -0.3457 -0.2404  0.1359
 7126TIP3    H142793   6.710   1.088  14.808  0.2283 -0.7321  0.2039
 7126TIP3    H242794   6.697   0.977  14.911 -3.7490 -0.9207 -0.3120
 7127TIP3   OH242795   3.481   6.346  11.568 -0.0710 -0.2330 -0.2191
 7127TIP3    H142796   3.391   6.312  11.562 -0.4489  0.6890  0.0466
 7127TIP3    H242797   3.530   6.276  11.612 -1.4336  0.6239  2.8990
 7128TIP3   OH242798   1.651   4.679  17.198 -0.3619 -0.0549 -0.0485
 7128TIP3    H142799   1.659   4.769  17.230 -1.1413 -0.0196  0.0716
 7128TIP3    H242800   1.702   4.627  17.260 -0.9113  0.1579  0.5918
 7129TIP3   OH242801   0.332   2.375   2.298  0.1083  0.2090  0.4927
 7129TIP3    H142802   0.277   2.319   2.244 -0.1264  0.2397  0.7039
 7129TIP3    H242803   0.397   2.315   2.336  0.5442  0.2515 -0.1670
 7130TIP3   OH242804   6.551   5.563   4.452  0.2875  0.3349  0.9716
 7130TIP3    H142805   6.466   5.541   4.415  0.2028  0.0866  1.3081
 7130TIP3    H242806   6.615   5.526   4.391  0.2270  2.8100 -0.7537
 7131TIP3   OH242807   5.039   3.387   3.129 -0.1931 -0.1281  0.0865
 7131TIP3    H142808   4.954   3.350   3.154 -0.7784  1.2225  0.1754
 7131TIP3    H242809   5.066   3.436   3.207  3.0384 -4.3531  2.0283
 7132TIP3   OH242810   5.917   1.772  16.041  0.4196 -0.0931  0.2367
 7132TIP3    H142811   5.982   1.718  16.087 -0.0309  0.7534  1.9385
 7132TIP3    H242812   5.950   1.861  16.050 -0.4268  0.2303  0.1659
 7133TIP3   OH242813   2.819   0.023  15.141  0.3092  0.0970  0.2625
 7133TIP3    H142814   2.806   0.018  15.046 -0.2620 -0.9758  0.3833
 7133TIP3    H242815   2.785   0.109  15.166  1.7265  0.9883 -0.6762
 7134TIP3   OH242816   3.689   3.320  16.646 -0.0867  0.5339 -0.1392
 7134TIP3    H142817   3.594   3.329  16.641 -0.4013 -2.2735 -0.9339
 7134TIP3    H242818   3.715   3.296  16.557  1.2391  0.3982  0.2738
 7135TIP3   OH242819   6.300   2.177  12.885 -0.0374 -0.5408 -0.0171
 7135TIP3    H142820   6.261   2.174  12.972 -0.2683 -0.0825 -0.0949
 7135TIP3    H242821   6.274   2.263  12.851  0.7919 -0.3543 -0.1923
 7136TIP3   OH242822   2.777   4.120  13.976 -0.0275  0.0693 -0.2837
 7136TIP3    H142823   2.754   4.121  14.068 -0.7090  0.8236 -0.4530
 7136TIP3    H242824   2.708   4.171  13.933  0.0374 -0.6441 -1.2646
 7137TIP3   OH242825   5.488   4.341   0.934 -0.5774 -0.1490 -0.4029
 7137TIP3    H142826   5.407   4.342   0.882  0.1891 -0.2173 -1.6605
 7137TIP3    H242827   5.547   4.400   0.886  0.3878 -0.7377  0.0380
 7138TIP3   OH242828   6.212   4.906   1.715 -0.0657 -0.2365  0.5383
 7138TIP3    H142829   6.185   4.998   1.717  0.4854 -0.0720  0.6936
 7138TIP3    H242830   6.270   4.899   1.639 -0.3845 -0.5390  0.3199
 7139TIP3   OH242831   1.556   5.395   4.983 -0.2177 -0.6409 -0.1295
 7139TIP3    H142832   1.468   5.428   5.000  0.0996 -1.4220  4.2783
 7139TIP3    H242833   1.546   5.300   4.981  0.4587 -0.7223  0.1185
 7140TIP3   OH242834   1.227   4.254   0.835  0.7887 -0.2139 -0.3821
 7140TIP3    H142835   1.174   4.254   0.756 -0.5470 -0.4148  0.4754
 7140TIP3    H242836   1.230   4.162   0.862 -2.0020  0.1852  1.8034
 7141TIP3   OH242837   2.456   0.420  12.085  0.1868  0.5243 -0.4428
 7141TIP3    H142838   2.461   0.396  12.178 -1.2581 -0.7582 -0.6539
 7141TIP3    H242839   2.534   0.381  12.046  0.9023  1.2283  0.2431
 7142TIP3   OH242840   3.551   4.111   2.429  0.0621  0.2238  0.6615
 7142TIP3    H142841   3.606   4.168   2.374  0.4631 -2.2119 -1.6406
 7142TIP3    H242842   3.613   4.053   2.472 -0.5235 -0.4266  0.6335
 7143TIP3   OH242843   3.691   4.443   2.578  0.6958  0.5926 -0.0469
 7143TIP3    H142844   3.657   4.436   2.489 -0.7476  0.2657  0.5032
 7143TIP3    H242845   3.708   4.536   2.591 -1.1770  0.9588  0.0427
 7144TIP3   OH242846   0.218   5.448   4.747 -0.1191 -0.0655 -0.6412
 7144TIP3    H142847   0.196   5.372   4.801  0.5890  0.2269  0.0843
 7144TIP3    H242848   0.238   5.412   4.661  0.0671 -0.6817 -0.3404
 7145TIP3   OH242849   2.567   5.169  14.521  0.6532 -0.5374  0.4514
 7145TIP3    H142850   2.617   5.121  14.587  1.9099  0.3363  0.1892
 7145TIP3    H242851   2.480   5.181  14.559  0.9373 -1.2642  1.3398
 7146TIP3   OH242852   1.189   6.665  14.077  0.2334 -0.3232 -0.1293
 7146TIP3    H142853   1.129   6.614  14.131 -0.5820 -1.2711 -1.8846
 7146TIP3    H242854   1.141   6.682  13.996  1.7603  0.2518 -0.9534
 7147TIP3   OH242855   4.106   6.526  13.957  0.1832  0.4192  0.2865
 7147TIP3    H142856   4.083   6.468  14.030  0.6258 -1.6700 -1.1129
 7147TIP3    H242857   4.023   6.546  13.915  0.1093 -0.0204  0.2196
 7148TIP3   OH242858   4.393   5.335   3.032  0.5063  0.4202  0.0471
 7148TIP3    H142859   4.438   5.264   2.985  0.4816  0.4972 -0.0932
 7148TIP3    H242860   4.379   5.402   2.966  0.7646  0.6670  0.2405
 7149TIP3   OH242861   2.831   2.251  12.073  0.3222 -0.2893  0.4936
 7149TIP3    H142862   2.793   2.259  11.986  0.1608 -1.5116  0.4376
 7149TIP3    H242863   2.799   2.167  12.106 -0.8014  0.7650  2.3143
 7150TIP3   OH242864   1.567   6.750   0.589 -0.4435 -0.5827  0.2708
 7150TIP3    H142865   1.652   6.716   0.619  0.6382  1.4167 -0.3490
 7150TIP3    H242866   1.519   6.769   0.669  0.3884 -0.0889  0.6626
 7151TIP3   OH242867   3.744   2.400  13.482 -0.4565  0.0576 -0.3537
 7151TIP3    H142868   3.772   2.309  13.480  0.2458  0.2518  0.0474
 7151TIP3    H242869   3.767   2.430  13.571 -1.7044  0.3067 -0.1031
 7152TIP3   OH242870   2.135   3.849  11.724  0.6522  0.0027  0.3254
 7152TIP3    H142871   2.191   3.926  11.732 -0.3044  0.6767  0.7295
 7152TIP3    H242872   2.086   3.863  11.643 -0.3444  0.3900  0.9770
 7153TIP3   OH242873   6.244   0.603  16.163  0.1952 -0.6028  0.6085
 7153TIP3    H142874   6.281   0.521  16.129 -0.4771 -0.3655 -0.7755
 7153TIP3    H242875   6.312   0.639  16.220  1.2759 -1.1645 -0.3005
 7154TIP3   OH242876   0.585   2.991  16.850  0.1419  0.0836  0.1570
 7154TIP3    H142877   0.636   2.971  16.772  0.9789  0.2204  0.6564
 7154TIP3    H242878   0.566   2.906  16.890 -0.5824 -0.0100 -0.3655
 7155TIP3   OH242879   2.875   0.175  12.562 -0.0471  0.0002  0.3754
 7155TIP3    H142880   2.950   0.232  12.543  0.5333 -0.5106  1.0594
 7155TIP3    H242881   2.897   0.135  12.646 -0.3208 -1.4450 -0.2214
 7156TIP3   OH242882   2.054   3.080   0.652  0.6796 -0.3828 -0.1386
 7156TIP3    H142883   2.067   3.065   0.558 -1.4863  1.3658 -0.8265
 7156TIP3    H242884   1.981   3.022   0.676 -0.3370  0.8395 -0.1576
 7157TIP3   OH242885   1.431   3.265   0.870 -0.5446 -0.1641  0.3876
 7157TIP3    H142886   1.348   3.218   0.862 -0.5355 -0.3001  1.0056
 7157TIP3    H242887   1.476   3.248   0.788 -1.1483 -0.0476  0.0234
 7158TIP3   OH242888   2.798   0.982  16.585 -0.1177  0.4017  0.2856
 7158TIP3    H142889   2.876   0.961  16.635  0.0177 -1.2123 -0.5497
 7158TIP3    H242890   2.830   1.032  16.509 -0.3377  2.9731  1.7545
 7159TIP3   OH242891   0.010   6.633   1.888 -0.2813 -0.1424  0.3454
 7159TIP3    H142892   0.001   6.575   1.964  0.8039  0.1558  0.7258
 7159TIP3    H242893   0.026   6.719   1.926  0.0408  0.0511 -0.2159
 7160TIP3   OH242894   4.427   6.333  16.897 -0.6197 -0.3830 -0.3778
 7160TIP3    H142895   4.445   6.282  16.818 -0.0631  0.9506 -1.1458
 7160TIP3    H242896   4.332   6.329  16.907 -0.5607 -1.7937 -0.2444
 7161TIP3   OH242897   2.231   2.222  13.581 -0.1124 -0.1449 -0.1884
 7161TIP3    H142898   2.295   2.232  13.510  0.9777 -1.9749  0.4783
 7161TIP3    H242899   2.196   2.134  13.569 -1.5814  0.3458  0.2488
 7162TIP3   OH242900   5.190   2.869   4.291 -0.0038 -0.2347  0.2196
 7162TIP3    H142901   5.167   2.959   4.314 -1.1161 -0.6741  0.8887
 7162TIP3    H242902   5.159   2.859   4.201 -1.8066 -0.5679  0.8376
 7163TIP3   OH242903   1.607   2.814  11.939 -0.0357  0.4056  0.4390
 7163TIP3    H142904   1.645   2.727  11.922  3.2302  1.9878 -1.2943
 7163TIP3    H242905   1.655   2.847  12.014  0.3438  1.5158 -0.2660
 7164TIP3   OH242906   3.060   0.777  12.905  0.6600 -0.6950 -0.0613
 7164TIP3    H142907   3.036   0.711  12.971  0.7120 -0.4107  0.2394
 7164TIP3    H242908   3.107   0.844  12.954  0.9077 -0.5997 -0.4313
 7165TIP3   OH242909   0.903   3.137  17.385 -0.2264  0.0237 -0.3889
 7165TIP3    H142910   0.850   3.197  17.437  1.3256  0.9481  0.2161
 7165TIP3    H242911   0.875   3.153  17.294 -0.6245  0.8704 -0.1327
 7166TIP3   OH242912   0.220   1.317  12.546  0.1982  0.3025  0.0824
 7166TIP3    H142913   0.311   1.348  12.543 -0.2335  1.5289 -1.0300
 7166TIP3    H242914   0.207   1.272  12.463 -0.1553 -0.0564  0.3281
 7167TIP3   OH242915   5.481   3.245  11.594  0.1288 -0.3879 -0.2722
 7167TIP3    H142916   5.482   3.315  11.529 -2.2961 -1.3450 -1.4226
 7167TIP3    H242917   5.545   3.181  11.561 -0.2689 -0.3572 -1.1161
 7168TIP3   OH242918   2.455   2.446  16.190  0.2605 -0.3505  0.3566
 7168TIP3    H142919   2.478   2.539  16.201  1.7900 -0.4608 -1.4941
 7168TIP3    H242920   2.539   2.401  16.184 -0.4675 -1.8170  0.6977
 7169TIP3   OH242921   4.171   1.112   0.867  0.1472 -0.2971  0.1971
 7169TIP3    H142922   4.081   1.137   0.890 -0.0056  1.2696 -1.8171
 7169TIP3    H242923   4.226   1.179   0.907  0.6593 -2.0092  2.6249
 7170TIP3   OH242924   4.372   4.272  16.667 -0.0788 -0.1577  0.1270
 7170TIP3    H142925   4.446   4.333  16.665 -1.3251  1.4244 -1.4541
 7170TIP3    H242926   4.386   4.219  16.745  2.4208  0.4412  0.1559
 7171TIP3   OH242927   2.714   5.114   2.042 -0.4891 -0.4566 -0.1901
 7171TIP3    H142928   2.688   5.168   1.967 -2.4551 -1.2619 -0.1441
 7171TIP3    H242929   2.737   5.030   2.003  0.6296 -0.2146 -0.0741
 7172TIP3   OH242930   4.879   4.214   0.194  0.2217  0.3711  0.1024
 7172TIP3    H142931   4.937   4.234   0.268  0.0104  0.4082  0.2624
 7172TIP3    H242932   4.794   4.248   0.222 -0.3972 -1.6171  0.8098
 7173TIP3   OH242933   1.932   6.024  11.032 -0.1484  0.3428 -0.5991
 7173TIP3    H142934   1.988   5.970  11.087  0.1478  1.3518  0.1136
 7173TIP3    H242935   1.983   6.039  10.953  0.6261  1.3024  0.0678
 7174TIP3   OH242936   1.370   5.346   3.090  0.0777 -0.3657 -0.5900
 7174TIP3    H142937   1.415   5.262   3.094 -0.1884 -0.4739  0.2187
 7174TIP3    H242938   1.307   5.336   3.019 -1.3738 -1.5745  0.7961
 7175TIP3   OH242939   6.193   0.502  13.377  0.3351  0.0837 -0.1075
 7175TIP3    H142940   6.269   0.443  13.382  0.3888  0.0967 -0.6948
 7175TIP3    H242941   6.184   0.536  13.466  0.4210 -0.6630  0.1972
 7176TIP3   OH242942   3.977   0.341   2.327  0.0292 -0.0783  0.4292
 7176TIP3    H142943   4.049   0.331   2.390  0.5748 -0.5267 -0.2497
 7176TIP3    H242944   3.959   0.435   2.325 -0.8784 -0.1791  2.2185
 7177TIP3   OH242945   1.027   0.705  16.948  0.2314  0.5566 -0.5240
 7177TIP3    H142946   1.100   0.766  16.960 -0.8311  1.3582  2.7603
 7177TIP3    H242947   1.058   0.623  16.985 -0.3239  0.7820  0.4791
 7178TIP3   OH242948   4.343   1.124  16.463 -0.4410  0.3530  0.2073
 7178TIP3    H142949   4.369   1.161  16.379  1.1203  0.1304  0.5599
 7178TIP3    H242950   4.318   1.200  16.516  0.3269  0.6746  0.1218
 7179TIP3   OH242951   2.283   1.368   6.419  0.1911 -0.0830 -0.0907
 7179TIP3    H142952   2.252   1.425   6.489  0.1835 -0.4198  0.1824
 7179TIP3    H242953   2.338   1.303   6.463 -0.9351 -1.1555 -0.1775
 7180TIP3   OH242954   6.067   3.811   2.595  0.1301  0.1268 -0.3378
 7180TIP3    H142955   5.986   3.849   2.630  0.4711 -0.3935  1.0823
 7180TIP3    H242956   6.038   3.744   2.533 -0.4850  1.4127 -1.5121
 7181TIP3   OH242957   1.153   1.371   3.916  0.1987 -0.1043  0.0752
 7181TIP3    H142958   1.205   1.427   3.974 -0.5190  1.7372 -0.9668
 7181TIP3    H242959   1.070   1.360   3.962  0.7409 -1.3386  0.8089
 7182TIP3   OH242960   0.705   6.381  16.115  0.1281 -0.5048  0.2366
 7182TIP3    H142961   0.774   6.373  16.049 -0.2661 -1.8581 -0.0427
 7182TIP3    H242962   0.654   6.457  16.086  0.6435 -0.3747 -0.3664
 7183TIP3   OH242963   5.389   1.454  15.141  0.3162  0.0622 -0.4695
 7183TIP3    H142964   5.296   1.437  15.129  0.3901 -0.1632 -0.7455
 7183TIP3    H242965   5.428   1.438  15.054  0.7748 -1.0002 -0.0877
 7184TIP3   OH242966   0.758   5.500  13.734 -0.4444  0.2897  0.6368
 7184TIP3    H142967   0.778   5.526  13.644 -1.5065  0.2157  0.3593
 7184TIP3    H242968   0.709   5.418  13.724 -0.7117  0.3710  1.2741
 7185TIP3   OH242969   4.753   3.878   2.802 -0.0052  0.2890  0.1852
 7185TIP3    H142970   4.794   3.870   2.888 -0.5865 -2.2272  0.3071
 7185TIP3    H242971   4.660   3.890   2.822 -0.0940  0.0350 -0.0683
 7186TIP3   OH242972   1.551   0.740   4.907 -0.1055 -0.5087 -0.3501
 7186TIP3    H142973   1.604   0.675   4.954  0.7267  1.6879  1.9793
 7186TIP3    H242974   1.488   0.771   4.972 -2.6765 -1.2129 -2.3465
 7187TIP3   OH242975   2.972   2.394   6.430  0.1852 -0.2970 -1.0131
 7187TIP3    H142976   2.978   2.489   6.418 -1.5687 -0.2494 -1.8506
 7187TIP3    H242977   2.965   2.383   6.525 -0.6452  0.5169 -0.9568
 7188TIP3   OH242978   3.555   1.217  13.708 -0.0858 -0.4492 -0.0406
 7188TIP3    H142979   3.602   1.258  13.635 -0.6146  0.4041  0.0892
 7188TIP3    H242980   3.463   1.219  13.681 -0.0877 -1.9232 -0.2063
 7189TIP3   OH242981   2.778   3.240  14.252 -0.0319  0.4980 -0.6955
 7189TIP3    H142982   2.814   3.316  14.207  0.7813  0.4011 -0.2350
 7189TIP3    H242983   2.835   3.228  14.329  1.0113 -1.6132 -1.6836
 7190TIP3   OH242984   6.236   1.789   3.361 -0.2847  0.5654  0.0092
 7190TIP3    H142985   6.175   1.804   3.433 -0.4521  2.0307 -0.4083
 7190TIP3    H242986   6.319   1.826   3.392 -0.2607  0.8551 -0.3902
 7191TIP3   OH242987   0.406   4.406  15.695  0.3262  0.2273  0.1455
 7191TIP3    H142988   0.336   4.466  15.669  0.7506  0.1331 -1.2880
 7191TIP3    H242989   0.361   4.325  15.718 -0.0217 -0.0969 -1.5382
 7192TIP3   OH242990   0.941   2.434  17.184 -0.3024  0.1563  0.2790
 7192TIP3    H142991   0.891   2.453  17.263  0.7927  0.0901  1.0120
 7192TIP3    H242992   1.023   2.483  17.195 -0.0582  0.0155 -0.7410
 7193TIP3   OH242993   1.500   1.631   5.141  0.1064 -0.0487  0.1758
 7193TIP3    H142994   1.451   1.657   5.062  0.5929 -0.5966 -0.3164
 7193TIP3    H242995   1.591   1.650   5.120  0.2617 -0.3801  0.5311
 7194TIP3   OH242996   3.153   1.324  11.946  0.0319 -0.0203 -0.7087
 7194TIP3    H142997   3.111   1.238  11.957  0.0120  0.2225  1.7846
 7194TIP3    H242998   3.103   1.382  12.004  3.4563  0.3656  2.2076
 7195TIP3   OH242999   4.935   6.071   4.870 -0.0097  0.1376 -0.3100
 7195TIP3    H143000   4.960   5.981   4.850 -0.1289 -0.4635  1.8831
 7195TIP3    H243001   4.841   6.074   4.852 -0.8929 -1.4384  3.0824
 7196TIP3   OH243002   4.725   1.664   0.336  0.2689  0.4722  0.1431
 7196TIP3    H143003   4.714   1.576   0.299  1.3595  0.9351 -1.3360
 7196TIP3    H243004   4.716   1.650   0.431 -0.5193 -1.0726 -0.1161
 7197TIP3   OH243005   5.534   1.625   3.433  0.5617  0.0551  0.5815
 7197TIP3    H143006   5.512   1.551   3.490 -2.1537 -0.0707 -0.4792
 7197TIP3    H243007   5.519   1.702   3.488 -1.8426 -0.0721  0.2207
 7198TIP3   OH243008   4.659   3.340   1.070  0.5450 -0.0388 -0.1316
 7198TIP3    H143009   4.600   3.315   0.999  0.0601  1.2749 -0.2028
 7198TIP3    H243010   4.678   3.432   1.055 -1.8536  1.1272  2.9682
 7199TIP3   OH243011   3.044   4.300   0.386  0.4299  0.0018  0.0608
 7199TIP3    H143012   3.071   4.351   0.462  2.2129  0.2309 -0.6903
 7199TIP3    H243013   2.950   4.317   0.378  0.6771  1.8782  0.7784
 7200TIP3   OH243014   2.681   1.524   3.255 -0.0221 -0.6192  0.3830
 7200TIP3    H143015   2.705   1.565   3.172 -3.3252  1.3956  0.2545
 7200TIP3    H243016   2.712   1.434   3.247  2.3886  0.2957 -1.7562
 7201TIP3   OH243017   3.510   5.357  16.530  0.5393  0.4154 -0.1757
 7201TIP3    H143018   3.567   5.417  16.578  0.1874  3.1047 -2.8363
 7201TIP3    H243019   3.568   5.318  16.464  0.1478 -0.0687 -0.2381
 7202TIP3   OH243020   3.600   3.365   2.698  0.1632  0.0502  0.3606
 7202TIP3    H143021   3.590   3.327   2.611  1.0560  0.7021 -0.0312
 7202TIP3    H243022   3.694   3.372   2.711  0.0457 -0.0684  1.3982
 7203TIP3   OH243023   6.258   4.425   6.087 -0.3266 -0.0114 -0.1728
 7203TIP3    H143024   6.296   4.383   6.010 -0.6342 -0.6369  0.0062
 7203TIP3    H243025   6.326   4.485   6.118  0.2671 -0.6331 -0.2409
 7204TIP3   OH243026   4.240   4.582  11.829  0.2416 -0.0220  0.9033
 7204TIP3    H143027   4.315   4.541  11.872 -0.3605 -0.8352  1.1920
 7204TIP3    H243028   4.278   4.655  11.780  1.1164  0.0919  1.7096
 7205TIP3   OH243029   6.376   6.186   2.219  0.2208  0.1060 -0.0238
 7205TIP3    H143030   6.281   6.183   2.230  0.2466 -0.8284 -0.0014
 7205TIP3    H243031   6.390   6.184   2.125  0.2123  0.6435 -0.0396
 7206TIP3   OH243032   1.487   4.029   1.403  0.0265 -0.3301  0.2528
 7206TIP3    H143033   1.454   4.080   1.329 -1.2421  0.1591  1.1202
 7206TIP3    H243034   1.575   4.004   1.377  0.1921  1.1601 -0.7673
 7207TIP3   OH243035   4.009   1.090  11.297 -0.1911  0.2544  0.2096
 7207TIP3    H143036   4.081   1.117  11.354  0.1496 -0.4324  0.1165
 7207TIP3    H243037   4.044   1.016  11.247 -0.7359  0.3603 -0.3417
 7208TIP3   OH243038   5.206   2.817  15.755 -0.0371  0.3081 -0.2246
 7208TIP3    H143039   5.234   2.726  15.743  2.5564  0.8348  1.0413
 7208TIP3    H243040   5.115   2.818  15.725  1.1436 -1.6466 -4.6788
 7209TIP3   OH243041   0.607   3.510   0.284 -0.0092  0.4228 -0.1745
 7209TIP3    H143042   0.628   3.545   0.370 -1.2907 -0.2141  0.4227
 7209TIP3    H243043   0.656   3.565   0.223  1.5823  0.3644  0.9907
 7210TIP3   OH243044   6.417   6.310  11.358 -0.2013 -0.4672  0.1412
 7210TIP3    H143045   6.409   6.395  11.400  0.2841  0.6703 -1.9209
 7210TIP3    H243046   6.375   6.322  11.272 -0.5662 -2.4546 -0.0063
 7211TIP3   OH243047   1.472   2.579   5.715 -0.1967  0.1456  0.3569
 7211TIP3    H143048   1.386   2.538   5.709 -1.5904  2.7902  0.5381
 7211TIP3    H243049   1.468   2.629   5.797  2.0483 -0.6788  1.0435
 7212TIP3   OH243050   2.406   1.957   3.208  0.4435  0.4774  0.2743
 7212TIP3    H143051   2.393   1.862   3.217  0.8619  0.2869 -0.9136
 7212TIP3    H243052   2.470   1.978   3.276  0.4362 -0.1228  0.4794
 7213TIP3   OH243053   1.571   3.021  11.367 -0.2842 -0.1596  0.5238
 7213TIP3    H143054   1.512   3.042  11.294  0.3947  1.6735  0.4377
 7213TIP3    H243055   1.653   2.997  11.326 -0.9675 -3.0370  0.6351
 7214TIP3   OH243056   4.941   0.882   5.487  0.6993  0.1593 -0.0378
 7214TIP3    H143057   4.907   0.930   5.412  1.0709  0.7944  0.1910
 7214TIP3    H243058   5.031   0.861   5.464  0.8691  0.5066  0.2899
 7215TIP3   OH243059   3.498   5.596  11.684 -0.4155  0.5794  0.6853
 7215TIP3    H143060   3.468   5.558  11.766  0.0650 -0.8616  0.2215
 7215TIP3    H243061   3.465   5.686  11.686 -0.9061  0.3988  2.1797
 7216TIP3   OH243062   4.643   3.151   3.624  0.0418  0.1556 -0.0278
 7216TIP3    H143063   4.590   3.115   3.553 -0.3841  0.9068 -0.1078
 7216TIP3    H243064   4.579   3.180   3.689  0.3300  1.2124 -0.1919
 7217TIP3   OH243065   0.040   0.951  11.507 -0.0234  0.0613  0.4710
 7217TIP3    H143066   0.135   0.965  11.508  0.0613  0.1671 -2.0781
 7217TIP3    H243067   0.029   0.856  11.512  0.6776 -0.6172 -4.9277
 7218TIP3   OH243068   6.270   6.155   3.214 -0.3698  0.4663  0.0803
 7218TIP3    H143069   6.234   6.111   3.292 -0.8007  0.3794 -0.1662
 7218TIP3    H243070   6.339   6.096   3.184 -1.1211 -0.1859 -0.4015
 7219TIP3   OH243071   1.315   1.589  16.745  0.2593  0.0647 -0.3960
 7219TIP3    H143072   1.386   1.566  16.685 -1.0229 -0.9426 -1.6011
 7219TIP3    H243073   1.235   1.572  16.695 -0.8862 -1.4821  1.8101
 7220TIP3   OH243074   0.760   2.519  16.298 -0.7556  0.6892  0.1408
 7220TIP3    H143075   0.845   2.481  16.275  0.2576  1.6524  2.1064
 7220TIP3    H243076   0.778   2.576  16.372 -3.1914  0.7179  0.7925
 7221TIP3   OH243077   4.820   5.289  14.956  0.4177  0.2413  0.3216
 7221TIP3    H143078   4.829   5.337  15.038  1.5120 -0.9002  0.8790
 7221TIP3    H243079   4.817   5.197  14.981  2.7781 -0.2637 -1.0288
 7222TIP3   OH243080   3.200   1.743  14.162 -0.4910 -0.5806  0.0561
 7222TIP3    H143081   3.126   1.703  14.207 -0.9874  1.4649  1.1994
 7222TIP3    H243082   3.160   1.793  14.091  0.2824 -3.7454 -2.8348
 7223TIP3   OH243083   4.745   6.317   3.444  0.3574  0.4813 -0.6371
 7223TIP3    H143084   4.758   6.222   3.447  0.4213  0.5074  0.2342
 7223TIP3    H243085   4.833   6.354   3.453  0.2262  0.6253  0.1051
 7224TIP3   OH243086   0.205   5.714  17.084  0.6461 -0.0432 -0.4176
 7224TIP3    H143087   0.114   5.700  17.059 -0.0729  3.7277 -0.4959
 7224TIP3    H243088   0.255   5.660  17.024 -1.4492 -0.0570 -2.2825
 7225TIP3   OH243089   1.373   2.227   3.896 -0.3755  0.1550 -0.4890
 7225TIP3    H143090   1.338   2.193   3.814 -0.1293 -1.2323 -0.0508
 7225TIP3    H243091   1.466   2.205   3.893 -0.4992 -0.5775  0.4588
 7226TIP3   OH243092   0.697   6.658   1.462 -0.2356  0.0192  0.1093
 7226TIP3    H143093   0.607   6.661   1.428  0.0037  1.3221 -0.4951
 7226TIP3    H243094   0.715   6.565   1.474 -0.5474 -0.5407 -2.8672
 7227TIP3   OH243095   4.083   2.041   3.715 -0.2419  0.2915 -0.0474
 7227TIP3    H143096   4.020   2.094   3.666  0.2580  1.0193  0.0663
 7227TIP3    H243097   4.167   2.084   3.699  0.0624 -0.0135  0.6864
 7228TIP3   OH243098   4.949   4.659   2.673  0.3175  0.1407  0.3797
 7228TIP3    H143099   4.982   4.575   2.705  0.6295 -0.2066 -0.8203
 7228TIP3    H243100   5.020   4.695   2.620 -0.6465  0.0714 -1.0101
 7229TIP3   OH243101   3.899   6.529   6.625 -0.3589  0.1408 -0.2997
 7229TIP3    H143102   3.989   6.526   6.593 -0.7426  0.3900 -1.4463
 7229TIP3    H243103   3.845   6.516   6.547 -1.3363  1.1938  0.1756
 7230TIP3   OH243104   3.564   0.877  15.613  0.4896  0.0659  0.6008
 7230TIP3    H143105   3.641   0.898  15.666  0.9374  0.1709 -0.0759
 7230TIP3    H243106   3.574   0.785  15.591 -0.0124 -0.1410  1.1962
 7231TIP3   OH243107   3.414   4.583  11.647  0.2384 -0.2859  0.2098
 7231TIP3    H143108   3.331   4.585  11.599 -1.4597 -1.2697  2.8759
 7231TIP3    H243109   3.416   4.666  11.695  2.1971  0.9494 -1.8182
 7232TIP3   OH243110   3.778   5.508  17.028  0.3790  0.1464  0.3741
 7232TIP3    H143111   3.714   5.549  16.970  1.3549  0.7247 -0.3220
 7232TIP3    H243112   3.859   5.556  17.013  0.7023  0.2083  2.1321
 7233TIP3   OH243113   5.653   2.541   3.501  0.4232 -0.0431  0.1255
 7233TIP3    H143114   5.616   2.534   3.413  0.6984 -0.8727  0.0646
 7233TIP3    H243115   5.711   2.617   3.497  1.0131 -0.5179 -0.6313
 7234TIP3   OH243116   1.463   2.741  12.590 -0.0933 -0.0881 -0.2060
 7234TIP3    H143117   1.451   2.731  12.685 -1.0860  0.2266 -0.2801
 7234TIP3    H243118   1.475   2.836  12.578  0.0059 -0.1251 -0.3940
 7235TIP3   OH243119   2.208   3.143  12.280  0.6428 -0.2148 -0.1650
 7235TIP3    H143120   2.228   3.056  12.245 -0.5021 -0.4441 -0.2827
 7235TIP3    H243121   2.155   3.127  12.357  0.6508  0.3764 -0.0301
 7236TIP3   OH243122   4.073   3.491  13.862 -0.6957  0.3136 -0.3301
 7236TIP3    H143123   4.090   3.517  13.953 -2.2249  0.9750 -0.1986
 7236TIP3    H243124   4.097   3.568  13.811 -2.1678  0.8676 -0.2347
 7237TIP3   OH243125   4.565   0.950  15.879 -0.0890  0.2111 -0.0821
 7237TIP3    H143126   4.559   0.858  15.904  0.0123  0.8188  2.3992
 7237TIP3    H243127   4.659   0.967  15.873 -0.0926  0.3498  0.2559
 7238TIP3   OH243128   2.987   1.469   2.582  0.1778 -0.0146  0.1899
 7238TIP3    H143129   3.062   1.504   2.629 -0.2096  1.7410 -0.4232
 7238TIP3    H243130   3.016   1.462   2.492 -0.3723  0.6913 -0.0548
 7239TIP3   OH243131   1.152   1.781  17.127  0.2226 -0.2826  0.0174
 7239TIP3    H143132   1.132   1.814  17.039  2.2249  1.5813  0.1735
 7239TIP3    H243133   1.211   1.706  17.112  1.7643  0.9351 -0.2727
 7240TIP3   OH243134   5.809   5.922   4.281 -0.5310 -0.7539  0.2287
 7240TIP3    H143135   5.836   5.891   4.367 -1.9500 -1.9065  0.2998
 7240TIP3    H243136   5.715   5.902   4.277 -0.6356 -0.0574 -1.2980
 7241TIP3   OH243137   3.391   2.597  15.570 -0.1717  0.1001 -0.0161
 7241TIP3    H143138   3.418   2.547  15.647 -1.0810  0.0219  0.2603
 7241TIP3    H243139   3.466   2.652  15.549  0.0825  0.1136  0.9169
 7242TIP3   OH243140   2.204   6.519   0.191  0.5769 -0.2387 -0.4752
 7242TIP3    H143141   2.216   6.513   0.096 -0.8711  0.2937 -0.7123
 7242TIP3    H243142   2.202   6.613   0.209 -0.7249 -0.3077 -0.1510
 7243TIP3   OH243143   1.010   5.317  16.441 -0.1909 -0.1548 -0.0313
 7243TIP3    H143144   1.067   5.323  16.364 -1.3724 -1.0116 -1.0194
 7243TIP3    H243145   0.921   5.309  16.404 -0.9419  0.8392  1.4508
 7244TIP3   OH243146   4.538   2.921   4.096 -0.6062 -0.5269  0.1778
 7244TIP3    H143147   4.532   2.904   4.190  0.7939 -0.7764  0.2416
 7244TIP3    H243148   4.563   2.836   4.059 -0.9047 -0.3636 -0.3943
 7245TIP3   OH243149   5.277   6.004  15.764  0.2141  0.0911 -0.0378
 7245TIP3    H143150   5.185   6.031  15.766  0.5011  1.3788 -1.8525
 7245TIP3    H243151   5.326   6.086  15.772  1.2065 -0.5357  0.4810
 7246TIP3   OH243152   0.912   5.388  16.137 -0.2274 -0.2277 -0.3606
 7246TIP3    H143153   0.975   5.387  16.065  1.1538 -0.2162  0.8036
 7246TIP3    H243154   0.827   5.404  16.095  0.9077  3.0919 -1.7142
 7247TIP3   OH243155   1.291   4.469   2.502  0.3093  0.2207 -0.2175
 7247TIP3    H143156   1.196   4.463   2.512  0.4379 -1.3897  0.1888
 7247TIP3    H243157   1.325   4.391   2.544  1.6877 -0.2565 -2.0741
 7248TIP3   OH243158   0.468   0.143   6.386  0.7700 -0.0224  0.3434
 7248TIP3    H143159   0.501   0.084   6.319 -0.6263 -1.1186  0.5774
 7248TIP3    H243160   0.420   0.211   6.338  0.8285 -0.1063  0.1701
 7249TIP3   OH243161   4.893   3.261  16.831  0.2584  0.5788 -1.0521
 7249TIP3    H143162   4.869   3.242  16.741 -1.6421  1.8005 -0.8558
 7249TIP3    H243163   4.979   3.219  16.842  0.7685  0.8073 -3.5328
 7250TIP3   OH243164   5.270   2.478   3.198  0.0269  0.0510  0.3079
 7250TIP3    H143165   5.274   2.553   3.138 -0.1095  1.1050  1.5680
 7250TIP3    H243166   5.213   2.416   3.154  1.6151 -0.1405 -1.6269
 7251TIP3   OH243167   5.614   2.498  15.745  0.3945  0.5752 -0.0654
 7251TIP3    H143168   5.687   2.495  15.806 -0.0094  0.0673  0.4058
 7251TIP3    H243169   5.627   2.423  15.687  1.3199  1.6166 -1.2641
 7252TIP3   OH243170   2.269   6.473  16.852  1.0926 -0.0661 -0.0711
 7252TIP3    H143171   2.226   6.430  16.778 -0.5769  1.2771  0.0443
 7252TIP3    H243172   2.304   6.401  16.904 -0.2047 -1.2119 -0.6988
 7253TIP3   OH243173   4.248   4.376   3.006  0.0887 -0.3433 -0.2562
 7253TIP3    H143174   4.214   4.466   3.006  0.5025 -0.1051 -2.5137
 7253TIP3    H243175   4.290   4.366   3.091  0.4280  1.7897 -0.0986
 7254TIP3   OH243176   1.154   4.959   3.402 -0.1064 -0.8034  0.1277
 7254TIP3    H143177   1.100   4.956   3.482  0.8950 -1.6214  0.7879
 7254TIP3    H243178   1.102   5.012   3.341 -1.1862 -0.6987  1.0958
 7255TIP3   OH243179   5.150   1.265   5.794 -0.7869  0.2636 -1.0970
 7255TIP3    H143180   5.101   1.194   5.754 -0.7441 -0.7001  0.4746
 7255TIP3    H243181   5.144   1.249   5.888  1.4984  0.7895 -0.7817
 7256TIP3   OH243182   5.721   2.855  16.221  0.3030 -0.0165 -0.2141
 7256TIP3    H143183   5.798   2.837  16.168  0.9129  0.9306  0.3301
 7256TIP3    H243184   5.652   2.800  16.183  1.2547 -0.9359 -0.6575
 7257TIP3   OH243185   4.145   2.535  10.571 -0.2002 -0.5239  0.5363
 7257TIP3    H143186   4.235   2.523  10.602  0.6566 -0.0292 -1.5579
 7257TIP3    H243187   4.139   2.628  10.550 -0.5387 -0.8996 -1.1596
 7258TIP3   OH243188   4.519   6.396   5.446  0.3982 -0.1759 -0.9851
 7258TIP3    H143189   4.538   6.447   5.525 -2.5771 -0.7476  0.2550
 7258TIP3    H243190   4.527   6.305   5.474 -1.3186 -0.3902 -1.0660
 7259TIP3   OH243191   4.621   4.959   1.829 -0.5628  0.2158  0.1676
 7259TIP3    H143192   4.620   4.948   1.734 -0.2866 -1.6842  0.3450
 7259TIP3    H243193   4.570   4.885   1.862 -2.4777  1.9910  1.4425
 7260TIP3   OH243194   4.883   0.033  12.170 -0.2445 -0.2801  0.0133
 7260TIP3    H143195   4.804   0.014  12.220  0.1559 -2.0681  0.0491
 7260TIP3    H243196   4.931   0.097  12.222 -0.6515 -0.8208  1.0821
 7261TIP3   OH243197   0.470   3.145  14.458  0.2605  1.0565 -0.3681
 7261TIP3    H143198   0.546   3.096  14.489 -1.0615 -0.3616  0.8134
 7261TIP3    H243199   0.456   3.211  14.526  0.3892  1.2745 -0.5521
 7262TIP3   OH243200   0.424   0.110  12.805  0.3394 -0.3345 -0.0832
 7262TIP3    H143201   0.374   0.171  12.859  0.8879 -0.2837  0.3776
 7262TIP3    H243202   0.515   0.123  12.832  0.5523 -0.7455 -0.5907
 7263TIP3   OH243203   1.327   1.684  12.384 -0.1719  0.1858  0.5819
 7263TIP3    H143204   1.305   1.703  12.475  1.7726  1.7745  0.7859
 7263TIP3    H243205   1.279   1.750  12.334  0.7831  0.9855  0.6938
 7264TIP3   OH243206   0.826   2.426   4.549  0.1672 -1.0765 -0.6394
 7264TIP3    H143207   0.921   2.416   4.556  0.2087 -0.6129 -0.5253
 7264TIP3    H243208   0.791   2.379   4.625  0.4752  1.4867  1.2338
 7265TIP3   OH243209   2.481   0.309  13.296  0.3487  0.6601  0.0748
 7265TIP3    H143210   2.498   0.221  13.330 -0.0523  1.1062  1.5189
 7265TIP3    H243211   2.502   0.304  13.203  0.8827 -0.8071  0.2536
 7266TIP3   OH243212   5.678   6.679  13.185 -0.3485 -0.0695 -0.4215
 7266TIP3    H143213   5.679   6.584  13.191  0.3427 -0.0118  0.7692
 7266TIP3    H243214   5.621   6.707  13.256 -1.3296  0.3909 -1.3620
 7267TIP3   OH243215   3.526   1.772  11.401  0.4432  0.4018 -0.1989
 7267TIP3    H143216   3.593   1.747  11.465  0.3361 -1.8825 -0.8893
 7267TIP3    H243217   3.568   1.760  11.316 -0.4596  0.1097 -0.6125
 7268TIP3   OH243218   1.876   4.374   1.802 -0.3277 -0.4875  0.2931
 7268TIP3    H143219   1.940   4.444   1.815 -0.1698 -0.3506 -1.1094
 7268TIP3    H243220   1.801   4.400   1.856  0.9987 -0.9931  2.5258
 7269TIP3   OH243221   1.944   5.485   5.921  0.5435 -0.1013 -0.5364
 7269TIP3    H143222   2.038   5.484   5.937  0.5175 -1.0508 -0.3894
 7269TIP3    H243223   1.911   5.404   5.961 -0.2749  0.0254 -0.9202
 7270TIP3   OH243224   0.661   0.916   3.990  0.5210 -0.1258 -0.1316
 7270TIP3    H143225   0.648   0.821   3.995  1.6586 -0.3438 -0.9732
 7270TIP3    H243226   0.574   0.950   3.967 -0.4426 -0.7104  2.3165
 7271TIP3   OH243227   1.356   1.863  15.323 -0.1439  0.2111 -0.6438
 7271TIP3    H143228   1.387   1.773  15.331 -0.8209  0.1033  1.5982
 7271TIP3    H243229   1.309   1.879  15.405  1.8072  3.3373  0.0153
 7272TIP3   OH243230   3.034   0.206   5.766  0.1001  0.2363 -0.1061
 7272TIP3    H143231   2.963   0.268   5.748 -1.3078 -1.2069  0.2985
 7272TIP3    H243232   3.101   0.259   5.808 -1.2471  1.4355  0.6431
 7273TIP3   OH243233   5.954   1.590  15.262  0.1900  0.0953 -0.2363
 7273TIP3    H143234   5.887   1.524  15.244  0.7732 -0.7324  0.5299
 7273TIP3    H243235   5.989   1.614  15.177  1.3915 -2.1155 -0.4417
 7274TIP3   OH243236   0.823   6.651   5.507  0.3629 -0.3646 -0.4465
 7274TIP3    H143237   0.831   6.717   5.439 -0.9534 -0.2722 -0.5464
 7274TIP3    H243238   0.742   6.604   5.486 -1.6341  1.4527  2.4899
 7275TIP3   OH243239   0.555   3.426   3.582 -0.3299 -0.6695 -0.2010
 7275TIP3    H143240   0.550   3.453   3.490 -0.4593 -0.5092 -0.1476
 7275TIP3    H243241   0.479   3.466   3.623  0.0414 -0.2673  0.1008
 7276TIP3   OH243242   0.884   1.368  16.719 -0.1478  0.0769 -0.3582
 7276TIP3    H143243   0.891   1.281  16.680  0.4489 -0.5585  1.1044
 7276TIP3    H243244   0.807   1.362  16.776 -0.5080  0.7206 -0.7725
 7277TIP3   OH243245   1.632   1.315   0.124  0.1311  0.1649 -0.3731
 7277TIP3    H143246   1.720   1.281   0.142 -0.5747 -1.8657 -0.3984
 7277TIP3    H243247   1.620   1.387   0.186  2.1968  1.2297 -1.1185
 7278TIP3   OH243248   5.865   3.807   3.301  0.5277 -0.1157  0.2121
 7278TIP3    H143249   5.853   3.768   3.387 -3.1459 -1.7942 -0.8086
 7278TIP3    H243250   5.917   3.743   3.252  1.0015 -0.0613  0.6425
 7279TIP3   OH243251   0.299   5.537  13.283  0.3002  0.3328 -0.0857
 7279TIP3    H143252   0.258   5.621  13.304  1.2132  1.0859 -1.1887
 7279TIP3    H243253   0.228   5.486  13.241 -0.0897  0.7839  0.0202
 7280TIP3   OH243254   5.593   3.426  17.292  0.1989 -0.2134  0.3864
 7280TIP3    H143255   5.656   3.354  17.282 -1.6420 -2.0541  1.2582
 7280TIP3    H243256   5.625   3.493  17.231  2.3308 -1.4979 -0.0565
 7281TIP3   OH243257   1.903   2.069  13.085  0.0483 -0.3948 -0.3457
 7281TIP3    H143258   1.810   2.071  13.109  0.6151 -1.3260  2.2987
 7281TIP3    H243259   1.917   1.982  13.050  0.0222 -0.4287 -0.2718
 7282TIP3   OH243260   3.074   5.368  14.765 -0.1742 -0.4352 -0.1890
 7282TIP3    H143261   3.135   5.322  14.823 -1.3531 -0.5398  1.0217
 7282TIP3    H243262   3.029   5.431  14.822  0.8917  1.8005 -1.6478
 7283TIP3   OH243263   2.261   6.020   3.253 -0.3422  0.1116  0.1401
 7283TIP3    H143264   2.220   5.945   3.297 -0.1390 -0.4014 -0.5310
 7283TIP3    H243265   2.273   6.084   3.323 -0.2271 -0.6071  0.8034
 7284TIP3   OH243266   1.295   6.398   2.751  0.3910 -0.0565  0.0663
 7284TIP3    H143267   1.316   6.390   2.844 -2.4077 -0.5093  0.7591
 7284TIP3    H243268   1.301   6.491   2.733 -0.5807  0.2425  1.1591
 7285TIP3   OH243269   1.521   0.911   1.537 -0.2401 -0.3593  0.5600
 7285TIP3    H143270   1.608   0.873   1.551  0.1553  0.0116 -0.7425
 7285TIP3    H243271   1.496   0.882   1.449 -0.6709  0.9694  0.2258
 7286TIP3   OH243272   6.174   2.583   2.255 -0.3546  0.4716 -0.3849
 7286TIP3    H143273   6.248   2.565   2.313  0.7683 -1.0267 -2.1970
 7286TIP3    H243274   6.126   2.652   2.300  1.8647  1.1711  1.1033
 7287TIP3   OH243275   2.198   5.323  12.005  0.1691  0.0869  0.0274
 7287TIP3    H143276   2.281   5.319  12.052  0.0395 -0.0519  0.2494
 7287TIP3    H243277   2.186   5.235  11.969  1.6325  0.8886 -2.6861
 7288TIP3   OH243278   1.148   5.840   0.331  0.3161 -0.4747 -0.4381
 7288TIP3    H143279   1.162   5.804   0.244 -0.5648  0.3240 -0.9270
 7288TIP3    H243280   1.092   5.916   0.317 -0.0027 -0.4502  0.8415
 7289TIP3   OH243281   5.070   5.786  17.132 -0.0806  0.6715 -0.3764
 7289TIP3    H143282   5.102   5.776  17.222 -1.0591  2.9246  0.2926
 7289TIP3    H243283   5.131   5.848  17.092  0.9049 -1.0194 -1.6323
 7290TIP3   OH243284   0.228   4.043  13.624  0.2291 -0.7395  0.3034
 7290TIP3    H143285   0.221   4.020  13.531 -2.7954 -0.9087  0.4692
 7290TIP3    H243286   0.280   4.123  13.625  1.0154 -1.1716 -1.4356
 7291TIP3   OH243287   5.443   3.717   4.213 -0.4858 -0.5185  0.5920
 7291TIP3    H143288   5.441   3.742   4.305  1.8799 -0.2357  0.6307
 7291TIP3    H243289   5.514   3.769   4.176 -0.2827 -1.8696 -1.0191
 7292TIP3   OH243290   1.555   1.247  13.470 -0.6020 -0.6395 -0.0758
 7292TIP3    H143291   1.622   1.188  13.436 -0.2913 -0.4988  0.2867
 7292TIP3    H243292   1.580   1.333  13.438 -0.8161 -0.6397 -0.2456
 7293TIP3   OH243293   1.401   2.037  10.664  0.0972 -0.4100  0.3751
 7293TIP3    H143294   1.313   2.032  10.701 -0.8270  0.4889 -1.5322
 7293TIP3    H243295   1.387   2.060  10.572  2.2961 -1.1631 -0.2251
 7294TIP3   OH243296   6.388   1.077  11.318 -0.5731  1.2196 -0.0428
 7294TIP3    H143297   6.447   1.050  11.248 -2.2382  1.0235 -1.4208
 7294TIP3    H243298   6.413   1.168  11.336  1.3531  0.5925  0.7330
 7295TIP3   OH243299   0.034   3.403   1.770  0.2489 -0.0436  0.3808
 7295TIP3    H143300  -0.001   3.332   1.824 -2.4130 -0.6444 -1.8797
 7295TIP3    H243301   0.051   3.474   1.831 -0.4588 -1.4294  2.2850
 7296TIP3   OH243302   6.543   0.095   4.298 -0.6114  0.4254 -0.3659
 7296TIP3    H143303   6.588   0.010   4.299 -2.6776 -0.7490  0.0991
 7296TIP3    H243304   6.486   0.090   4.220 -1.1504  1.1554 -0.0271
 7297TIP3   OH243305   1.474   1.916  16.021 -0.5163  0.4871 -0.7052
 7297TIP3    H143306   1.480   1.957  15.935  2.2015  0.6065 -0.5548
 7297TIP3    H243307   1.444   1.986  16.079  0.4165  1.2459 -1.1043
 7298TIP3   OH243308   0.646   3.053  15.361 -0.0418  0.1924  0.2013
 7298TIP3    H143309   0.660   3.142  15.393  0.6448 -0.1646  0.9449
 7298TIP3    H243310   0.551   3.046  15.350 -0.2272  0.6068  1.3794
 7299TIP3   OH243311   2.030   4.344  14.810  0.3759  0.4219  0.0023
 7299TIP3    H143312   2.054   4.348  14.903  0.7216  0.8127 -0.0986
 7299TIP3    H243313   1.973   4.420  14.797 -1.1528 -0.6415  0.2945
 7300TIP3   OH243314   1.729   2.545   1.815  0.2489 -0.0790 -0.1201
 7300TIP3    H143315   1.766   2.479   1.873  1.3831  0.5831 -0.0466
 7300TIP3    H243316   1.662   2.589   1.867 -1.5600 -2.0895 -0.6438
 7301TIP3   OH243317   3.147   5.551  15.237 -0.2213 -0.4171 -0.1051
 7301TIP3    H143318   3.094   5.541  15.316  0.8828  0.8824  0.8635
 7301TIP3    H243319   3.167   5.645  15.233 -0.8722 -0.3102 -2.3730
 7302TIP3   OH243320   6.123   2.337  13.482 -0.3689  0.0074 -0.2301
 7302TIP3    H143321   6.208   2.352  13.442 -0.5147  1.6371  0.0045
 7302TIP3    H243322   6.061   2.346  13.409 -0.3796 -0.9142 -0.3505
 7303TIP3   OH243323   2.828   1.222   4.968 -0.6031 -0.6992  0.4809
 7303TIP3    H143324   2.818   1.204   5.061  1.9693  0.8993  1.1741
 7303TIP3    H243325   2.873   1.307   4.965 -1.1720 -0.4089 -2.2392
 7304TIP3   OH243326   0.597   4.768   0.992  0.3392  0.0031 -0.4669
 7304TIP3    H143327   0.684   4.727   0.992  0.8542  1.0634  0.7463
 7304TIP3    H243328   0.613   4.859   1.015 -1.2182 -0.0679  1.0487
 7305TIP3   OH243329   3.994   3.426  11.447  0.6050  0.8334  0.1666
 7305TIP3    H143330   4.012   3.430  11.541  1.5735  1.0263 -0.0148
 7305TIP3    H243331   4.040   3.502  11.412  1.5967 -0.1471 -0.6773
 7306TIP3   OH243332   1.851   4.347   4.644  0.6095 -0.3185  0.2392
 7306TIP3    H143333   1.764   4.355   4.604  1.1306 -1.3118 -1.2157
 7306TIP3    H243334   1.848   4.263   4.691  0.7766 -0.3658  0.1668
 7307TIP3   OH243335   4.719   0.007  12.717 -0.0204  0.1996  0.1570
 7307TIP3    H143336   4.639   0.038  12.674 -0.1730 -0.1035  0.2133
 7307TIP3    H243337   4.697   0.009  12.811  0.3045  0.8452  0.2218
 7308TIP3   OH243338   1.257   6.052   0.812  0.7324 -0.2357 -0.1367
 7308TIP3    H143339   1.295   6.132   0.850 -1.5489  1.2203 -0.7051
 7308TIP3    H243340   1.201   6.018   0.881 -0.2403  0.0968 -0.7462
 7309TIP3   OH243341   4.801   5.051  16.605 -0.3672  0.3820 -0.0881
 7309TIP3    H143342   4.841   5.119  16.659  1.1687 -1.0658  0.6979
 7309TIP3    H243343   4.713   5.083  16.588 -0.0032  2.1313  1.0258
 7310TIP3   OH243344   4.805   0.472   1.033 -0.3671  0.1847  0.2544
 7310TIP3    H143345   4.760   0.392   1.005 -2.2841  1.2757  0.0146
 7310TIP3    H243346   4.765   0.541   0.980  1.1283  1.3432  0.5721
 7311TIP3   OH243347   5.498   3.003   1.540 -0.2044 -0.6105 -0.2144
 7311TIP3    H143348   5.433   3.023   1.608  1.0160 -0.1100  0.8505
 7311TIP3    H243349   5.447   2.996   1.460 -1.5891 -0.3411  0.6003
 7312TIP3   OH243350   0.310   3.724   4.800 -0.4497  0.0738 -0.1391
 7312TIP3    H143351   0.260   3.700   4.722 -0.2074  1.1206 -0.6337
 7312TIP3    H243352   0.279   3.664   4.868  0.5499 -2.0320 -1.4313
 7313TIP3   OH243353   0.392   2.598  15.432 -0.3933  0.1214 -0.3576
 7313TIP3    H143354   0.365   2.690  15.424 -0.7994  0.0316 -0.0422
 7313TIP3    H243355   0.383   2.562  15.344 -2.5193 -0.2415 -0.0442
 7314TIP3   OH243356   5.298   3.965   0.345  0.6925  0.0976  0.2100
 7314TIP3    H143357   5.363   3.954   0.275 -0.7358 -1.1310 -1.0091
 7314TIP3    H243358   5.289   3.878   0.383  1.2075  0.6907  1.7463
 7315TIP3   OH243359   4.865   0.291   4.208 -0.5851  0.7998 -0.6948
 7315TIP3    H143360   4.945   0.282   4.260  0.0103  1.4540 -1.4636
 7315TIP3    H243361   4.845   0.202   4.180  0.4026  0.7276 -1.2458
 7316TIP3   OH243362   0.488   4.360   1.162 -0.5858  0.3006  0.2533
 7316TIP3    H143363   0.495   4.265   1.173  0.6707  0.3229 -0.2344
 7316TIP3    H243364   0.479   4.372   1.068  3.8888  0.8229 -0.3411
 7317TIP3   OH243365   2.237   2.020  14.707  0.2937  0.0517  0.4140
 7317TIP3    H143366   2.147   2.049  14.722  0.7920  1.2812  1.1527
 7317TIP3    H243367   2.273   2.006  14.794  0.9677  0.0440  0.1425
 7318TIP3   OH243368   0.795   0.008  16.559 -0.4158 -0.1304  0.0434
 7318TIP3    H143369   0.740   0.075  16.599 -3.0281 -1.5391 -0.9581
 7318TIP3    H243370   0.827   0.049  16.478  1.6481  1.3177  1.4592
 7319TIP3   OH243371   3.323   0.216  12.353  0.4868  0.4279  0.1431
 7319TIP3    H143372   3.237   0.189  12.384  1.9509 -1.2284  3.2589
 7319TIP3    H243373   3.329   0.309  12.374 -0.4107  0.4904  0.1367
 7320TIP3   OH243374   1.768   5.781   6.535  0.5277 -0.9377  0.4437
 7320TIP3    H143375   1.813   5.864   6.550 -1.2679  0.5078 -1.5024
 7320TIP3    H243376   1.801   5.751   6.450  0.4267 -1.6777  0.6633
 7321TIP3   OH243377   2.277   6.298   3.764  0.1536 -0.3494  0.0930
 7321TIP3    H143378   2.275   6.382   3.809  1.0326  0.4525 -1.3047
 7321TIP3    H243379   2.356   6.254   3.796  0.3139 -0.1469 -0.0247
 7322TIP3   OH243380   5.179   6.398   6.256  0.3455  0.0372  0.2974
 7322TIP3    H143381   5.131   6.315   6.258 -0.4650  0.4873  2.5435
 7322TIP3    H243382   5.162   6.438   6.341  2.7970  1.3554  0.2687
 7323TIP3   OH243383   4.403   3.621  11.479  0.3906 -0.2420 -0.5894
 7323TIP3    H143384   4.412   3.709  11.516  1.0550 -0.0065 -1.2834
 7323TIP3    H243385   4.467   3.618  11.407 -1.5278 -0.3304 -2.3906
 7324TIP3   OH243386   3.164   1.071   3.828  0.4032 -0.9584 -0.5698
 7324TIP3    H143387   3.197   1.029   3.908 -0.5863 -1.4191 -0.3904
 7324TIP3    H243388   3.150   1.162   3.853  1.3195 -0.8025 -0.5907
 7325TIP3   OH243389   3.956   6.229   5.340  0.3122 -0.1997  0.1966
 7325TIP3    H143390   3.969   6.196   5.251 -1.9601  1.6424 -0.9318
 7325TIP3    H243391   3.972   6.323   5.333  0.8758 -0.1279  1.9590
 7326TIP3   OH243392   1.476   4.464  11.330  0.2468  0.4454  0.0490
 7326TIP3    H143393   1.495   4.415  11.250  0.8440 -0.1125  0.5296
 7326TIP3    H243394   1.439   4.400  11.390 -0.1375  0.8505  0.2477
 7327TIP3   OH243395   0.605   2.339   5.520 -0.7441  0.2462 -0.3837
 7327TIP3    H143396   0.590   2.424   5.562 -1.1667  0.5145 -1.0601
 7327TIP3    H243397   0.637   2.361   5.433  3.3764 -0.2670  0.8033
 7328TIP3   OH243398   5.306   4.642  11.174  0.2032 -0.2559  0.4724
 7328TIP3    H143399   5.230   4.652  11.232  0.8531 -0.2527  1.3399
 7328TIP3    H243400   5.308   4.549  11.153 -0.7781 -0.0641 -0.6034
 7329TIP3   OH243401   2.360   4.047  13.996  0.1924 -0.2950  0.4875
 7329TIP3    H143402   2.438   4.016  13.951 -0.4843  0.4055 -1.2935
 7329TIP3    H243403   2.389   4.122  14.048  0.5461  0.7029 -1.0850
 7330TIP3   OH243404   0.963   5.932   3.496  0.6019 -0.0601 -0.5439
 7330TIP3    H143405   0.985   5.845   3.462  1.4445 -0.0073 -0.1470
 7330TIP3    H243406   0.991   5.929   3.587 -1.3541 -0.0999  0.1000
 7331TIP3   OH243407   3.360   5.976  15.899 -0.0605 -0.4480  0.3300
 7331TIP3    H143408   3.448   5.969  15.935  0.1287  0.9604  0.2124
 7331TIP3    H243409   3.321   6.050  15.946 -1.7125 -1.9076  1.4205
 7332TIP3   OH243410   4.373   4.370  13.196 -0.0011 -0.0569 -0.0748
 7332TIP3    H143411   4.380   4.311  13.122  1.5013 -0.7266  0.5525
 7332TIP3    H243412   4.354   4.313  13.271  0.0933  0.4047  0.3076
 7333TIP3   OH243413   3.107   0.224   1.115  0.1068  0.2396 -0.5386
 7333TIP3    H143414   3.136   0.287   1.180 -0.0517  0.4944 -0.7120
 7333TIP3    H243415   3.150   0.142   1.139  0.5246  0.4791 -0.4736
 7334TIP3   OH243416   1.103   0.868   4.942 -0.0318  0.4386 -0.0215
 7334TIP3    H143417   1.125   0.918   5.021  2.6045 -3.3133  1.8926
 7334TIP3    H243418   1.175   0.887   4.881 -0.5090  1.0257 -0.4222
 7335TIP3   OH243419   6.659   6.293  17.112 -0.2440 -0.1805  0.0389
 7335TIP3    H143420   6.683   6.270  17.202 -1.8304 -1.4829  0.1885
 7335TIP3    H243421   6.631   6.210  17.073 -0.8424  0.5864 -1.2288
 7336TIP3   OH243422   4.684   6.742   0.842  0.2788 -0.4417  0.1355
 7336TIP3    H143423   4.590   6.732   0.833  0.3515 -1.2742  0.2450
 7336TIP3    H243424   4.713   6.664   0.889  1.1992 -0.8509 -1.0620
 7337TIP3   OH243425   6.565   4.032   3.523 -0.1434  0.9672  0.5796
 7337TIP3    H143426   6.623   3.957   3.516 -0.2497  0.9398 -0.1034
 7337TIP3    H243427   6.592   4.076   3.604 -1.5208 -0.9863  2.1688
 7338TIP3   OH243428   1.611   5.884   5.874 -0.2084 -0.0389 -0.1685
 7338TIP3    H143429   1.624   5.789   5.875  0.9240  0.0591  2.2162
 7338TIP3    H243430   1.680   5.916   5.816  0.0625 -0.6128 -0.1742
 7339TIP3   OH243431   3.241   2.302  12.618  0.5569  0.4341  0.3158
 7339TIP3    H143432   3.221   2.326  12.527  0.4113 -0.6822  0.0350
 7339TIP3    H243433   3.296   2.224  12.610 -0.7902 -0.6449  1.1861
 7340TIP3   OH243434   2.470   1.285   1.887  0.1467 -0.6935 -0.1553
 7340TIP3    H143435   2.450   1.197   1.856 -1.8132 -0.7637  1.1118
 7340TIP3    H243436   2.461   1.280   1.982  2.4963  0.3327  0.1951
 7341TIP3   OH243437   3.698   5.441   3.737  0.2264  0.3041 -0.5252
 7341TIP3    H143438   3.606   5.446   3.763  0.5167 -0.9097  0.8666
 7341TIP3    H243439   3.746   5.434   3.820  1.4146 -0.9305 -1.2732
 7342TIP3   OH243440   0.629   2.638  16.722  0.0822 -0.1229 -0.0829
 7342TIP3    H143441   0.556   2.688  16.685 -0.2194 -0.3023  0.2581
 7342TIP3    H243442   0.616   2.549  16.689  2.3676  0.5921 -3.2668
 7343TIP3   OH243443   5.635   5.236  16.619  0.4228  0.1863 -0.6679
 7343TIP3    H143444   5.572   5.166  16.635 -0.0519  0.2319 -2.1895
 7343TIP3    H243445   5.717   5.191  16.603  0.2293 -0.0044 -1.1408
 7344TIP3   OH243446   4.220   1.363   2.871 -0.2028 -0.1511 -0.2866
 7344TIP3    H143447   4.195   1.280   2.912  1.1449 -0.5780 -0.2717
 7344TIP3    H243448   4.270   1.409   2.939 -0.6230  0.5139 -0.4234
 7345TIP3   OH243449   5.862   0.136   4.957 -0.0749  0.7655  0.4790
 7345TIP3    H143450   5.768   0.130   4.971  0.1209  0.1962  1.6555
 7345TIP3    H243451   5.876   0.099   4.870 -0.6000 -2.3629  1.6144
 7346TIP3   OH243452   5.127   1.554   3.601 -1.0008 -0.3542 -0.3443
 7346TIP3    H143453   5.115   1.648   3.612  0.8802  0.1420 -2.0351
 7346TIP3    H243454   5.159   1.524   3.686 -2.4069  0.3484  0.4625
 7347TIP3   OH243455   6.636   4.600   2.945 -0.1843  0.3864  0.4888
 7347TIP3    H143456   6.637   4.668   2.877 -1.0076  1.2166  1.2654
 7347TIP3    H243457   6.663   4.646   3.025 -1.0723 -0.1149  1.0958
 7348TIP3   OH243458   4.410   3.534  16.836  0.1232 -0.4065  0.3158
 7348TIP3    H143459   4.467   3.502  16.767 -0.3490  0.2653 -0.4009
 7348TIP3    H243460   4.323   3.538  16.796  0.2304  2.2248  0.1874
 7349TIP3   OH243461   3.449   6.096   4.088 -0.4724 -0.0084 -0.3049
 7349TIP3    H143462   3.498   6.156   4.143 -0.6149  0.1314 -0.3299
 7349TIP3    H243463   3.361   6.133   4.084 -0.1528  0.6414 -1.6286
 7350TIP3   OH243464   4.843   2.584   1.859 -0.4872  0.2380 -0.2398
 7350TIP3    H143465   4.818   2.496   1.829 -0.7078  0.2519 -0.1036
 7350TIP3    H243466   4.781   2.603   1.929 -1.4635  1.1475 -1.3124
 7351TIP3   OH243467   5.229   4.543  13.896 -0.1419 -0.5430  0.6141
 7351TIP3    H143468   5.314   4.526  13.936  0.4279  1.4476  0.3820
 7351TIP3    H243469   5.179   4.587  13.965 -1.3722 -2.5114  1.0602
 7352TIP3   OH243470   0.007   1.951  17.208 -0.4639 -0.3524  0.0799
 7352TIP3    H143471   0.092   1.949  17.164 -0.6945  0.6088 -0.4332
 7352TIP3    H243472  -0.054   1.980  17.141 -0.8661  0.9379  0.9667
 7353TIP3   OH243473   4.401   0.157   1.140  0.1866  0.1397  0.2635
 7353TIP3    H143474   4.347   0.118   1.209  0.5650 -0.3978  0.2588
 7353TIP3    H243475   4.338   0.183   1.073  0.0907 -3.1422 -1.0981
 7354TIP3   OH243476   0.543   4.435  13.135 -0.0724  0.3398 -0.4889
 7354TIP3    H143477   0.592   4.362  13.098  0.1606 -0.1039  0.6615
 7354TIP3    H243478   0.472   4.450  13.072 -0.3627 -1.1296 -0.5542
 7355TIP3   OH243479   4.253   5.369   3.495 -0.6075 -0.0453  0.6213
 7355TIP3    H143480   4.321   5.402   3.553 -0.1620 -1.4169  0.9150
 7355TIP3    H243481   4.220   5.291   3.539  2.2362 -3.3708 -2.4556
 7356TIP3   OH243482   2.194   4.820   3.593  0.3770  0.5740  0.1180
 7356TIP3    H143483   2.179   4.906   3.632  1.0957 -0.1735  2.1744
 7356TIP3    H243484   2.287   4.819   3.573 -0.0303  1.0870 -2.1618
 7357TIP3   OH243485   2.597   1.857  15.594  0.3733 -0.3451 -0.4728
 7357TIP3    H143486   2.574   1.924  15.530  0.2896 -1.1651 -1.3303
 7357TIP3    H243487   2.688   1.876  15.617  0.8385 -0.7928 -1.8400
 7358TIP3   OH243488   0.764   1.790   3.421  0.4580 -0.3506  0.3818
 7358TIP3    H143489   0.804   1.759   3.340 -0.2117  0.0226 -0.1026
 7358TIP3    H243490   0.837   1.809   3.479  0.9318 -1.1103  0.0494
 7359TIP3   OH243491   3.710   6.064  13.637 -0.0311 -0.5186  0.3513
 7359TIP3    H143492   3.668   6.017  13.709  1.9680 -1.1434  1.1856
 7359TIP3    H243493   3.736   5.995  13.576  0.3329 -0.2053  0.1480
 7360TIP3   OH243494   2.221   6.663   3.074 -0.0509  0.5514  0.8098
 7360TIP3    H143495   2.259   6.576   3.086 -2.5333 -0.6957  0.3966
 7360TIP3    H243496   2.236   6.707   3.158  3.0910  0.5893  0.3345
 7361TIP3   OH243497   3.649   5.370   4.502  0.1786  0.0710  0.7415
 7361TIP3    H143498   3.664   5.459   4.470 -2.0385 -0.1481 -1.1484
 7361TIP3    H243499   3.727   5.322   4.475 -0.0618  0.7172 -1.2811
 7362TIP3   OH243500   1.005   5.472  17.232  0.5124 -0.3002  0.3375
 7362TIP3    H143501   1.062   5.532  17.279  1.4568 -0.2797 -0.7718
 7362TIP3    H243502   0.920   5.482  17.273  0.2122  3.0365 -0.8246
 7363TIP3   OH243503   0.608   6.286   0.120 -0.2743  0.0499 -0.3851
 7363TIP3    H143504   0.656   6.360   0.157  0.5115  0.0188 -1.3087
 7363TIP3    H243505   0.583   6.234   0.196 -1.8271  1.8105  0.4041
 7364TIP3   OH243506   3.839   0.819   3.951  0.1216 -0.4240 -0.2721
 7364TIP3    H143507   3.877   0.805   3.865 -0.0940 -1.2977 -0.2416
 7364TIP3    H243508   3.854   0.911   3.971  0.5926 -0.3369 -1.0364
 7365TIP3   OH243509   3.359   2.836   2.228  0.5693 -0.2927  0.5386
 7365TIP3    H143510   3.343   2.840   2.134  0.9221  1.5069  0.5292
 7365TIP3    H243511   3.294   2.894   2.266  2.3486  1.4621  1.0976
 7366TIP3   OH243512   5.071   1.313  16.480  0.1039  0.3867  0.0199
 7366TIP3    H143513   5.138   1.256  16.517  1.7214  2.2694  0.1777
 7366TIP3    H243514   5.014   1.334  16.553  1.2921  1.3526  0.7161
 7367TIP3   OH243515   0.393   2.176  12.563  0.2501  0.1932  0.1196
 7367TIP3    H143516   0.329   2.133  12.619  1.2627 -0.8263  0.5356
 7367TIP3    H243517   0.371   2.269  12.568  0.0912  0.0915  1.9476
 7368TIP3   OH243518   3.484   1.043   5.665 -0.3902  0.5869 -0.5041
 7368TIP3    H143519   3.558   1.101   5.679 -0.6564  0.7729  0.2243
 7368TIP3    H243520   3.487   1.021   5.572 -0.4700  2.0191 -0.8728
 7369TIP3   OH243521   2.261   2.352   0.549  0.1204  0.0609  0.2553
 7369TIP3    H143522   2.355   2.352   0.568 -0.1249  0.2476  1.6027
 7369TIP3    H243523   2.254   2.327   0.457  1.6126  2.0578 -0.4703
 7370TIP3   OH243524   5.602   0.373   0.291 -0.7136 -0.0844 -1.0898
 7370TIP3    H143525   5.646   0.351   0.373 -1.3408  0.3294 -0.6426
 7370TIP3    H243526   5.669   0.358   0.224  0.4546  1.4851 -0.3309
 7371TIP3   OH243527   5.955   5.826  14.946  0.8936  0.0074 -0.0761
 7371TIP3    H143528   5.917   5.749  14.904  0.0803  0.1097  0.4486
 7371TIP3    H243529   5.904   5.900  14.913  0.4026  0.1119  0.8941
 7372TIP3   OH243530   1.121   1.558   2.444  0.1539 -0.3689 -0.3785
 7372TIP3    H143531   1.138   1.527   2.533  0.6333 -1.1427 -0.7266
 7372TIP3    H243532   1.205   1.593   2.414 -0.2462  0.7784 -0.1904
 7373TIP3   OH243533   0.541   5.773   2.141  0.2380 -0.2113 -1.1935
 7373TIP3    H143534   0.637   5.769   2.146  0.2360  0.6820  0.2133
 7373TIP3    H243535   0.512   5.691   2.180  0.4311  0.4290  0.3524
 7374TIP3   OH243536   6.226   3.020  16.229  0.1562 -0.0566  0.0753
 7374TIP3    H143537   6.318   2.998  16.216  0.2400  0.0695  0.4510
 7374TIP3    H243538   6.198   2.966  16.303 -0.3936 -0.9747 -0.7838
 7375TIP3   OH243539   3.806   0.347  16.546  0.4958 -0.1953  0.1877
 7375TIP3    H143540   3.727   0.341  16.598  1.5563  1.6581  2.1776
 7375TIP3    H243541   3.864   0.280  16.583  0.7701  0.2152  0.5113
 7376TIP3   OH243542   0.222   6.229  13.666 -0.3137 -0.1356  0.0533
 7376TIP3    H143543   0.268   6.168  13.608  0.3688 -0.0115  0.4570
 7376TIP3    H243544   0.234   6.314  13.625  0.0380 -0.0686  0.2932
 7377TIP3   OH243545   0.524   1.543  13.880 -0.4979  0.2849 -0.1654
 7377TIP3    H143546   0.446   1.575  13.834 -0.5121  0.8384  0.2436
 7377TIP3    H243547   0.545   1.611  13.943  1.2058  0.8375 -1.2695
 7378TIP3   OH243548   2.593   1.234  12.954 -0.6468  0.0138 -0.0890
 7378TIP3    H143549   2.637   1.203  12.875 -0.3397  0.3770 -0.0616
 7378TIP3    H243550   2.622   1.174  13.022 -1.4898 -0.7590 -0.3814
 7379TIP3   OH243551   3.930   4.619  17.372 -0.0849 -0.3152  0.3062
 7379TIP3    H143552   3.973   4.585  17.293  0.2360 -2.1728  1.2214
 7379TIP3    H243553   3.841   4.640  17.344  0.3890  0.2721 -0.8267
 7380TIP3   OH243554   5.780   6.305  13.431 -0.2655 -0.7070  0.4086
 7380TIP3    H143555   5.816   6.228  13.475 -2.7433 -1.7312  0.8458
 7380TIP3    H243556   5.757   6.365  13.502 -0.3930 -0.5414  0.2296
 7381TIP3   OH243557   1.929   1.391   5.058 -0.0758  0.3458  0.0889
 7381TIP3    H143558   1.921   1.426   4.969 -0.3004 -0.3275 -0.1619
 7381TIP3    H243559   1.856   1.330   5.067 -0.5160  0.9862  1.0163
 7382TIP3   OH243560   6.213   3.415  16.948 -0.1152 -0.0884 -0.2197
 7382TIP3    H143561   6.278   3.480  16.921 -0.5863 -0.2665 -1.9172
 7382TIP3    H243562   6.211   3.421  17.044  3.1678 -0.8528  0.0165
 7383TIP3   OH243563   6.158   6.072   4.429  0.2923 -0.3159 -0.4303
 7383TIP3    H143564   6.109   6.047   4.507 -2.0133  0.3705 -1.5627
 7383TIP3    H243565   6.134   6.006   4.364 -2.0532  1.9310 -2.0271
 7384TIP3   OH243566   1.374   3.921  16.066  0.0837  0.0796 -0.1485
 7384TIP3    H143567   1.350   3.852  16.128 -1.5660  0.3793 -0.4005
 7384TIP3    H243568   1.311   3.992  16.083  0.7028  0.8608 -0.9901
 7385TIP3   OH243569   1.871   5.123   0.910 -0.4278 -0.0948  0.5249
 7385TIP3    H143570   1.903   5.050   0.963  0.7270 -0.0902 -0.1212
 7385TIP3    H243571   1.941   5.187   0.912 -2.3366  2.1016  2.9987
 7386TIP3   OH243572   5.108   1.928  13.649 -0.0391 -0.3931  0.3372
 7386TIP3    H143573   5.038   1.981  13.688 -0.8508 -0.9783 -0.2800
 7386TIP3    H243574   5.151   1.988  13.587  0.3541  0.1193  1.0826
 7387TIP3   OH243575   4.794   6.618   4.228 -0.2603 -0.2792  0.1622
 7387TIP3    H143576   4.831   6.691   4.278 -0.1542 -0.7999  0.8609
 7387TIP3    H243577   4.833   6.540   4.268 -2.0253 -0.8557  0.8566
 7388TIP3   OH243578   0.003   4.427   0.037  0.2090 -0.3532  0.1843
 7388TIP3    H143579   0.033   4.517   0.034  1.2914 -0.6465  1.1425
 7388TIP3    H243580   0.082   4.376   0.059 -0.1737 -1.6453 -1.2126
 7389TIP3   OH243581   4.217   6.002  14.360  0.2580  0.2458 -0.6402
 7389TIP3    H143582   4.283   5.977  14.296  0.8465  1.3671 -0.4935
 7389TIP3    H243583   4.215   6.097  14.357 -1.0640  0.2536 -0.3369
 7390TIP3   OH243584   4.394   1.411   5.076  0.9703  0.2525  0.0294
 7390TIP3    H143585   4.378   1.471   5.149 -1.2034  0.9973 -0.9922
 7390TIP3    H243586   4.354   1.329   5.104 -0.0977  0.6137 -0.4051
 7391TIP3   OH243587   6.189   6.423   3.147  0.0881 -0.0676 -0.0559
 7391TIP3    H143588   6.227   6.342   3.181 -0.2456 -0.2165 -0.0287
 7391TIP3    H243589   6.183   6.408   3.053  0.2091  0.0020 -0.0740
 7392TIP3   OH243590   0.560   0.635   2.620  0.0837 -0.1390  0.4705
 7392TIP3    H143591   0.626   0.684   2.668  0.4340 -0.8185  0.6892
 7392TIP3    H243592   0.569   0.545   2.651 -0.0594 -0.4815 -0.4548
 7393TIP3   OH243593   2.472   3.511  12.377  0.3276 -0.9154 -0.1730
 7393TIP3    H143594   2.379   3.518  12.400  0.1996  0.9483 -1.0846
 7393TIP3    H243595   2.477   3.545  12.288  1.9571 -0.6610 -0.0055
 7394TIP3   OH243596   1.174   4.470   5.807 -0.3491  0.3955  0.1756
 7394TIP3    H143597   1.196   4.441   5.719 -0.7406  0.7717 -0.0497
 7394TIP3    H243598   1.252   4.515   5.838 -0.2932  0.4721 -0.0716
 7395TIP3   OH243599   0.324   4.224   0.517 -0.1019  0.1257 -0.2363
 7395TIP3    H143600   0.288   4.143   0.482 -1.4014  1.0183 -1.0968
 7395TIP3    H243601   0.278   4.293   0.468 -0.1587  1.3986  1.5206
 7396TIP3   OH243602   4.229   5.842  13.306  0.2142 -0.4659 -0.4154
 7396TIP3    H143603   4.167   5.802  13.367  0.3503  0.0962  0.1046
 7396TIP3    H243604   4.272   5.768  13.264 -0.3381 -0.8622 -0.2960
 7397TIP3   OH243605   3.495   4.178  16.382  0.3417  0.3800 -0.0900
 7397TIP3    H143606   3.419   4.121  16.367  0.0572  0.6558  0.2716
 7397TIP3    H243607   3.567   4.134  16.338 -0.0570  0.1749 -0.5502
 7398TIP3   OH243608   5.014   5.741  15.622 -0.1347  0.1370 -0.0098
 7398TIP3    H143609   4.948   5.798  15.583  2.2510  1.9053 -1.7466
 7398TIP3    H243610   5.026   5.671  15.558 -1.9213 -1.6033  1.4087
 7399TIP3   OH243611   5.407   4.170  15.666  0.3177  0.0843  0.4464
 7399TIP3    H143612   5.457   4.168  15.747 -2.3214  0.7773  2.2272
 7399TIP3    H243613   5.360   4.086  15.664 -2.3142  1.3951  1.5970
 7400TIP3   OH243614   2.495   3.924   1.340  0.4526 -0.0657 -0.4479
 7400TIP3    H143615   2.417   3.923   1.396  1.2748  1.0480  0.7601
 7400TIP3    H243616   2.555   3.863   1.383  0.4633 -0.4970 -1.0701
 7401TIP3   OH243617   3.921   0.350   1.428  0.2922 -0.2217 -0.2269
 7401TIP3    H143618   3.992   0.405   1.395  0.8465 -0.8257 -0.0417
 7401TIP3    H243619   3.959   0.263   1.436  0.3926 -0.0109  2.6075
 7402TIP3   OH243620   1.550   4.196  12.334 -0.8003  0.3502  0.3242
 7402TIP3    H143621   1.563   4.101  12.329  0.3081  0.5028  0.1323
 7402TIP3    H243622   1.481   4.214  12.270  1.0076  0.0147 -1.8381
 7403TIP3   OH243623   1.196   4.599   2.197 -0.0477  0.0201  0.0015
 7403TIP3    H143624   1.180   4.541   2.123  0.6084  0.7534 -0.7414
 7403TIP3    H243625   1.292   4.606   2.202 -0.0397 -0.8915  1.6302
 7404TIP3   OH243626   2.252   3.449   1.174  0.2949 -0.1802 -0.0145
 7404TIP3    H143627   2.197   3.379   1.210 -1.0849  1.4838  1.3199
 7404TIP3    H243628   2.216   3.465   1.087  0.2711 -0.7600 -0.1163
 7405TIP3   OH243629   5.939   2.212   2.052 -0.5334  0.4869  0.5176
 7405TIP3    H143630   5.975   2.212   1.963  2.4426 -1.4079  1.5524
 7405TIP3    H243631   5.928   2.119   2.073 -1.9799  0.9167  1.8798
 7406TIP3   OH243632   4.175   2.581  16.989  0.0710  0.2104 -0.0352
 7406TIP3    H143633   4.240   2.526  17.034 -0.0398  0.5304  0.5282
 7406TIP3    H243634   4.214   2.669  16.990  0.1883  0.1720 -0.8166
 7407TIP3   OH243635   6.433   0.381   0.498 -0.1339  0.3727  0.4278
 7407TIP3    H143636   6.523   0.379   0.530  0.3978  0.2872 -0.9816
 7407TIP3    H243637   6.441   0.409   0.407 -1.6265  1.2665  0.5427
 7408TIP3   OH243638   2.521   5.794   1.358 -1.1943  0.0817 -0.0939
 7408TIP3    H143639   2.472   5.712   1.352 -0.1086 -0.6859  1.2153
 7408TIP3    H243640   2.543   5.802   1.450  3.1091 -0.7914 -0.8662
 7409TIP3   OH243641   1.735   3.779   0.218  0.1942 -0.1836  0.0240
 7409TIP3    H143642   1.797   3.712   0.244 -2.0293 -2.8217 -1.0195
 7409TIP3    H243643   1.773   3.818   0.140  1.7100  0.1188  0.8731
 7410TIP3   OH243644   5.359   2.625   6.133  0.0157 -0.2216 -0.0722
 7410TIP3    H143645   5.324   2.617   6.222 -1.7881 -1.2744 -0.8136
 7410TIP3    H243646   5.453   2.610   6.143 -0.4097 -2.4188  1.4388
 7411TIP3   OH243647   5.454   1.849   3.607  0.1375 -0.4756  0.1599
 7411TIP3    H143648   5.475   1.925   3.662  0.7079 -1.3341  1.1736
 7411TIP3    H243649   5.361   1.859   3.586  0.2094  0.5092  0.2577
 7412TIP3   OH243650   5.719   6.371   0.103 -0.0057 -0.0216 -0.0390
 7412TIP3    H143651   5.628   6.367   0.074  0.3466 -1.1620 -1.1070
 7412TIP3    H243652   5.725   6.305   0.172 -0.1102  0.4611  0.4391
 7413TIP3   OH243653   2.346   5.111  15.869 -0.0820  0.5193 -0.0682
 7413TIP3    H143654   2.348   5.188  15.926 -0.2236 -0.1104  0.7993
 7413TIP3    H243655   2.273   5.059  15.901 -1.1235  0.8497 -1.7751
 7414TIP3   OH243656   4.455   5.848  15.961 -0.1211  0.1024  0.5167
 7414TIP3    H143657   4.503   5.853  16.044 -1.2828 -1.2476  1.3106
 7414TIP3    H243658   4.504   5.784  15.909 -0.8030 -0.9895  1.1803
 7415TIP3   OH243659   5.216   6.306   6.603  0.3534  0.0606 -0.3780
 7415TIP3    H143660   5.216   6.386   6.552  0.5762 -0.4426 -1.1799
 7415TIP3    H243661   5.124   6.289   6.622 -0.0144 -1.0568 -2.7460
 7416TIP3   OH243662   1.949   5.162   2.435  0.1406  0.3827  0.4035
 7416TIP3    H143663   1.996   5.245   2.447  0.2926  0.5602 -1.1768
 7416TIP3    H243664   1.864   5.176   2.478  0.5210  1.0049  0.9844
 7417TIP3   OH243665   2.979   1.242  13.190  0.8426 -0.7143 -0.4870
 7417TIP3    H143666   2.915   1.310  13.210  1.5675  0.6255 -2.4920
 7417TIP3    H243667   3.032   1.235  13.270 -0.5729 -0.4956  0.5052
 7418TIP3   OH243668   1.128   6.319  11.868  0.1710  0.0219 -0.3533
 7418TIP3    H143669   1.128   6.249  11.803  0.6736 -0.4543  0.1454
 7418TIP3    H243670   1.220   6.328  11.893 -0.3328 -2.2679  2.8929
 7419TIP3   OH243671   4.833   5.500  11.618 -0.3188 -0.3221  0.1610
 7419TIP3    H143672   4.873   5.546  11.545  0.1964 -0.4053  0.3880
 7419TIP3    H243673   4.753   5.549  11.637  0.2968  0.5681  0.5011
 7420TIP3   OH243674   5.438   3.012  14.033  0.0656 -0.2898  0.0267
 7420TIP3    H143675   5.412   3.013  14.126 -0.0473 -4.1105  0.1971
 7420TIP3    H243676   5.357   3.031  13.985 -0.8264 -2.1618  0.7107
 7421TIP3   OH243677   2.304   5.433   5.086  0.7740  0.3195  0.4896
 7421TIP3    H143678   2.326   5.342   5.068  2.1141  0.4812  1.2171
 7421TIP3    H243679   2.239   5.455   5.020  0.6460 -1.0760  0.1244
 7422TIP3   OH243680   5.557   5.317   0.067  0.4517  0.2717  0.0292
 7422TIP3    H143681   5.587   5.329  -0.023 -1.1859 -0.7596 -0.6857
 7422TIP3    H243682   5.495   5.389   0.081 -0.0115 -0.1226  0.0045
 7423TIP3   OH243683   4.066   2.607  15.592 -0.6715 -0.2294  0.2094
 7423TIP3    H143684   4.143   2.576  15.544 -0.0226  1.1318  0.3206
 7423TIP3    H243685   4.102   2.646  15.672 -1.4248  0.8367  0.0440
 7424TIP3   OH243686   3.105   1.443   5.743 -0.0995 -0.5225 -0.1372
 7424TIP3    H143687   3.171   1.421   5.677 -1.1148 -0.4915 -1.1913
 7424TIP3    H243688   3.130   1.530   5.773 -0.0039 -0.2471 -0.9788
 7425TIP3   OH243689   6.686   1.572  16.977  0.0740 -0.5732  0.1916
 7425TIP3    H143690   6.714   1.497  17.030 -0.1038  0.4099  1.7548
 7425TIP3    H243691   6.700   1.648  17.034 -1.0246  0.4574 -0.8441
 7426TIP3   OH243692   6.625   0.300  16.163 -0.1956 -0.3371 -0.1479
 7426TIP3    H143693   6.581   0.244  16.228 -1.0856 -0.1367 -0.5575
 7426TIP3    H243694   6.646   0.380  16.211 -0.6784 -0.2666 -0.0456
 7427TIP3   OH243695   5.615   5.743   4.418 -0.6633 -0.2178  0.0300
 7427TIP3    H143696   5.636   5.710   4.505  0.4619 -0.3556 -0.2741
 7427TIP3    H243697   5.643   5.673   4.358  1.7021  1.1427 -0.6243
 7428TIP3   OH243698   3.662   1.166   2.542 -0.4225  0.4910 -0.2137
 7428TIP3    H143699   3.632   1.092   2.491 -0.2358 -0.1874  0.6271
 7428TIP3    H243700   3.756   1.151   2.553 -0.5756  0.2186  0.9263
 7429TIP3   OH243701   4.045   5.148   6.630  0.2624 -0.0216 -0.0045
 7429TIP3    H143702   3.998   5.140   6.547 -1.1911 -0.6935  0.8611
 7429TIP3    H243703   4.133   5.115   6.610 -0.2775 -0.8734 -1.0907
 7430TIP3   OH243704   5.672   3.092   3.128  0.7117  0.3181 -0.3407
 7430TIP3    H143705   5.700   3.125   3.214  0.1807  0.2454 -0.1409
 7430TIP3    H243706   5.739   3.125   3.068 -0.2546  2.5199 -0.2797
 7431TIP3   OH243707   0.138   5.169  13.879 -0.0891  0.3388 -0.1917
 7431TIP3    H143708   0.183   5.189  13.961  0.2941  1.6103 -0.6807
 7431TIP3    H243709   0.207   5.169  13.813  0.0788 -3.5068 -0.1948
 7432TIP3   OH243710   4.795   1.260   5.238 -0.0059  0.4445 -0.0375
 7432TIP3    H143711   4.730   1.279   5.305  0.5833 -0.9149  0.9507
 7432TIP3    H243712   4.877   1.295   5.273  0.0155  1.1818 -0.7926
 7433TIP3   OH243713   0.479   0.442  14.667 -0.1669 -0.0827  0.4914
 7433TIP3    H143714   0.476   0.440  14.572  1.1629  2.2371  0.3352
 7433TIP3    H243715   0.571   0.434  14.689 -0.3430  0.5222  1.5218
 7434TIP3   OH243716   1.299   2.626  12.173  0.0952 -0.6623  0.1657
 7434TIP3    H143717   1.305   2.580  12.090  0.6111 -1.0297  0.3984
 7434TIP3    H243718   1.317   2.559  12.239 -1.2650 -0.5953  0.6390
 7435TIP3   OH243719   4.917   6.185  12.784  0.3159 -0.4048 -0.1923
 7435TIP3    H143720   4.951   6.270  12.758 -0.9452  0.7730  1.7247
 7435TIP3    H243721   4.949   6.172  12.873 -2.5901 -0.0275  1.0423
 7436TIP3   OH243722   5.108   1.824  11.238 -0.1440 -0.3641  0.4703
 7436TIP3    H143723   5.173   1.855  11.175 -0.3793  1.1097  0.9124
 7436TIP3    H243724   5.118   1.729  11.238  2.4088 -0.1653  0.9615
 7437TIP3   OH243725   2.751   0.724   1.781 -0.4713  1.2515  0.4359
 7437TIP3    H143726   2.665   0.692   1.755  0.3762  0.1172 -1.1530
 7437TIP3    H243727   2.783   0.661   1.845 -0.3547  0.9994  0.1347
 7438TIP3   OH243728   0.713   4.891  15.141  0.3329  0.1541 -0.0460
 7438TIP3    H143729   0.707   4.819  15.078  1.7446  0.4391 -0.5383
 7438TIP3    H243730   0.784   4.864  15.200  0.9007  1.1437 -0.2573
 7439TIP3   OH243731   1.826   2.924  12.824 -0.0446 -0.7322  0.0652
 7439TIP3    H143732   1.763   2.936  12.754 -0.8366  1.6414  1.0915
 7439TIP3    H243733   1.889   2.995  12.814  0.6272 -1.1693  0.9411
 7440TIP3   OH243734   5.440   0.518  13.062  0.0317  0.1045  0.7202
 7440TIP3    H143735   5.433   0.469  12.980 -0.4054  1.5786 -0.1524
 7440TIP3    H243736   5.482   0.457  13.123 -0.0562 -1.1722 -0.4619
 7441TIP3   OH243737   3.316   2.397  14.807 -0.5341  0.2990 -0.1455
 7441TIP3    H143738   3.375   2.323  14.793 -0.5597  0.4713 -1.2498
 7441TIP3    H243739   3.366   2.459  14.859  0.0510  0.2058 -0.6013
 7442TIP3   OH243740   3.153   3.933   2.668 -0.3954 -0.2326 -0.2858
 7442TIP3    H143741   3.235   3.978   2.687 -1.4923  1.0718  1.7641
 7442TIP3    H243742   3.128   3.965   2.581 -0.3402  1.9694  0.4369
 7443TIP3   OH243743   2.677   6.596   1.233  0.3111  0.4394 -0.2787
 7443TIP3    H143744   2.596   6.590   1.182 -0.0429 -0.7487  0.3740
 7443TIP3    H243745   2.661   6.540   1.309  0.8954  1.9951  1.0432
 7444TIP3   OH243746   3.419   2.159   6.278 -0.1675  0.5685  0.3816
 7444TIP3    H143747   3.510   2.155   6.305 -0.0161  0.2054 -0.1525
 7444TIP3    H243748   3.380   2.227   6.332  0.2842  0.3386  1.0041
 7445TIP3   OH243749   2.983   6.515   4.028 -0.5463  0.0617  0.2344
 7445TIP3    H143750   2.960   6.573   4.101  1.6642  0.0845  0.9603
 7445TIP3    H243751   3.068   6.546   3.998 -0.9482 -0.5931 -1.7269
 7446TIP3   OH243752   1.708   2.738  11.066 -0.1039 -0.4735  0.0409
 7446TIP3    H143753   1.727   2.798  11.138 -0.7065 -1.2993  0.9141
 7446TIP3    H243754   1.617   2.711  11.080  0.1896 -1.6790 -0.2480
 7447TIP3   OH243755   2.209   2.140  16.438  0.0582 -0.6768  0.2634
 7447TIP3    H143756   2.197   2.082  16.362 -1.0443 -2.4983  1.7312
 7447TIP3    H243757   2.130   2.194  16.439 -0.4411 -1.3884  0.6715
 7448TIP3   OH243758   0.962   4.266   3.885  0.0101 -0.2909 -0.4697
 7448TIP3    H143759   0.923   4.180   3.895 -1.0990 -0.1058 -2.6080
 7448TIP3    H243760   0.914   4.322   3.946 -1.0670 -0.6795 -0.9418
 7449TIP3   OH243761   5.989   4.876  16.992  0.2552 -0.0827 -0.3083
 7449TIP3    H143762   6.026   4.961  16.971 -1.3398  0.7218 -0.0264
 7449TIP3    H243763   5.941   4.850  16.914 -0.5341  0.0102  0.1356
 7450TIP3   OH243764   2.622   6.673   6.196  0.0207 -0.3084  0.0786
 7450TIP3    H143765   2.656   6.612   6.260 -0.7595 -1.2412 -0.3709
 7450TIP3    H243766   2.611   6.621   6.116  1.7887  1.0033 -1.1038
 7451TIP3   OH243767   1.418   4.783   4.717 -0.0285  0.3554  0.3770
 7451TIP3    H143768   1.354   4.854   4.727 -1.7635 -1.2394  1.3542
 7451TIP3    H243769   1.388   4.735   4.639 -0.1083 -0.4600  0.8988
 7452TIP3   OH243770   5.989   5.403  10.478 -0.0565 -0.2122  0.3563
 7452TIP3    H143771   6.011   5.457  10.403 -1.1918 -0.0375  0.1320
 7452TIP3    H243772   5.944   5.327  10.441 -0.0107 -0.4606  0.8047
 7453TIP3   OH243773   1.586   3.279   0.214 -0.9915 -0.0485  0.0172
 7453TIP3    H143774   1.591   3.317   0.302  0.5488  1.2156 -0.5560
 7453TIP3    H243775   1.504   3.311   0.178 -2.4367 -1.8679  1.5037
 7454TIP3   OH243776   4.069   4.120  16.223  0.6339  0.5393  1.1907
 7454TIP3    H143777   4.003   4.071  16.175 -0.5720  2.0205  1.2524
 7454TIP3    H243778   4.020   4.165  16.292  1.9915  0.2700  2.3732
 7455TIP3   OH243779   5.106   0.084  16.175 -0.0364  0.0370  0.4512
 7455TIP3    H143780   5.149   0.038  16.103 -0.1645  0.4235  0.1223
 7455TIP3    H243781   5.018   0.045  16.180  0.5761 -1.2794  1.6113
 7456TIP3   OH243782   5.634   3.807  15.218 -0.7796  0.5775 -0.3647
 7456TIP3    H143783   5.677   3.788  15.135 -0.6527  2.6503 -0.8162
 7456TIP3    H243784   5.683   3.757  15.283 -1.7116 -2.1926 -1.6311
 7457TIP3   OH243785   3.419   6.105  13.504 -0.0372 -0.5221  0.2825
 7457TIP3    H143786   3.508   6.074  13.489 -0.4591 -1.6645  0.0027
 7457TIP3    H243787   3.375   6.031  13.546  0.5397  1.7870  5.7883
 7458TIP3   OH243788   6.671   5.539   5.368 -0.4855 -0.2528 -0.0226
 7458TIP3    H143789   6.604   5.480   5.336 -0.6784  0.4106 -0.8674
 7458TIP3    H243790   6.626   5.593   5.433 -0.8927  0.4919 -0.9121
 7459TIP3   OH243791   5.583   5.177  14.088  0.4378 -0.1519  0.5128
 7459TIP3    H143792   5.613   5.231  14.015 -0.2221 -1.6503 -0.9054
 7459TIP3    H243793   5.528   5.236  14.140  0.8329  0.9090 -0.2255
 7460TIP3   OH243794   3.150   4.656  12.998 -0.3953  0.0660 -0.2990
 7460TIP3    H143795   3.165   4.749  13.011  0.9627 -0.3575  1.6579
 7460TIP3    H243796   3.129   4.648  12.905 -0.2702  2.2695 -0.5776
 7461TIP3   OH243797   5.962   4.871  13.497  0.0674  0.2189 -0.4790
 7461TIP3    H143798   5.977   4.786  13.539  1.3765  1.8937  2.8620
 7461TIP3    H243799   6.044   4.890  13.451  1.3107  1.1610  1.9301
 7462TIP3   OH243800   4.145   3.159  13.935 -0.1925  0.1795 -0.2317
 7462TIP3    H143801   4.083   3.087  13.947  2.5390 -2.3031  0.2728
 7462TIP3    H243802   4.169   3.184  14.024  0.5795  0.0805 -0.4074
 7463TIP3   OH243803   5.475   6.164  12.441  0.5003  0.2219  0.2875
 7463TIP3    H143804   5.549   6.165  12.381 -2.0302 -1.6342 -3.2456
 7463TIP3    H243805   5.453   6.072  12.451 -1.4627  0.7124  0.9557
 7464TIP3   OH243806   6.365   0.524   5.183  0.3080  0.1714 -0.1241
 7464TIP3    H143807   6.274   0.500   5.171  0.2386  0.2211  0.2942
 7464TIP3    H243808   6.404   0.450   5.229  0.1237  0.7857  1.0425
 7465TIP3   OH243809   3.997   4.210   2.851 -0.7653 -0.4426  0.1606
 7465TIP3    H143810   4.044   4.282   2.894 -1.2478 -0.3410  0.5256
 7465TIP3    H243811   3.915   4.249   2.822 -1.4113 -1.0318  1.1262
 7466TIP3   OH243812   3.217   0.568   5.709  0.4484  0.1361 -0.4492
 7466TIP3    H143813   3.235   0.639   5.770 -1.4671  0.6511 -0.4358
 7466TIP3    H243814   3.122   0.560   5.708  0.5891 -2.7693 -0.0754
 7467TIP3   OH243815   2.912   2.428   5.190  0.0449  0.3889  0.3514
 7467TIP3    H143816   2.937   2.486   5.118 -1.2006 -0.7346 -1.0552
 7467TIP3    H243817   2.965   2.349   5.177 -0.5659 -0.0260  0.3254
 7468TIP3   OH243818   6.118   5.441   3.892  0.4466 -0.1859  0.3840
 7468TIP3    H143819   6.071   5.500   3.833 -2.5801 -1.5737  1.1699
 7468TIP3    H243820   6.159   5.377   3.834 -0.2933 -0.0341 -0.3355
 7469TIP3   OH243821   4.645   2.583   2.058 -0.3374 -0.5173 -0.3715
 7469TIP3    H143822   4.569   2.529   2.080 -2.2063  1.7212 -0.9014
 7469TIP3    H243823   4.608   2.658   2.010  1.9620  1.5689  0.8603
 7470TIP3   OH243824   6.535   5.785   5.020 -0.0339  0.3793 -0.3341
 7470TIP3    H143825   6.563   5.828   5.101 -0.9408  1.9047 -0.7897
 7470TIP3    H243826   6.575   5.837   4.950  1.5983 -1.5376 -0.9005
 7471TIP3   OH243827   4.464   2.786  15.091  0.8589  0.7041 -0.1294
 7471TIP3    H143828   4.434   2.773  15.001 -0.2175  0.1267  0.2923
 7471TIP3    H243829   4.499   2.701  15.117 -0.0631  0.4780  0.4267
 7472TIP3   OH243830   0.896   1.639  14.527  0.1381  0.2814 -0.2443
 7472TIP3    H143831   0.882   1.598  14.612  1.1424  0.4303  0.0007
 7472TIP3    H243832   0.975   1.692  14.537 -0.1278  0.8754 -1.0657
 7473TIP3   OH243833   5.837   1.122  16.866  0.3475 -0.1662 -0.5965
 7473TIP3    H143834   5.801   1.207  16.891  0.6955  0.3384 -1.7313
 7473TIP3    H243835   5.898   1.100  16.936 -2.1109 -1.0669  1.4152
 7474TIP3   OH243836   1.985   0.428  15.927  0.3414 -0.3879 -0.2053
 7474TIP3    H143837   1.981   0.424  15.831 -0.4742  0.1630 -0.2053
 7474TIP3    H243838   2.033   0.508  15.947 -0.0419 -0.1650 -0.1595
 7475TIP3   OH243839   4.352   6.192   6.189 -0.2671  0.2621 -0.1237
 7475TIP3    H143840   4.351   6.097   6.181  1.6228  0.2652 -1.0880
 7475TIP3    H243841   4.343   6.208   6.283 -0.4045 -0.8769  0.0684
 7476TIP3   OH243842   4.504   3.515  15.355  0.6534 -0.4197 -0.1782
 7476TIP3    H143843   4.452   3.548  15.281  0.0305 -0.4792  0.2231
 7476TIP3    H243844   4.468   3.428  15.372  1.3030 -0.7121 -0.2876
 7477TIP3   OH243845   0.040   3.581   4.118 -0.0363  0.2823  0.0324
 7477TIP3    H143846   0.017   3.563   4.209 -0.1220 -1.3088 -0.2718
 7477TIP3    H243847   0.102   3.512   4.095  2.7992  2.6852 -0.0860
 7478TIP3   OH243848   0.662   0.596   5.299  0.0969  0.4430  0.0820
 7478TIP3    H143849   0.692   0.638   5.380 -1.3823  1.3393  0.1846
 7478TIP3    H243850   0.585   0.646   5.272  0.4064  0.0003 -1.7609
 7479TIP3   OH243851   4.980   3.982  12.458  0.0267  0.4884  0.0934
 7479TIP3    H143852   4.932   3.975  12.541 -0.7657 -0.6980 -0.4330
 7479TIP3    H243853   4.993   3.892  12.430  0.1041  0.8689 -1.1727
 7480TIP3   OH243854   1.054   6.127   5.595 -0.4244  0.1482 -0.5731
 7480TIP3    H143855   1.012   6.147   5.679  0.8378  0.7646 -0.0688
 7480TIP3    H243856   1.023   6.195   5.535 -1.1578 -0.1664 -0.5602
 7481TIP3   OH243857   6.016   0.467   4.200  0.8374 -0.2813 -0.1969
 7481TIP3    H143858   6.084   0.399   4.195  1.2937  0.2046 -0.9523
 7481TIP3    H243859   6.056   0.536   4.253 -0.6863 -1.7271  3.0571
 7482TIP3   OH243860   5.691   6.292  11.804 -0.2865  0.5332 -0.2531
 7482TIP3    H143861   5.706   6.220  11.743 -0.9667  1.0949 -1.1281
 7482TIP3    H243862   5.607   6.329  11.776 -0.4584  1.0041  0.8438
 7483TIP3   OH243863   1.826   5.976   4.568  0.0144 -0.1756  0.2080
 7483TIP3    H143864   1.877   6.056   4.555  0.6880 -0.6959 -0.4121
 7483TIP3    H243865   1.823   5.965   4.663  2.5419 -1.0486  0.2532
 7484TIP3   OH243866   0.596   6.603  16.782 -0.1036  0.7840  0.0444
 7484TIP3    H143867   0.691   6.613  16.795 -0.3437  1.0143  1.8517
 7484TIP3    H243868   0.561   6.690  16.796 -0.5391  0.8818 -1.4636
 7485TIP3   OH243869   1.591   5.113  13.303 -0.1632 -0.3474 -0.1363
 7485TIP3    H143870   1.627   5.108  13.214  0.9620 -1.0721  0.3292
 7485TIP3    H243871   1.534   5.190  13.302  0.0999 -0.1493 -1.3882
 7486TIP3   OH243872   1.123   2.737  12.868  0.7245 -0.4438  0.1167
 7486TIP3    H143873   1.141   2.653  12.825 -1.3131 -0.7493 -0.2217
 7486TIP3    H243874   1.052   2.776  12.817  1.9907  1.7818 -0.0697
 7487TIP3   OH243875   5.664   5.656  16.885 -0.0173  0.0777  0.1675
 7487TIP3    H143876   5.692   5.631  16.797 -1.7208 -1.5400  0.0374
 7487TIP3    H243877   5.734   5.625  16.942 -0.3309 -1.6830 -0.3619
 7488TIP3   OH243878   6.732   2.840   0.126  0.0649 -0.5614 -0.2461
 7488TIP3    H143879   6.818   2.883   0.124  1.0158 -2.3906 -1.0160
 7488TIP3    H243880   6.728   2.798   0.212 -1.4775  2.0762  1.1113
 7489TIP3   OH243881   3.192   1.438   4.617  0.1468  0.6899  0.7075
 7489TIP3    H143882   3.164   1.504   4.553 -0.5863 -0.0726  0.2260
 7489TIP3    H243883   3.283   1.419   4.594 -0.8553 -1.5903 -1.9455
 7490TIP3   OH243884   3.927   5.789   2.288  0.1349 -0.2374 -0.1944
 7490TIP3    H143885   3.945   5.879   2.262  0.0738 -0.4073 -0.8432
 7490TIP3    H243886   3.989   5.736   2.238  0.5976 -0.5184  0.6446
 7491TIP3   OH243887   2.693   4.613  11.274 -0.0669  0.6313  0.1229
 7491TIP3    H143888   2.642   4.559  11.214 -0.1383  0.5863  0.2228
 7491TIP3    H243889   2.632   4.678  11.307 -0.2454  0.1338  0.7925
 7492TIP3   OH243890   0.795   1.196   0.356  0.1756  0.3344 -0.1321
 7492TIP3    H143891   0.813   1.222   0.266 -1.2121  2.7603  0.1905
 7492TIP3    H243892   0.731   1.125   0.348 -0.6913  1.1922 -1.0825
 7493TIP3   OH243893   2.895   1.623   4.104  0.5416  0.1504 -0.0398
 7493TIP3    H143894   2.971   1.617   4.163  0.3171  1.1579  0.3680
 7493TIP3    H243895   2.842   1.547   4.125  1.8066 -1.0191 -0.8801
 7494TIP3   OH243896   5.128   6.002  16.081  0.4964 -0.2608 -0.0200
 7494TIP3    H143897   5.097   5.911  16.081 -0.1849 -0.0327  0.0911
 7494TIP3    H243898   5.081   6.044  16.009  1.0057 -0.0541 -0.2383
 7495TIP3   OH243899   2.400   2.375  11.549 -0.5640  0.1087 -0.4982
 7495TIP3    H143900   2.401   2.382  11.454 -0.1836  0.5471 -0.4687
 7495TIP3    H243901   2.462   2.442  11.578  0.3048 -0.8658 -0.0031
 7496TIP3   OH243902   3.270   2.859   3.783 -0.2680 -0.1348 -0.3494
 7496TIP3    H143903   3.226   2.913   3.718 -2.4758 -0.7111  0.5668
 7496TIP3    H243904   3.238   2.891   3.867  1.6863 -0.1099  0.4411
 7497TIP3   OH243905   3.932   5.117   2.426  0.4960  0.6431 -0.1099
 7497TIP3    H143906   3.903   5.026   2.423  1.5859  0.2939 -0.4768
 7497TIP3    H243907   3.867   5.161   2.482  2.1099 -1.1864  3.5364
 7498TIP3   OH243908   3.681   4.238  13.865 -0.1210  0.0090  0.0183
 7498TIP3    H143909   3.663   4.193  13.947 -0.7547 -1.8499 -1.0810
 7498TIP3    H243910   3.603   4.293  13.850  0.6620  1.5677  1.3717
 7499TIP3   OH243911   1.192   4.789  11.567 -0.1472  0.2391  0.3863
 7499TIP3    H143912   1.183   4.837  11.650 -0.5088 -0.1294  0.5610
 7499TIP3    H243913   1.269   4.829  11.525  1.3100 -0.9127  1.8262
 7500TIP3   OH243914   0.866   3.081   1.094 -0.4213 -0.2795  0.0466
 7500TIP3    H143915   0.772   3.084   1.114 -0.4171  2.6460  0.0549
 7500TIP3    H243916   0.869   3.069   0.999 -0.8978  1.1485 -0.1764
 7501TIP3   OH243917   5.688   5.823   2.420  0.5970  0.0425  0.6758
 7501TIP3    H143918   5.657   5.913   2.422 -0.4254 -0.2784  0.2041
 7501TIP3    H243919   5.721   5.807   2.509 -0.7411  0.3791  1.2622
 7502TIP3   OH243920   2.090   2.653  12.638  0.1565  0.0538  0.3702
 7502TIP3    H143921   1.996   2.670  12.627 -0.1932  0.2387  2.8469
 7502TIP3    H243922   2.094   2.598  12.717  2.1646  0.5719  0.6765
 7503TIP3   OH243923   4.155   0.300   3.983 -0.1764  0.2287 -0.0955
 7503TIP3    H143924   4.194   0.220   3.948  0.3130  0.5662 -0.3438
 7503TIP3    H243925   4.070   0.273   4.017  0.0706 -0.4353  0.0145
 7504TIP3   OH243926   6.593   3.096  14.786 -0.8913 -0.8687 -0.0715
 7504TIP3    H143927   6.525   3.130  14.727  0.8438  0.3633 -1.4467
 7504TIP3    H243928   6.632   3.174  14.825 -0.2383 -1.5613  0.6926
 7505TIP3   OH243929   0.293   1.169   6.294 -0.7742 -0.0886 -0.0035
 7505TIP3    H143930   0.336   1.129   6.219 -0.0452  1.4567 -0.4676
 7505TIP3    H243931   0.361   1.172   6.362 -0.1234  2.1617 -0.6653
 7506TIP3   OH243932   1.264   5.394  12.880 -0.0640 -0.0511  0.2247
 7506TIP3    H143933   1.249   5.411  12.787 -2.8929 -0.1606  0.5950
 7506TIP3    H243934   1.313   5.470  12.910  0.3024  0.3104 -1.1933
 7507TIP3   OH243935   3.291   1.612   5.301  0.5322  0.1891 -0.1597
 7507TIP3    H143936   3.224   1.555   5.264  0.3729  1.6430 -2.2882
 7507TIP3    H243937   3.373   1.580   5.262  0.6862  0.2271  0.1326
 7508TIP3   OH243938   2.893   5.240   4.019  0.0335 -0.1632 -0.2126
 7508TIP3    H143939   2.823   5.300   3.993  1.1113  2.2030  1.8138
 7508TIP3    H243940   2.969   5.269   3.968  0.5242  0.1547  0.6719
 7509TIP3   OH243941   3.932   2.951  13.561 -0.7955 -0.2210  0.0063
 7509TIP3    H143942   3.859   3.009  13.540 -0.5143  0.4507  0.8262
 7509TIP3    H243943   3.990   2.958  13.485 -0.4392  1.1257  0.3594
 7510TIP3   OH243944   0.286   1.475  13.021  0.1041  0.2072  0.2877
 7510TIP3    H143945   0.241   1.555  13.047 -2.5253 -0.5166 -1.5806
 7510TIP3    H243946   0.238   1.405  13.067 -0.6000 -0.5796 -1.5461
 7511TIP3   OH243947   3.846   5.472   3.956 -0.6012 -0.0955 -0.0730
 7511TIP3    H143948   3.816   5.465   4.046 -0.5048 -1.7241 -0.1422
 7511TIP3    H243949   3.903   5.397   3.943  0.1115  0.6143 -1.2295
 7512TIP3   OH243950   3.529   2.705  12.493  0.1793 -0.4985  0.2817
 7512TIP3    H143951   3.589   2.664  12.555 -0.4587  0.6666  1.7209
 7512TIP3    H243952   3.524   2.796  12.521 -0.5649 -0.0634 -1.1661
 7513TIP3   OH243953   5.979   0.997   0.420  0.1295 -0.1529 -0.4001
 7513TIP3    H143954   5.884   1.008   0.422  0.3004  1.4776 -0.2911
 7513TIP3    H243955   5.992   0.910   0.382 -1.4253 -0.9033  0.6861
 7514TIP3   OH243956   0.282   2.572   2.785 -0.0438 -0.4582 -0.2998
 7514TIP3    H143957   0.225   2.525   2.723 -1.8321  0.9509  0.1750
 7514TIP3    H243958   0.314   2.504   2.844 -2.0199 -1.2378 -0.0275
 7515TIP3   OH243959   2.567   0.258  15.512 -0.5605  0.2144  0.8223
 7515TIP3    H143960   2.573   0.210  15.595 -0.9875 -1.7909 -0.2431
 7515TIP3    H243961   2.480   0.297  15.513 -0.4888  0.3701  1.4019
 7516TIP3   OH243962   1.035   5.578   3.684  0.4271  0.7089 -0.2479
 7516TIP3    H143963   1.090   5.647   3.722 -0.1333  0.7808  0.4558
 7516TIP3    H243964   1.058   5.499   3.732 -0.6912  0.9138  0.6779
 7517TIP3   OH243965   4.992   3.238  12.292 -0.3888 -0.0684  0.1472
 7517TIP3    H143966   4.927   3.223  12.361 -0.7818  0.7168 -0.0511
 7517TIP3    H243967   4.992   3.332  12.279  2.2566  0.2069  1.5561
 7518TIP3   OH243968   6.314   5.113   1.451 -0.9161  0.1028 -0.4700
 7518TIP3    H143969   6.302   5.176   1.380  2.3435 -0.4640 -1.7098
 7518TIP3    H243970   6.379   5.154   1.509 -0.8130 -0.9517  0.1884
 7519TIP3   OH243971   3.231   1.495  15.767  0.0431  0.1029  0.6500
 7519TIP3    H143972   3.253   1.456  15.683 -0.1083 -1.0507  1.1197
 7519TIP3    H243973   3.313   1.493  15.817 -0.1669 -0.4147  0.9775
 7520TIP3   OH243974   1.562   1.858   1.934  0.0085  0.6866  0.8893
 7520TIP3    H143975   1.571   1.816   2.020  1.5445 -1.8182 -0.3685
 7520TIP3    H243976   1.483   1.911   1.941 -2.9745 -3.4857  2.3110
 7521TIP3   OH243977   5.238   3.115   1.682 -0.0740  0.3694  0.4207
 7521TIP3    H143978   5.216   3.049   1.748  1.3141 -0.7481 -0.1975
 7521TIP3    H243979   5.182   3.190   1.704  1.2951  0.5852  3.7460
 7522TIP3   OH243980   1.249   5.490  16.298  0.3006  0.1456  0.0500
 7522TIP3    H143981   1.240   5.579  16.264 -1.2241 -0.0762 -0.1932
 7522TIP3    H243982   1.298   5.501  16.380  1.6258  0.9899 -0.8149
 7523TIP3   OH243983   2.532   6.347  11.794 -0.9653 -0.3312  0.3565
 7523TIP3    H143984   2.575   6.324  11.876  0.2276 -1.0013 -0.4164
 7523TIP3    H243985   2.439   6.330  11.810 -0.6802 -1.0509  1.3641
 7524TIP3   OH243986   5.893   5.810  13.381 -0.4405  0.6174  0.5871
 7524TIP3    H143987   5.947   5.769  13.449 -0.3474  0.1556  0.2424
 7524TIP3    H243988   5.803   5.800  13.411 -0.5997 -1.6973 -0.4242
 7525TIP3   OH243989   5.069   1.542   2.941 -0.2314 -0.0074  0.6306
 7525TIP3    H143990   5.049   1.571   2.852  0.3418  1.1163  0.8404
 7525TIP3    H243991   5.013   1.466   2.955  1.4881 -1.8056 -1.5944
 7526TIP3   OH243992   4.839   2.454  17.389  0.3834 -0.6505 -0.2758
 7526TIP3    H143993   4.806   2.471  17.477 -0.5498  1.8118 -1.0087
 7526TIP3    H243994   4.792   2.376  17.360 -1.2326 -0.0025  0.4896
 7527TIP3   OH243995   5.523   1.707   2.726 -0.4812  0.3824  0.5257
 7527TIP3    H143996   5.517   1.753   2.810  0.6319  1.1211  0.2160
 7527TIP3    H243997   5.440   1.661   2.719 -0.6286  0.3558  2.0068
 7528TIP3   OH243998   0.860   5.672  14.361 -0.1719  0.1816 -0.3927
 7528TIP3    H143999   0.953   5.682  14.385 -0.8277  1.2007  2.1043
 7528TIP3    H244000   0.856   5.699  14.270  1.8875  0.8632 -0.3399
 7529TIP3   OH244001   5.598   4.158  13.161  0.3220 -0.1955  0.0049
 7529TIP3    H144002   5.642   4.110  13.231  0.1536  0.1138  0.3221
 7529TIP3    H244003   5.573   4.090  13.098 -0.2964 -0.5819  0.6499
 7530TIP3   OH244004   3.344   4.917  11.350  0.0558  0.0794 -0.4264
 7530TIP3    H144005   3.252   4.894  11.364  0.1350  0.2667  0.4715
 7530TIP3    H244006   3.341   4.983  11.280 -0.4748 -0.0394 -0.5257
 7531TIP3   OH244007   6.303   1.597   2.952  0.6445 -0.0723 -0.0504
 7531TIP3    H144008   6.280   1.591   3.044  0.8323 -1.6602 -0.0891
 7531TIP3    H244009   6.220   1.587   2.906  0.5750  0.5453 -0.0698
 7532TIP3   OH244010   4.825   5.827  14.724  0.1138  0.4887  0.1084
 7532TIP3    H144011   4.827   5.733  14.742  1.8087  0.6537  1.0240
 7532TIP3    H244012   4.813   5.867  14.810 -0.8124  1.1234 -0.2997
 7533TIP3   OH244013   6.507   6.448   2.227 -0.7700 -0.3805  0.4151
 7533TIP3    H144014   6.454   6.371   2.210 -0.1255 -0.7572  0.0636
 7533TIP3    H244015   6.461   6.520   2.183 -0.4944 -0.8765 -0.7103
 7534TIP3   OH244016   2.940   4.318  11.371 -0.2706 -0.1388  0.5709
 7534TIP3    H144017   2.940   4.413  11.383  0.7014 -0.3213  2.3689
 7534TIP3    H244018   2.856   4.300  11.329 -0.7365  1.4577  0.7372
 7535TIP3   OH244019   2.968   1.886   1.017 -0.4977  0.1400 -0.3413
 7535TIP3    H144020   3.050   1.854   0.981  0.3069 -0.0494  1.5185
 7535TIP3    H244021   2.908   1.811   1.010 -0.6539  0.3844 -2.0044
 7536TIP3   OH244022   0.838   1.356   0.136  0.1806 -0.5910  0.7800
 7536TIP3    H144023   0.814   1.448   0.148  0.9940 -0.4866  1.6811
 7536TIP3    H244024   0.833   1.342   0.041  3.2083  1.2661  0.2356
 7537TIP3   OH244025   3.517   1.755  17.144 -0.1562  0.0588  0.7105
 7537TIP3    H144026   3.426   1.748  17.116 -0.0018  0.1233  0.1871
 7537TIP3    H244027   3.551   1.665  17.137  0.2590  0.2930 -0.6341
 7538TIP3   OH244028   3.935   1.192   3.325 -0.2734  0.4176 -0.7809
 7538TIP3    H144029   3.963   1.205   3.416  0.9941 -0.1514 -1.0702
 7538TIP3    H244030   3.859   1.249   3.315 -0.6142  0.2763  0.7213
 7539TIP3   OH244031   4.134   0.596   6.291  0.5808  0.4155  0.4308
 7539TIP3    H144032   4.136   0.503   6.314  0.8951  0.6611  1.4441
 7539TIP3    H244033   4.209   0.608   6.233 -1.5697 -0.7028 -2.8519
 7540TIP3   OH244034   0.464   5.427  13.853 -0.3936 -0.4102  0.5828
 7540TIP3    H144035   0.406   5.450  13.781 -0.4883  0.4745  0.9227
 7540TIP3    H244036   0.487   5.511  13.893  0.4278 -0.8111  0.9877
 7541TIP3   OH244037   3.254   4.614   5.419  0.0403  0.1179  0.0074
 7541TIP3    H144038   3.216   4.635   5.333 -0.0157 -0.4217 -0.0987
 7541TIP3    H244039   3.190   4.649   5.482 -1.0671 -1.4703 -0.1605
 7542TIP3   OH244040   4.838   6.578   1.484 -0.0588 -0.1507  0.1077
 7542TIP3    H144041   4.818   6.515   1.552 -1.0502  0.5051  0.4376
 7542TIP3    H244042   4.786   6.550   1.409 -0.3480  0.1619  0.1916
 7543TIP3   OH244043   4.579   6.047   0.819 -0.0918  0.2068  0.2733
 7543TIP3    H144044   4.567   6.015   0.730 -1.2857  1.1484  0.0696
 7543TIP3    H244045   4.601   5.969   0.870  0.2594 -0.3939 -0.7766
 7544TIP3   OH244046   5.569   3.882   6.264 -0.3249  0.1673  0.2078
 7544TIP3    H144047   5.590   3.921   6.349 -4.0355  0.1487  1.3114
 7544TIP3    H244048   5.626   3.805   6.258  2.2730  1.8945  1.1111
 7545TIP3   OH244049   2.407   3.769  14.652  0.6891  0.2855  0.7116
 7545TIP3    H144050   2.444   3.751  14.565  0.8626  1.4797  0.5181
 7545TIP3    H244051   2.484   3.779  14.708  0.6293  1.1738  0.6456
 7546TIP3   OH244052   6.613   0.977   0.031  0.4857 -0.0240 -0.0714
 7546TIP3    H144053   6.654   0.892   0.015 -0.1944 -0.4442  0.3590
 7546TIP3    H244054   6.567   0.997  -0.051 -1.1579 -1.1202  0.5385
 7547TIP3   OH244055   0.180   5.814   6.152 -0.0572  0.0754  0.1521
 7547TIP3    H144056   0.174   5.905   6.184 -0.2236  0.4382 -0.8595
 7547TIP3    H244057   0.267   5.785   6.178  0.5272  1.0046 -0.6741
 7548TIP3   OH244058   4.417   2.735  15.477  0.4785 -0.2767 -0.6043
 7548TIP3    H144059   4.377   2.649  15.479 -2.7605  1.0637  2.7782
 7548TIP3    H244060   4.350   2.793  15.441  1.6978  1.2296 -0.5986
 7549TIP3   OH244061   6.565   6.618  15.485  0.0844 -0.4958  0.3125
 7549TIP3    H144062   6.472   6.612  15.504 -0.2954  2.6393 -0.1428
 7549TIP3    H244063   6.606   6.632  15.570  0.0699 -0.9349  0.3976
 7550TIP3   OH244064   1.488   0.057  14.764 -0.2241  0.3657  0.3363
 7550TIP3    H144065   1.551   0.111  14.716 -0.9288  0.8108 -0.1257
 7550TIP3    H244066   1.407   0.109  14.761 -0.3580  0.2665  1.7628
 7551TIP3   OH244067   1.338   3.136   5.744  0.2384 -0.1648 -0.5613
 7551TIP3    H144068   1.293   3.216   5.717  0.3872 -0.4399 -1.6501
 7551TIP3    H244069   1.275   3.066   5.728  0.0099 -0.2535  0.6413
 7552TIP3   OH244070   1.429   0.313  11.558  0.0572  0.1105  0.0059
 7552TIP3    H144071   1.491   0.268  11.500  0.2369  0.3356  0.0217
 7552TIP3    H244072   1.371   0.360  11.499  0.2436  0.3440  0.0076
 7553TIP3   OH244073   1.219   0.091  13.002 -0.5593  0.0417 -0.0210
 7553TIP3    H144074   1.268   0.068  12.923 -0.4290 -0.1956  0.1262
 7553TIP3    H244075   1.228   0.186  13.009  1.7305 -0.1936  1.1916
 7554TIP3   OH244076   6.220   6.718   1.854  0.0560  0.5468 -0.1495
 7554TIP3    H144077   6.311   6.689   1.849  0.6218  1.9501  1.2788
 7554TIP3    H244078   6.220   6.803   1.811 -0.8884 -0.0163 -1.3267
 7555TIP3   OH244079   3.670   1.520  14.670 -0.8010 -0.1101  0.0566
 7555TIP3    H144080   3.735   1.590  14.669 -1.1281  0.1984 -0.0785
 7555TIP3    H244081   3.615   1.538  14.594 -1.9669  0.5213  1.0087
 7556TIP3   OH244082   6.572   3.249  16.091  0.4314 -0.3041  0.3518
 7556TIP3    H144083   6.551   3.289  16.007 -0.5897 -1.4567  0.0272
 7556TIP3    H244084   6.594   3.158  16.070  0.4929 -0.5199  1.2852
 7557TIP3   OH244085   1.280   4.945   0.894 -0.4038 -0.5887  0.2679
 7557TIP3    H144086   1.322   4.987   0.819 -0.2616 -0.4808  0.4094
 7557TIP3    H244087   1.271   5.014   0.959 -0.0161 -0.8138  0.5659
 7558TIP3   OH244088   4.082   3.275   1.114  0.0071 -0.1793 -0.3633
 7558TIP3    H144089   4.114   3.223   1.189 -0.9443  0.9913  0.9044
 7558TIP3    H244090   4.152   3.338   1.097 -0.6902  1.0775  1.1173
 7559TIP3   OH244091   3.120   3.134   3.955  0.4481 -0.1491  0.2845
 7559TIP3    H144092   3.124   3.157   4.048  1.2943  1.1793 -0.0651
 7559TIP3    H244093   3.031   3.157   3.929 -0.0434 -1.2297  0.9144
 7560TIP3   OH244094   1.369   0.591  11.691  0.2572  0.1691 -0.0432
 7560TIP3    H144095   1.419   0.513  11.667 -0.8253 -0.1765 -1.2953
 7560TIP3    H244096   1.416   0.664  11.650  1.0701  0.1485  0.8306
 7561TIP3   OH244097   5.879   2.260  16.622  0.3086 -0.4082  0.2806
 7561TIP3    H144098   5.792   2.221  16.614  0.1854 -0.3684  1.3911
 7561TIP3    H244099   5.880   2.330  16.556 -0.1113 -1.0931 -0.4675
 7562TIP3   OH244100   3.162   6.001  12.420 -0.3384 -0.2673  0.2787
 7562TIP3    H144101   3.215   6.073  12.454 -0.2487  0.0134 -0.4311
 7562TIP3    H244102   3.173   6.006  12.325 -0.6874 -0.9454  0.1947
 7563TIP3   OH244103   5.623   2.909  12.141  0.7007 -0.4636 -0.3773
 7563TIP3    H144104   5.596   2.876  12.055  0.8217  1.1246 -1.0699
 7563TIP3    H244105   5.544   2.950  12.177  0.4218 -1.8504  0.6775
 7564TIP3   OH244106   1.185   4.797   3.140 -0.4952 -0.4282 -0.1329
 7564TIP3    H144107   1.148   4.715   3.109  0.5906 -1.5788  1.4685
 7564TIP3    H244108   1.133   4.865   3.097 -1.6810 -1.9444 -1.1759
 7565TIP3   OH244109   5.355   6.119  13.611  0.2612 -0.6844  0.3634
 7565TIP3    H144110   5.328   6.143  13.522  0.6066  2.1883  0.9286
 7565TIP3    H244111   5.406   6.039  13.599  0.1924 -0.4643 -2.0222
 7566TIP3   OH244112   1.906   1.635   2.925 -0.4780 -0.0072  1.0501
 7566TIP3    H144113   1.922   1.587   2.844 -2.5684  0.3501  0.3766
 7566TIP3    H244114   1.989   1.629   2.972  1.4212  1.1962 -1.8150
 7567TIP3   OH244115   3.260   6.685   1.061 -0.1187  0.1329  0.3097
 7567TIP3    H144116   3.333   6.731   1.103  0.9070 -0.9854 -0.2092
 7567TIP3    H244117   3.300   6.636   0.989 -0.9150 -2.5994  1.5906
 7568TIP3   OH244118   4.953   4.677  14.059 -0.4199  0.4687 -0.3062
 7568TIP3    H144119   4.951   4.678  14.154 -1.3382  0.8091 -0.3241
 7568TIP3    H244120   4.893   4.746  14.032  0.6720  1.1295 -1.1321
 7569TIP3   OH244121   3.835   2.396  16.491  0.3845 -0.1078 -0.2341
 7569TIP3    H144122   3.822   2.482  16.452  0.8153 -0.0743 -0.3001
 7569TIP3    H244123   3.916   2.363  16.453  1.0066  0.0819  0.9017
 7570TIP3   OH244124   2.233   5.287  12.534  0.3808  0.9492 -0.1568
 7570TIP3    H144125   2.163   5.259  12.476 -0.0938  1.6937  0.0290
 7570TIP3    H244126   2.224   5.383  12.538 -0.1635  0.8669  1.8127
 7571TIP3   OH244127   2.763   5.258   4.422  0.5631 -0.2337  0.1250
 7571TIP3    H144128   2.798   5.245   4.510  0.3251 -0.2929  0.2134
 7571TIP3    H244129   2.668   5.256   4.435  0.4608 -2.9876 -0.5202
 7572TIP3   OH244130   0.839   4.533  16.185  0.2134  0.2136 -0.1894
 7572TIP3    H144131   0.856   4.506  16.095  0.9176  3.2411 -1.0952
 7572TIP3    H244132   0.926   4.541  16.224  0.0418  1.0166  0.0475
 7573TIP3   OH244133   1.056   2.845  14.209 -0.4420 -0.1678  0.2737
 7573TIP3    H144134   0.974   2.872  14.249 -1.9698  1.4163 -3.4872
 7573TIP3    H244135   1.047   2.751  14.197 -2.9107  0.2601 -2.1964
 7574TIP3   OH244136   3.705   0.156   4.538  0.0661 -0.0459 -0.2520
 7574TIP3    H144137   3.682   0.080   4.591  0.6230  1.3203  2.0746
 7574TIP3    H244138   3.637   0.221   4.558 -1.1213 -0.2313 -3.1438
 7575TIP3   OH244139   6.224   1.219  10.856 -0.1886  0.6600 -0.3062
 7575TIP3    H144140   6.254   1.309  10.844  1.9928 -0.0389 -0.3901
 7575TIP3    H244141   6.129   1.228  10.868 -0.1004  2.9163 -0.7335
 7576TIP3   OH244142   1.242   3.385  11.675  0.0350 -0.7698  0.0360
 7576TIP3    H144143   1.150   3.368  11.655 -0.4200 -1.0692  2.1765
 7576TIP3    H244144   1.286   3.303  11.656 -0.0097 -0.4550 -1.5518
 7577TIP3   OH244145   0.047   3.149  15.962  0.1899 -0.7056 -0.6736
 7577TIP3    H144146   0.086   3.065  15.938  0.5102 -0.3093 -1.5891
 7577TIP3    H244147   0.122   3.208  15.972  0.0610 -0.7919  1.1584
 7578TIP3   OH244148   3.134   3.586  12.153 -0.4143  0.5236 -0.1996
 7578TIP3    H144149   3.114   3.557  12.064 -2.3688  0.9661  0.0320
 7578TIP3    H244150   3.146   3.506  12.203  2.1643  0.2749 -1.1007
 7579TIP3   OH244151   4.949   5.805  14.469  0.1389  0.5718  0.6960
 7579TIP3    H144152   5.031   5.854  14.480  0.6510 -0.1375  0.0429
 7579TIP3    H244153   4.898   5.828  14.547  1.3119  0.3260  1.5577
 7580TIP3   OH244154   2.153   1.277   4.168  0.4897  0.3401 -0.0129
 7580TIP3    H144155   2.147   1.182   4.181  0.6268  0.5030  1.4203
 7580TIP3    H244156   2.246   1.297   4.180  0.3768  0.7285  0.2386
 7581TIP3   OH244157   1.968   4.723  11.972 -0.3799  0.2255 -1.1057
 7581TIP3    H144158   1.980   4.643  11.921  1.0147  0.9269 -1.9279
 7581TIP3    H244159   1.890   4.764  11.933 -0.0513  0.1431 -1.8645
 7582TIP3   OH244160   6.438   0.363  15.934 -0.0462  1.2346 -0.2343
 7582TIP3    H144161   6.518   0.395  15.894  0.4023  0.1575 -0.2168
 7582TIP3    H244162   6.458   0.357  16.028 -0.1872  1.0977 -0.2123
 7583TIP3   OH244163   1.479   0.781  11.506 -0.1672  0.0110  0.1399
 7583TIP3    H144164   1.440   0.868  11.513  1.1312  0.5326  1.3626
 7583TIP3    H244165   1.475   0.761  11.412 -1.9018  0.6802  0.0294
 7584TIP3   OH244166   4.569   3.692  16.952 -0.0993 -0.3074  0.0531
 7584TIP3    H144167   4.607   3.759  16.894  2.6180 -2.2659 -0.6649
 7584TIP3    H244168   4.507   3.645  16.896  0.9733 -0.8638 -0.7201
 7585TIP3   OH244169   2.034   0.852   2.565 -0.1844  0.1719 -0.0302
 7585TIP3    H144170   1.984   0.779   2.600 -0.1528 -0.5791 -1.4630
 7585TIP3    H244171   2.125   0.821   2.563 -0.0878  0.4550 -0.1186
 7586TIP3   OH244172   6.092   0.382   2.028 -0.5997 -0.7297 -0.5259
 7586TIP3    H144173   6.179   0.391   2.066 -1.1418  2.4939  0.2265
 7586TIP3    H244174   6.103   0.318   1.956  2.3081 -0.4961 -0.3879
 7587TIP3   OH244175   6.309   1.538   3.820 -0.1827  0.0096 -0.0883
 7587TIP3    H144176   6.381   1.554   3.880  0.5495 -0.9248 -0.6930
 7587TIP3    H244177   6.287   1.446   3.833 -1.7117  0.4373  0.5514
 7588TIP3   OH244178   3.145   6.236  14.625  0.0767 -0.1654  0.2199
 7588TIP3    H144179   3.197   6.268  14.700 -0.5257 -0.5997  0.8368
 7588TIP3    H244180   3.125   6.145  14.648 -0.3684 -0.2100 -0.3421
 7589TIP3   OH244181   3.688   5.010  12.849 -0.8374 -0.2954 -0.2592
 7589TIP3    H144182   3.692   5.028  12.943  0.4625  0.7718 -0.4820
 7589TIP3    H244183   3.684   5.097  12.808  4.7753 -0.2055 -1.3624
 7590TIP3   OH244184   1.980   3.504   3.630  0.5835 -0.6904 -0.1572
 7590TIP3    H144185   1.919   3.487   3.701  0.6718 -3.4311 -0.6210
 7590TIP3    H244186   1.947   3.452   3.557  2.4709 -0.8183 -0.9845
 7591TIP3   OH244187   2.824   3.494   0.014 -0.2358 -0.3255 -0.1010
 7591TIP3    H144188   2.780   3.413   0.036 -1.3477  0.4373  0.5836
 7591TIP3    H244189   2.823   3.497  -0.082 -0.0320 -1.1779 -0.1386
 7592TIP3   OH244190   3.316   6.020   5.403 -0.0830  0.2942  0.2863
 7592TIP3    H144191   3.246   6.016   5.336 -0.2597 -1.2928  0.5216
 7592TIP3    H244192   3.272   6.053   5.481 -0.5124 -0.4120  0.3507
 7593TIP3   OH244193   0.018   1.693  12.784 -0.2308  0.0641 -0.1067
 7593TIP3    H144194   0.030   1.661  12.873  1.5731  1.5638  0.2457
 7593TIP3    H244195   0.092   1.751  12.769 -1.1915  0.8643 -2.1405
 7594TIP3   OH244196   5.928   1.675  16.802 -0.1717 -0.3867  0.5101
 7594TIP3    H144197   5.842   1.682  16.845  0.4485  1.0994  1.6124
 7594TIP3    H244198   5.988   1.655  16.874  0.4157 -1.3900 -0.2498
 7595TIP3   OH244199   2.204   2.881  17.253 -0.0422  0.0653 -0.1408
 7595TIP3    H144200   2.261   2.946  17.212 -0.8193  1.6936  1.2844
 7595TIP3    H244201   2.117   2.900  17.218 -0.3110 -0.0774  0.4473
 7596TIP3   OH244202   1.094   6.550  15.045  0.3166  0.3731 -0.1276
 7596TIP3    H144203   1.155   6.624  15.053  0.6185 -0.0880  2.6871
 7596TIP3    H244204   1.020   6.574  15.100 -0.5002 -0.5828 -0.7844
 7597TIP3   OH244205   2.524   6.163  16.263 -0.0239  0.6780 -0.3519
 7597TIP3    H144206   2.511   6.171  16.357 -3.1460 -0.7085 -0.5366
 7597TIP3    H244207   2.570   6.080  16.252 -0.7741  0.2132 -0.0651
 7598TIP3   OH244208   1.693   2.981   0.922  0.3463  0.0335  0.2269
 7598TIP3    H144209   1.735   3.066   0.937 -0.2698  0.5205 -0.7057
 7598TIP3    H244210   1.705   2.933   1.004  1.7232  0.5752  0.3745
 7599TIP3   OH244211   5.678   2.230  16.032  0.3733  0.0031  0.2322
 7599TIP3    H144212   5.741   2.160  16.019 -0.4010 -1.3846  3.0899
 7599TIP3    H244213   5.595   2.185  16.049 -0.7509  1.7110 -0.4167
 7600TIP3   OH244214   0.833   5.263   0.655  0.0643 -0.2073 -0.2653
 7600TIP3    H144215   0.791   5.258   0.569  0.9338  1.0233 -0.7919
 7600TIP3    H244216   0.770   5.310   0.710 -0.1503 -0.2822 -0.4462
 7601TIP3   OH244217   5.259   1.347   1.133  0.4024 -0.3919 -0.1065
 7601TIP3    H144218   5.209   1.362   1.214  0.2879 -4.0075  0.6543
 7601TIP3    H244219   5.210   1.280   1.086  1.7637 -0.1342 -2.0182
 7602TIP3   OH244220   5.416   5.685   3.324 -0.4149 -0.8464  0.2914
 7602TIP3    H144221   5.505   5.675   3.358 -0.5929  0.3715  1.1618
 7602TIP3    H244222   5.376   5.751   3.379 -1.0015  0.6323 -1.7758
 7603TIP3   OH244223   0.462   0.159   2.711  0.0031  0.4365  0.3437
 7603TIP3    H144224   0.500   0.117   2.634 -0.3424  0.5795  0.0948
 7603TIP3    H244225   0.460   0.090   2.778  0.8354  0.4649  0.4074
 7604TIP3   OH244226   4.674   2.847   3.633 -0.4327  0.4884 -0.0167
 7604TIP3    H144227   4.750   2.799   3.667  0.3497  1.4426 -0.3714
 7604TIP3    H244228   4.708   2.895   3.558 -1.5538  0.4175 -0.5854
 7605TIP3   OH244229   5.765   3.165  15.734 -0.2547 -0.0663 -0.0437
 7605TIP3    H144230   5.701   3.141  15.667  0.2903  1.4420 -1.1742
 7605TIP3    H244231   5.712   3.181  15.812 -0.9485 -1.4498 -0.2018
 7606TIP3   OH244232   3.324   3.700  13.638 -0.5623 -0.5540 -0.0541
 7606TIP3    H144233   3.285   3.707  13.551 -0.6159 -0.8578 -0.0541
 7606TIP3    H244234   3.409   3.660  13.623  0.4649  1.5663 -0.2459
 7607TIP3   OH244235   3.568   5.512  14.074  0.0164  0.0745  0.1767
 7607TIP3    H144236   3.514   5.542  14.147 -2.1658 -0.8805 -0.9627
 7607TIP3    H244237   3.624   5.444  14.111 -1.2908 -0.6234  0.9239
 7608TIP3   OH244238   1.536   4.198   0.088  0.1186  0.7221  0.6167
 7608TIP3    H144239   1.441   4.208   0.093  0.0325 -0.1035  0.7517
 7608TIP3    H244240   1.552   4.165  -0.000  0.1131 -0.7739  1.1513
 7609TIP3   OH244241   0.559   5.067  14.438  0.1672  0.4911 -0.2945
 7609TIP3    H144242   0.545   5.129  14.509  0.1401  1.4184 -1.0781
 7609TIP3    H244243   0.652   5.078  14.415  0.5334 -0.7784  0.4674
 7610TIP3   OH244244   4.334   3.303  12.653  0.5666 -0.2053  0.1059
 7610TIP3    H144245   4.373   3.317  12.740  2.0552 -1.1720 -0.3831
 7610TIP3    H244246   4.354   3.212  12.632 -2.1422 -0.8286 -0.1266
 7611TIP3   OH244247   5.843   5.521   0.085  0.1660 -0.1120 -0.5195
 7611TIP3    H144248   5.801   5.552   0.006 -0.6156  1.1978  0.3774
 7611TIP3    H244249   5.920   5.473   0.054 -1.2344 -1.4518 -2.1366
 7612TIP3   OH244250   4.390   1.048  17.282  0.6678  0.4829 -0.2948
 7612TIP3    H144251   4.324   0.979  17.287 -1.2237  2.3075  1.9038
 7612TIP3    H244252   4.364   1.102  17.207  0.8205  0.1411 -0.5994
 7613TIP3   OH244253   2.839   1.871  13.116 -0.7488 -0.2482  0.2217
 7613TIP3    H144254   2.866   1.870  13.024  1.2522  2.0691  0.6699
 7613TIP3    H244255   2.922   1.870  13.165 -1.5255  2.6571  1.8344
 7614TIP3   OH244256   3.225   0.039  16.465 -0.2733  0.0669 -0.3554
 7614TIP3    H144257   3.245   0.114  16.522  3.5759 -0.4690 -0.7890
 7614TIP3    H244258   3.264   0.062  16.381 -0.0085 -1.9550 -0.8182
 7615TIP3   OH244259   4.509   1.226   2.182 -0.1967  0.5382 -0.1699
 7615TIP3    H144260   4.573   1.295   2.165  0.6290  0.3614  1.9198
 7615TIP3    H244261   4.425   1.268   2.165  0.2972  2.0195  0.7932
 7616TIP3   OH244262   5.402   2.049   4.390 -0.0771  0.1197  0.1339
 7616TIP3    H144263   5.435   2.071   4.477  0.6359 -3.1978  0.8406
 7616TIP3    H244264   5.437   2.117   4.333 -0.7321  2.5150  2.4149
 7617TIP3   OH244265   0.106   2.100  15.612 -0.5253 -0.5694 -0.1459
 7617TIP3    H144266   0.023   2.056  15.596 -0.3474 -1.0508  0.2532
 7617TIP3    H244267   0.102   2.129  15.703  0.1693 -1.5370  0.2118
 7618TIP3   OH244268   1.694   2.239  14.446 -0.4610 -0.4660  0.1355
 7618TIP3    H144269   1.615   2.190  14.424 -0.1789 -1.4181  1.1347
 7618TIP3    H244270   1.675   2.276  14.533 -0.0914 -0.0623  0.0495
 7619TIP3   OH244271   1.875   1.069   5.971 -0.2730 -0.2484  0.3787
 7619TIP3    H144272   1.838   1.011   5.905  0.5150 -0.3109 -0.0238
 7619TIP3    H244273   1.964   1.086   5.940  0.1392 -0.3624  1.4806
 7620TIP3   OH244274   5.447   0.080  14.518  0.3787  0.3260 -0.1763
 7620TIP3    H144275   5.365   0.115  14.483  0.6508  0.4848 -0.6513
 7620TIP3    H244276   5.507   0.079  14.444  1.1314  1.2125  0.3917
 7621TIP3   OH244277   0.938   5.152  10.907  0.4175  0.0898 -0.4275
 7621TIP3    H144278   0.851   5.118  10.885  0.7472 -0.3587 -1.0628
 7621TIP3    H244279   0.999   5.100  10.854  0.9731  1.3002 -1.0187
 7622TIP3   OH244280   5.023   4.923  13.529  0.0340 -0.2304 -0.7050
 7622TIP3    H144281   5.060   4.853  13.474  0.4749 -1.4937  1.1009
 7622TIP3    H244282   5.085   4.932  13.601 -1.4907 -0.0663  0.6546
 7623TIP3   OH244283   4.385   5.612   1.746 -0.2997  0.0147 -0.5902
 7623TIP3    H144284   4.457   5.626   1.807 -0.5641  0.8415 -0.4555
 7623TIP3    H244285   4.406   5.668   1.671 -1.5682  1.5116  0.1149
 7624TIP3   OH244286   1.762   4.783  11.810 -0.0765 -0.0282 -0.0528
 7624TIP3    H144287   1.668   4.769  11.817 -0.0185  0.1397  1.3790
 7624TIP3    H244288   1.770   4.870  11.771 -0.4902 -0.4393 -1.0910
 7625TIP3   OH244289   0.363   5.845   3.350 -0.0491  0.1105 -0.1633
 7625TIP3    H144290   0.410   5.764   3.372  1.7947  0.6281 -1.8928
 7625TIP3    H244291   0.422   5.915   3.379 -0.1654  0.7947 -1.5221
 7626TIP3   OH244292   4.538   5.910   4.931  0.2452 -0.0236 -0.2979
 7626TIP3    H144293   4.604   5.874   4.991  0.3074 -0.2947 -0.5240
 7626TIP3    H244294   4.456   5.904   4.979  0.4217  0.5676  0.0902
 7627TIP3   OH244295   2.243   2.757   4.845 -0.5004  0.1621 -0.1310
 7627TIP3    H144296   2.153   2.788   4.854 -1.1592 -2.1119  2.9496
 7627TIP3    H244297   2.292   2.806   4.912 -0.0962 -0.5540  0.1074
 7628TIP3   OH244298   6.706   2.947  14.153  0.0295 -0.0112 -0.1466
 7628TIP3    H144299   6.730   3.036  14.181  2.1802 -0.3786 -0.6872
 7628TIP3    H244300   6.701   2.953  14.057  0.7438 -0.5739 -0.2297
 7629TIP3   OH244301   4.596   3.502  17.142  0.9219  0.4451  0.2441
 7629TIP3    H144302   4.583   3.418  17.099  2.0918 -0.0208  0.7654
 7629TIP3    H244303   4.607   3.564  17.070  1.5817 -0.1142 -0.1482
 7630TIP3   OH244304   2.676   6.262   0.353 -0.2018  0.3920  0.2938
 7630TIP3    H144305   2.609   6.310   0.304 -1.5383  0.9916  2.5604
 7630TIP3    H244306   2.708   6.325   0.418  1.1730 -0.4903  0.5017
 7631TIP3   OH244307   0.436   4.337   0.870 -0.6085 -0.0684 -0.1164
 7631TIP3    H144308   0.353   4.330   0.918 -1.1094 -1.7722 -1.1776
 7631TIP3    H244309   0.418   4.300   0.784  1.2520 -0.4434 -0.3910
 7632TIP3   OH244310   0.943   2.303   0.374  0.1905  0.8208  0.2231
 7632TIP3    H144311   0.899   2.387   0.362  0.1466  0.7319 -0.2637
 7632TIP3    H244312   1.034   2.321   0.351  0.4110  0.9966  1.1941
 7633TIP3   OH244313   3.857   0.542  14.334  0.0738 -0.2713  0.1856
 7633TIP3    H144314   3.903   0.589  14.403 -0.5233 -0.5575  0.7905
 7633TIP3    H244315   3.841   0.608  14.266  1.2915 -0.1521 -0.0161
 7634TIP3   OH244316   3.799   0.522  16.029  0.0878  0.7015  0.0075
 7634TIP3    H144317   3.878   0.470  16.018  0.0066  0.6241 -0.2202
 7634TIP3    H244318   3.745   0.472  16.091  0.0348  0.5429 -0.1662
 7635TIP3   OH244319   2.886   0.080  16.744  0.3846 -0.0153 -0.0144
 7635TIP3    H144320   2.842   0.147  16.795 -0.2845 -1.2771  1.1191
 7635TIP3    H244321   2.966   0.061  16.793  2.1488  2.0343 -1.8938
 7636TIP3   OH244322   2.929   2.287  15.337  0.1762 -0.3321 -0.2601
 7636TIP3    H144323   2.945   2.209  15.283 -0.0369 -1.1689  0.8509
 7636TIP3    H244324   3.017   2.318  15.359  0.3219 -1.7360  1.3317
 7637TIP3   OH244325   0.026   3.058  15.338 -0.3764 -0.0259  0.6633
 7637TIP3    H144326   0.028   3.099  15.425  0.2751 -0.8411  1.0413
 7637TIP3    H244327  -0.050   2.999  15.342  0.1105 -0.6421  0.9563
 7638TIP3   OH244328   1.487   6.127   1.953  0.2717 -0.5586 -0.0895
 7638TIP3    H144329   1.464   6.040   1.922  0.8700 -1.6299  2.2238
 7638TIP3    H244330   1.577   6.141   1.923  0.5922 -1.2584  0.5305
 7639TIP3   OH244331   2.919   1.211   3.475 -0.1081 -0.2122  0.5693
 7639TIP3    H144332   2.953   1.271   3.409  1.5527  1.2457  2.5983
 7639TIP3    H244333   2.836   1.181   3.440 -0.1254  1.8631 -1.3844
 7640TIP3   OH244334   6.014   0.632  10.827  0.1061  0.1702 -0.2378
 7640TIP3    H144335   5.991   0.725  10.829 -2.5377 -0.4130  0.2971
 7640TIP3    H244336   5.951   0.593  10.766 -0.6478 -1.6402  1.6002
 7641TIP3   OH244337   0.819   3.728   2.429 -0.1426  0.1963 -0.1850
 7641TIP3    H144338   0.803   3.673   2.353  1.3087  0.7580 -0.9450
 7641TIP3    H244339   0.905   3.701   2.461 -0.4094  0.4801  0.8072
 7642TIP3   OH244340   3.519   4.648   6.419  0.2579 -0.0661 -0.0849
 7642TIP3    H144341   3.444   4.684   6.372 -0.3764  0.3807  1.2208
 7642TIP3    H244342   3.498   4.555   6.430  0.0581 -0.0151 -0.0318
 7643TIP3   OH244343   6.158   4.273   6.304 -0.2693 -0.0126  0.3180
 7643TIP3    H144344   6.197   4.329   6.237  2.6946 -1.7532  0.3800
 7643TIP3    H244345   6.136   4.332   6.375 -0.0810  1.4368 -0.7926
 7644TIP3   OH244346   2.952   5.715   2.794  0.5336  0.4347 -0.3480
 7644TIP3    H144347   2.932   5.688   2.883  0.2556  2.5680  0.2966
 7644TIP3    H244348   3.041   5.749   2.799  0.7100  0.0819 -1.0080
 7645TIP3   OH244349   4.429   3.950  11.421  0.0709 -0.9116  0.0480
 7645TIP3    H144350   4.409   3.954  11.515  1.9930 -0.3882  0.4783
 7645TIP3    H244351   4.370   4.014  11.381 -0.2855 -0.6397  0.9813
 7646TIP3   OH244352   3.411   4.517  13.344  1.0280  0.1164 -0.1686
 7646TIP3    H144353   3.367   4.574  13.407  0.3793 -2.6152  2.0486
 7646TIP3    H244354   3.340   4.477  13.294  1.3464 -0.0319 -0.5049
 7647TIP3   OH244355   3.416   3.650   5.542 -0.3382 -0.3349  0.4771
 7647TIP3    H144356   3.412   3.563   5.584 -1.1486 -0.7720 -0.4778
 7647TIP3    H244357   3.433   3.710   5.614 -1.0748 -1.1427  1.3501
 7648TIP3   OH244358   2.566   2.733  12.430 -0.2197 -0.0441  0.1884
 7648TIP3    H144359   2.634   2.671  12.456  0.1999  0.5625  0.5589
 7648TIP3    H244360   2.504   2.733  12.503 -1.6181 -1.9554 -0.9035
 7649TIP3   OH244361   2.391   6.419  13.211  0.1361 -0.0096 -0.0632
 7649TIP3    H144362   2.322   6.459  13.263 -0.7922 -2.5554  0.8360
 7649TIP3    H244363   2.458   6.395  13.275  1.0063  0.7215 -0.6756
 7650TIP3   OH244364   0.602   1.491   4.671  0.0092 -0.2860  0.7898
 7650TIP3    H144365   0.690   1.517   4.643 -0.6830 -0.3388 -1.7374
 7650TIP3    H244366   0.616   1.442   4.752  2.4073 -0.8926  0.1058
 7651TIP3   OH244367   5.230   3.570  14.921  0.0020 -0.1977  0.2216
 7651TIP3    H144368   5.222   3.503  14.989  1.6598 -0.3246  0.3206
 7651TIP3    H244369   5.252   3.650  14.969  1.3163 -0.3178 -0.1557
 7652TIP3   OH244370   1.098   3.782   2.052 -0.0468  0.1634 -0.0508
 7652TIP3    H144371   1.159   3.734   1.996  2.1336  1.2730  1.2482
 7652TIP3    H244372   1.113   3.874   2.032  0.1980  0.5435  1.7351
 7653TIP3   OH244373   5.321   1.908  16.209  0.4561 -0.0466 -0.5518
 7653TIP3    H144374   5.230   1.880  16.223  0.0172  1.9778  1.2148
 7653TIP3    H244375   5.368   1.827  16.189 -2.2682 -0.8440 -5.4782
 7654TIP3   OH244376   2.448   2.123  11.093 -0.4634  0.4265  0.0359
 7654TIP3    H144377   2.421   2.053  11.033  2.2020  0.8300 -1.8167
 7654TIP3    H244378   2.401   2.200  11.062 -0.0351  0.3693 -0.7805
 7655TIP3   OH244379   4.293   2.724   2.937  0.4659 -0.3768  0.2425
 7655TIP3    H144380   4.296   2.639   2.981 -1.4505 -0.4125  0.3977
 7655TIP3    H244381   4.330   2.785   3.001  1.9929 -1.0632  0.0745
 7656TIP3   OH244382   6.518   5.510  14.704 -0.6631 -0.2814 -0.0657
 7656TIP3    H144383   6.563   5.575  14.649 -0.0192  0.0681  0.8621
 7656TIP3    H244384   6.559   5.518  14.790 -0.7845 -1.7298  0.1434
 7657TIP3   OH244385   3.249   0.845  12.557  0.0595  0.0837 -0.9549
 7657TIP3    H144386   3.175   0.905  12.555  0.5771  0.9942  1.7945
 7657TIP3    H244387   3.313   0.882  12.497 -0.3422  1.3177 -0.6420
 7658TIP3   OH244388   3.031   6.032   2.557 -0.5739  0.3153 -0.3322
 7658TIP3    H144389   3.043   6.116   2.512 -1.7726  0.2794 -0.7714
 7658TIP3    H244390   3.088   5.971   2.510  0.8178  1.0015  0.4125
 7659TIP3   OH244391   2.410   0.403   5.466 -0.1437  0.1759 -0.0809
 7659TIP3    H144392   2.346   0.464   5.501 -0.1692 -0.2554  0.6341
 7659TIP3    H244393   2.471   0.387   5.538  0.1211 -0.2870 -0.3992
 7660TIP3   OH244394   1.152   0.977   3.755  0.6812 -0.0118 -0.1921
 7660TIP3    H144395   1.232   0.948   3.800  0.8885  1.9388  0.7816
 7660TIP3    H244396   1.081   0.954   3.816  0.5802 -0.8040 -0.5958
 7661TIP3   OH244397   6.012   4.693  14.897  0.5891 -0.4308  0.0108
 7661TIP3    H144398   6.023   4.601  14.872  1.8357  0.1941 -2.0056
 7661TIP3    H244399   5.991   4.690  14.990  2.3799 -2.6839  0.4376
 7662TIP3   OH244400   1.209   2.125  15.142 -0.0359  0.3099  0.5811
 7662TIP3    H144401   1.196   2.199  15.082 -2.9577 -0.2811  0.3582
 7662TIP3    H244402   1.216   2.049  15.084 -2.9254 -0.2708  0.8617
 7663TIP3   OH244403   1.709   5.877  12.659 -0.9823  0.0686 -0.4057
 7663TIP3    H144404   1.784   5.870  12.601 -0.2098  0.6824  0.5005
 7663TIP3    H244405   1.719   5.961  12.703 -2.0332  0.0244 -0.0396
 7664TIP3   OH244406   6.487   3.138  12.366  0.2603 -0.0839  0.2458
 7664TIP3    H144407   6.560   3.195  12.338 -0.7810  0.4879 -1.4670
 7664TIP3    H244408   6.481   3.072  12.297  0.4971 -1.4430  1.4735
 7665TIP3   OH244409   0.155   4.735   5.672 -0.1376  0.3884  0.3191
 7665TIP3    H144410   0.062   4.748   5.691 -0.0808  1.0894  0.1544
 7665TIP3    H244411   0.164   4.755   5.579  0.0719 -0.3055  0.1813
 7666TIP3   OH244412   1.966   6.292  12.136 -0.0492 -0.4938 -0.2624
 7666TIP3    H144413   1.886   6.259  12.096 -0.7989  0.1069  0.6746
 7666TIP3    H244414   1.937   6.366  12.189  1.1074 -0.3641  0.2217
 7667TIP3   OH244415   5.261   6.167  10.944  0.6984  0.2799 -0.1442
 7667TIP3    H144416   5.234   6.249  10.985  0.8928  1.6535 -2.5566
 7667TIP3    H244417   5.240   6.178  10.851  1.0957 -2.2701 -0.6241
 7668TIP3   OH244418   4.741   6.329   0.258  0.1526 -0.1000 -0.7171
 7668TIP3    H144419   4.802   6.365   0.323  0.2997  0.6822 -1.2688
 7668TIP3    H244420   4.797   6.285   0.194 -0.0097 -1.0957 -0.1909
 7669TIP3   OH244421   0.904   3.443   6.455 -0.4502 -0.0870  0.0675
 7669TIP3    H144422   0.925   3.459   6.547 -1.6791  0.1247  0.3326
 7669TIP3    H244423   0.989   3.441   6.411  0.1680  5.7632  0.1931
 7670TIP3   OH244424   2.014   0.970   1.035 -0.0999  0.3038 -0.0572
 7670TIP3    H144425   1.967   0.911   0.976  1.3848  0.7187 -1.7562
 7670TIP3    H244426   2.066   1.025   0.977  3.0985 -0.6427  1.6412
 7671TIP3   OH244427   5.203   2.845   5.521  0.4728 -0.4640  0.3201
 7671TIP3    H144428   5.213   2.929   5.567  0.1056 -0.3516  0.2026
 7671TIP3    H244429   5.290   2.824   5.489  0.3588  0.4515 -0.6545
 7672TIP3   OH244430   3.328   5.894   0.085 -0.3281 -0.4000  0.1773
 7672TIP3    H144431   3.307   5.806   0.115  1.1301 -1.5694 -1.9437
 7672TIP3    H244432   3.418   5.909   0.113 -0.0769 -0.1955 -0.6793
 7673TIP3   OH244433   1.803   0.467   1.443 -0.4013 -0.2041  0.1587
 7673TIP3    H144434   1.788   0.405   1.514  2.1448  0.5701  1.5082
 7673TIP3    H244435   1.862   0.533   1.480  1.3532  0.0668 -2.7347
 7674TIP3   OH244436   4.797   2.466  16.721  0.6156  0.3338 -0.1895
 7674TIP3    H144437   4.786   2.544  16.775  2.4583  1.2400 -1.0370
 7674TIP3    H244438   4.808   2.500  16.632  2.3511 -0.7851 -0.4545
 7675TIP3   OH244439   0.981   1.999   1.980 -0.1132 -0.4186 -0.2218
 7675TIP3    H144440   0.979   2.093   1.962  1.3102 -0.4771 -0.8256
 7675TIP3    H244441   1.028   1.961   1.905 -1.3270 -1.7174 -0.3774
 7676TIP3   OH244442   3.061   3.892  11.088  0.1546 -0.0901 -0.1379
 7676TIP3    H144443   3.102   3.938  11.015 -0.9063 -0.6914 -1.1446
 7676TIP3    H244444   3.022   3.814  11.049  1.3019 -1.5039  1.4143
 7677TIP3   OH244445   3.357   3.951  11.493 -0.1100 -0.1499  0.0098
 7677TIP3    H144446   3.335   3.942  11.400 -0.0203 -0.1511 -0.0107
 7677TIP3    H244447   3.334   3.866  11.532  0.5717 -0.4129 -0.1519
 7678TIP3   OH244448   5.851   1.015  11.805 -0.0625 -0.4458  0.7501
 7678TIP3    H144449   5.789   1.088  11.800 -0.2812 -0.6888 -0.3661
 7678TIP3    H244450   5.808   0.944  11.758  0.3410 -1.1605  1.4407
 7679TIP3   OH244451   4.411   3.551   2.233  0.1766 -0.3998  0.4648
 7679TIP3    H144452   4.503   3.565   2.214  0.3310 -0.7753  0.9273
 7679TIP3    H244453   4.395   3.599   2.314  0.0847 -0.7473  0.6538
 7680TIP3   OH244454   0.873   5.903   0.736  0.0665 -0.7654  0.1508
 7680TIP3    H144455   0.908   5.928   0.821  1.4899  0.2874 -0.7000
 7680TIP3    H244456   0.881   5.808   0.734 -0.4269 -0.8557  1.3479
 7681TIP3   OH244457   5.867   1.066  14.217 -0.1128  0.4361 -0.0429
 7681TIP3    H144458   5.889   1.157  14.238  0.6693  0.2703 -0.0991
 7681TIP3    H244459   5.951   1.020  14.220 -0.4332 -0.1953 -0.4702
 7682TIP3   OH244460   3.863   1.621  15.641 -0.1009  0.1821  0.0849
 7682TIP3    H144461   3.768   1.633  15.638 -0.5915 -2.9515 -0.5513
 7682TIP3    H244462   3.888   1.614  15.549  0.9529  1.9550  0.2060
 7683TIP3   OH244463   6.757   2.961  11.040  0.2043  0.1158 -0.3522
 7683TIP3    H144464   6.671   2.925  11.019  0.0917 -0.6580  1.3026
 7683TIP3    H244465   6.739   3.050  11.070 -0.3510 -0.7903  2.2336
 7684TIP3   OH244466   5.318   1.470  13.532 -0.5502 -0.2585 -0.3661
 7684TIP3    H144467   5.285   1.498  13.447  0.1380  0.4159 -0.4215
 7684TIP3    H244468   5.275   1.529  13.594 -0.9610 -0.6725 -0.2561
 7685TIP3   OH244469   3.749   0.272   0.395  0.4209 -0.1015  0.3556
 7685TIP3    H144470   3.700   0.280   0.476  1.6745 -1.9826  1.3888
 7685TIP3    H244471   3.704   0.330   0.333 -1.1244  0.6648  2.1044
 7686TIP3   OH244472   2.051   4.684  12.949 -0.1783 -0.6657 -0.5306
 7686TIP3    H144473   1.965   4.660  12.985 -0.7453 -0.8916 -1.9949
 7686TIP3    H244474   2.114   4.637  13.005 -0.8986  0.5622  1.4204
 7687TIP3   OH244475   0.392   3.098  11.932 -0.1651 -0.7756  0.0458
 7687TIP3    H144476   0.339   3.154  11.875  1.8432 -0.7679 -1.9602
 7687TIP3    H244477   0.346   3.099  12.016 -1.1038  2.5754 -0.3459
 7688TIP3   OH244478   1.545   3.174  14.986 -0.5526  0.1026 -0.7230
 7688TIP3    H144479   1.541   3.177  14.891 -1.6311 -0.5247 -0.7109
 7688TIP3    H244480   1.585   3.090  15.007 -1.5585 -0.3572 -0.6121
 7689TIP3   OH244481   5.531   1.628   5.949  0.3045 -0.4228 -0.4464
 7689TIP3    H144482   5.519   1.706   6.003  1.0217 -0.1375 -0.6910
 7689TIP3    H244483   5.560   1.561   6.011  0.7619 -0.1966 -0.4103
 7690TIP3   OH244484   0.629   3.171  16.031  0.2773  0.0758  0.4260
 7690TIP3    H144485   0.611   3.078  16.019  0.3720  0.2680 -1.5621
 7690TIP3    H244486   0.708   3.174  16.086 -0.3337 -0.9620  1.3945
 7691TIP3   OH244487   0.541   3.804  16.216  0.4530 -0.3119 -0.1030
 7691TIP3    H144488   0.580   3.799  16.129 -3.0948 -0.7354 -1.8403
 7691TIP3    H244489   0.525   3.898  16.229 -0.9860 -0.4179 -0.9353
 7692TIP3   OH244490   6.409   4.795  16.721 -0.3817 -0.2523 -0.0702
 7692TIP3    H144491   6.344   4.739  16.763  0.7687 -0.0784  2.0865
 7692TIP3    H244492   6.493   4.760  16.750  0.3937  1.9479  0.5131
 7693TIP3   OH244493   3.295   2.627   0.459  0.1792 -0.5265 -0.0783
 7693TIP3    H144494   3.262   2.559   0.400 -1.1473  0.4499 -0.4963
 7693TIP3    H244495   3.282   2.709   0.412 -0.0590  0.2021  1.1973
 7694TIP3   OH244496   0.339   6.335  16.174  0.1418 -0.1257  0.3981
 7694TIP3    H144497   0.426   6.297  16.162 -0.2620 -1.1924  0.6743
 7694TIP3    H244498   0.323   6.385  16.094 -0.2595 -2.5441 -1.1719
 7695TIP3   OH244499   2.338   5.562   3.769  0.2232  0.1736  0.3453
 7695TIP3    H144500   2.293   5.645   3.790 -1.2714 -0.5235  0.0793
 7695TIP3    H244501   2.327   5.509   3.848 -1.0376 -0.6448 -0.3410
 7696TIP3   OH244502   2.014   0.852  16.677 -0.3852  0.2370 -0.0611
 7696TIP3    H144503   1.989   0.776  16.624  0.3193  0.5833 -0.9136
 7696TIP3    H244504   2.101   0.877  16.644  0.1035  0.4348  1.3026
 7697TIP3   OH244505   1.930   3.439  10.834  0.0265 -0.2461 -0.0010
 7697TIP3    H144506   1.842   3.436  10.797 -0.0309 -0.4855  0.1570
 7697TIP3    H244507   1.986   3.459  10.760  0.0110 -1.5588 -0.3906
 7698TIP3   OH244508   6.425   3.610   5.443 -0.5857  0.5657 -0.0724
 7698TIP3    H144509   6.333   3.585   5.456 -0.6177  1.1229  0.8757
 7698TIP3    H244510   6.423   3.705   5.436 -0.1394  0.5369 -0.6420
 7699TIP3   OH244511   2.774   3.375  12.023 -0.0213 -0.3244  0.4804
 7699TIP3    H144512   2.780   3.282  12.000  0.2935  0.1431 -1.5479
 7699TIP3    H244513   2.865   3.404  12.029 -0.1196  0.0438  0.2005
 7700TIP3   OH244514   5.403   6.205  11.940 -0.0856  0.4906  0.1407
 7700TIP3    H144515   5.429   6.242  11.856  0.4059 -1.7439 -0.7679
 7700TIP3    H244516   5.485   6.185  11.984 -0.3345  0.7424  0.7281
 7701TIP3   OH244517   5.351   3.277  15.815 -0.2066 -0.3072  0.2252
 7701TIP3    H144518   5.437   3.243  15.789  0.1906  1.3100 -0.6762
 7701TIP3    H244519   5.364   3.309  15.905  0.5297  1.1323 -0.3617
 7702TIP3   OH244520   1.648   2.421  15.693 -0.8550 -0.2226  0.1599
 7702TIP3    H144521   1.586   2.380  15.633 -1.8381  0.4374  0.7063
 7702TIP3    H244522   1.601   2.496  15.730  0.4828  0.6747  0.1117
 7703TIP3   OH244523   2.675   2.984   3.106 -0.5224 -0.3160  0.3012
 7703TIP3    H144524   2.711   3.072   3.119 -0.5311 -0.1915 -0.5001
 7703TIP3    H244525   2.672   2.947   3.194 -3.7514  1.7272  1.2356
 7704TIP3   OH244526   4.659   6.698   3.847  0.3103 -0.5788  0.2004
 7704TIP3    H144527   4.606   6.662   3.918  1.3437 -2.0221  0.2786
 7704TIP3    H244528   4.602   6.693   3.770 -0.7649  0.8621  0.8653
 7705TIP3   OH244529   2.368   4.492  15.795  0.1430  0.5122  0.1400
 7705TIP3    H144530   2.284   4.473  15.754  0.5089 -1.6515  0.2607
 7705TIP3    H244531   2.433   4.464  15.732  0.8517  2.8879 -0.2754
 7706TIP3   OH244532   4.794   6.224  16.969  0.1489  0.0129  0.2494
 7706TIP3    H144533   4.834   6.233  17.056  1.7716  0.4686 -0.5154
 7706TIP3    H244534   4.753   6.309  16.953  1.1103  0.4374 -0.0213
 7707TIP3   OH244535   5.193   2.843  14.179 -0.2533  0.0654 -0.4199
 7707TIP3    H144536   5.183   2.765  14.234 -1.7341 -0.8103 -1.8318
 7707TIP3    H244537   5.230   2.909  14.237 -0.3261 -1.2569  1.2093
 7708TIP3   OH244538   5.020   6.548  17.069 -0.4438  0.0656  0.1276
 7708TIP3    H144539   4.994   6.634  17.037 -0.4512  0.0274  0.0318
 7708TIP3    H244540   5.005   6.552  17.164 -0.5955  0.1157  0.1019
 7709TIP3   OH244541   3.276   3.228   2.826  0.3251  0.0571 -0.1351
 7709TIP3    H144542   3.366   3.195   2.823  0.3595  0.1797 -0.5378
 7709TIP3    H244543   3.287   3.323   2.832  0.2289  0.1350 -0.9975
 7710TIP3   OH244544   5.461   4.212  11.829 -0.0233 -0.3788 -0.4491
 7710TIP3    H144545   5.509   4.151  11.773  0.5552 -0.4694  0.1352
 7710TIP3    H244546   5.373   4.214  11.792  0.4138 -0.2316 -1.5209
 7711TIP3   OH244547   5.164   1.600   4.691 -0.3152  0.2583 -0.3764
 7711TIP3    H144548   5.189   1.664   4.757 -0.5682 -0.5045  0.4828
 7711TIP3    H244549   5.230   1.610   4.622  1.1216 -0.2394  0.8628
 7712TIP3   OH244550   0.649   4.170   5.976 -0.2330  0.5969  0.2167
 7712TIP3    H144551   0.660   4.247   6.033  0.8678  1.5420 -1.2043
 7712TIP3    H244552   0.595   4.201   5.904  1.0645  0.3785 -0.8944
 7713TIP3   OH244553   5.760   6.712  11.677 -0.1306  0.2442  0.3756
 7713TIP3    H144554   5.786   6.681  11.763 -0.3162  1.0439  0.7268
 7713TIP3    H244555   5.715   6.795  11.693  0.0742  0.5449 -0.5094
 7714TIP3   OH244556   3.573   4.671   0.248  0.1753  0.6465 -0.5498
 7714TIP3    H144557   3.658   4.645   0.284 -0.3744  2.2897  2.1556
 7714TIP3    H244558   3.509   4.637   0.310 -0.8919  2.7762 -0.4021
 7715TIP3   OH244559   6.196   6.736  11.743  0.0770 -0.2024 -0.7406
 7715TIP3    H144560   6.281   6.778  11.754 -0.1223 -0.0207  0.1845
 7715TIP3    H244561   6.132   6.805  11.760 -0.2524 -0.7329  0.3036
 7716TIP3   OH244562   0.764   0.297   3.358 -0.0390  0.4241  0.0786
 7716TIP3    H144563   0.721   0.381   3.377 -0.1693  0.6242 -1.0271
 7716TIP3    H244564   0.853   0.321   3.331  0.9286  0.0017  2.5706
 7717TIP3   OH244565   0.359   2.278   1.954 -0.3455 -0.1742 -0.2722
 7717TIP3    H144566   0.357   2.373   1.961  0.2972 -0.0507 -1.5177
 7717TIP3    H244567   0.294   2.247   2.017 -0.9067  1.1048 -0.2130
 7718TIP3   OH244568   6.753   6.606  13.417  0.2296  0.6962  0.3632
 7718TIP3    H144569   6.791   6.550  13.483  0.4628 -0.6773 -0.8795
 7718TIP3    H244570   6.822   6.617  13.351 -0.0044  1.9879  0.3023
 7719TIP3   OH244571   1.431   5.817   5.429  0.0964  0.6637 -0.5268
 7719TIP3    H144572   1.345   5.844   5.398  0.4143  0.8394 -1.2742
 7719TIP3    H244573   1.454   5.882   5.495 -0.5932  0.2802  0.1017
 7720TIP3   OH244574   2.310   5.230  13.193  0.6302  0.0900 -0.0531
 7720TIP3    H144575   2.403   5.212  13.203  0.5745 -0.1829 -0.0157
 7720TIP3    H244576   2.306   5.310  13.140  0.9580  1.9261  2.4927
 7721TIP3   OH244577   6.542   4.776  11.936  0.4784 -0.4086 -0.0304
 7721TIP3    H144578   6.492   4.831  11.875 -1.4813 -0.9204  1.0329
 7721TIP3    H244579   6.634   4.798  11.918 -0.1148  0.8458 -1.8209
 7722TIP3   OH244580   2.040   6.706  11.967 -0.5128  0.0968  0.0938
 7722TIP3    H144581   1.990   6.722  11.887 -0.3029 -2.2766 -0.5977
 7722TIP3    H244582   2.124   6.747  11.953 -0.9181  0.7841 -0.3581
 7723TIP3   OH244583   4.515   6.053   4.687  0.0469  0.6200 -0.1258
 7723TIP3    H144584   4.536   6.145   4.671 -2.8207  1.3300 -0.1687
 7723TIP3    H244585   4.522   6.043   4.782  0.4787  0.8096 -0.1310
 7724TIP3   OH244586   0.014   2.559  11.764  0.0377  0.0791 -0.2720
 7724TIP3    H144587   0.064   2.633  11.730 -1.8063  1.4148 -0.2489
 7724TIP3    H244588   0.047   2.546  11.853 -0.7843  2.1042  0.3896
 7725TIP3   OH244589   4.044   0.829   3.522  0.2525  0.1629  0.3870
 7725TIP3    H144590   4.139   0.822   3.510  0.6711  0.5853  2.8606
 7725TIP3    H244591   4.034   0.871   3.608 -2.1882  0.8251 -0.1425
 7726TIP3   OH244592   4.182   1.262  15.451  0.2853 -0.2428  0.2811
 7726TIP3    H144593   4.215   1.306  15.373  2.3038 -0.7586  0.7840
 7726TIP3    H244594   4.260   1.230  15.496 -0.9675 -3.5078  0.4388
 7727TIP3   OH244595   0.461   4.723  15.668 -0.3494 -0.1633 -0.2718
 7727TIP3    H144596   0.398   4.784  15.708 -1.7808 -0.3902 -2.0519
 7727TIP3    H244597   0.414   4.685  15.594  1.9733 -0.1413 -1.8756
 7728TIP3   OH244598   4.268   4.895  11.982 -0.0486 -0.1009 -0.2867
 7728TIP3    H144599   4.211   4.930  12.050 -2.3950  1.4526 -2.8531
 7728TIP3    H244600   4.262   4.800  11.992 -1.3710  0.0663  0.8530
 7729TIP3   OH244601   0.777   2.455  13.412 -0.1656 -0.8460  0.0159
 7729TIP3    H144602   0.870   2.472  13.426 -0.8109  3.4253  0.4426
 7729TIP3    H244603   0.750   2.406  13.490  1.2062  0.3941  1.3379
 7730TIP3   OH244604   4.932   5.914  13.302  0.0437  0.2858  0.2075
 7730TIP3    H144605   4.867   5.903  13.232  1.5707 -2.5575 -0.9229
 7730TIP3    H244606   4.983   5.990  13.276 -0.9030  0.7185 -0.4556
 7731TIP3   OH244607   6.012   4.409  14.888 -0.2076  0.1468  0.0137
 7731TIP3    H144608   6.105   4.398  14.910 -0.4989  0.4481  1.5133
 7731TIP3    H244609   6.005   4.379  14.798  1.2890 -0.1886 -0.0170
 7732TIP3   OH244610   6.084   6.408  13.087  0.4166 -0.0730  1.0804
 7732TIP3    H144611   5.999   6.441  13.057  0.8081  0.4239  0.4748
 7732TIP3    H244612   6.126   6.376  13.007  1.7503  1.8638  0.9408
 7733TIP3   OH244613   4.972   1.443  14.770 -0.3696  0.0678 -0.5030
 7733TIP3    H144614   4.919   1.411  14.843 -0.2050 -0.0897 -0.4536
 7733TIP3    H244615   4.913   1.440  14.694 -0.3190 -0.4642 -0.5230
 7734TIP3   OH244616   2.019   3.314  12.450  0.2555 -0.5421  0.6775
 7734TIP3    H144617   2.089   3.291  12.511  1.6751 -1.2343 -1.0981
 7734TIP3    H244618   2.054   3.389  12.401 -0.1397 -1.0246 -0.3726
 7735TIP3   OH244619   2.675   6.475   1.723  0.0118 -0.1515 -0.1630
 7735TIP3    H144620   2.593   6.475   1.771  1.4027  1.0902  2.4363
 7735TIP3    H244621   2.741   6.451   1.789  1.7999 -0.7064 -2.0480
 7736TIP3   OH244622   2.643   4.095   0.305 -0.0426 -0.2449  0.1791
 7736TIP3    H144623   2.680   4.008   0.317  2.0035  0.7700  1.9059
 7736TIP3    H244624   2.549   4.082   0.315  0.0759 -2.4264 -0.9450
 7737TIP3   OH244625   0.101   6.579   3.965 -0.0856  0.2119  0.3237
 7737TIP3    H144626   0.094   6.655   4.023 -0.2357  0.6152 -0.2132
 7737TIP3    H244627   0.022   6.528   3.983 -0.9369  1.1364 -0.6241
 7738TIP3   OH244628   6.193   1.813  14.121 -0.3881 -0.0954 -0.3048
 7738TIP3    H144629   6.112   1.776  14.154  0.3970 -1.3245  0.3283
 7738TIP3    H244630   6.219   1.755  14.049  0.6160 -0.5384  0.3882
 7739TIP3   OH244631   0.316   6.074  10.619  0.3881 -0.2231 -0.1225
 7739TIP3    H144632   0.345   6.015  10.549  1.9058 -0.2459  0.4952
 7739TIP3    H244633   0.340   6.161  10.588  0.0438 -0.1266 -0.1192
 7740TIP3   OH244634   1.386   4.894  11.415  0.9576 -0.1412 -0.0611
 7740TIP3    H144635   1.481   4.891  11.423  0.9659  1.5295  0.8362
 7740TIP3    H244636   1.366   4.986  11.397 -0.5830 -0.1641  1.2797
 7741TIP3   OH244637   1.366   4.062  16.819 -0.4621  0.0489 -0.0639
 7741TIP3    H144638   1.445   4.012  16.838 -0.5124  0.2850  0.8292
 7741TIP3    H244639   1.295   3.998  16.827 -0.2551 -0.6474 -2.8535
 7742TIP3   OH244640   0.957   0.892  17.369  0.7677  0.0493 -0.5055
 7742TIP3    H144641   1.005   0.940  17.302  1.3864  0.4763  0.2340
 7742TIP3    H244642   0.900   0.957  17.409  1.3551  0.1062  0.2609
 7743TIP3   OH244643   0.988   5.053   2.821 -0.1995 -0.0459  0.4152
 7743TIP3    H144644   0.941   5.013   2.894 -0.9566 -0.1000 -0.0914
 7743TIP3    H244645   0.920   5.078   2.759  0.5452 -2.0944 -1.3482
 7744TIP3   OH244646   5.543   1.822  12.413 -0.2305  0.0544  0.0344
 7744TIP3    H144647   5.476   1.803  12.479 -0.7433 -1.0504 -0.7668
 7744TIP3    H244648   5.625   1.791  12.453 -0.2788  0.7732  0.7349
 7745TIP3   OH244649   1.251   3.400   5.651  0.4217 -0.2251  0.8292
 7745TIP3    H144650   1.288   3.405   5.739  1.9652 -0.2314  0.2198
 7745TIP3    H244651   1.300   3.466   5.601 -1.2731  0.6543  0.2447
 7746TIP3   OH244652   4.334   0.693   5.195 -0.2668 -0.1392  0.0016
 7746TIP3    H144653   4.319   0.756   5.125  0.8973  0.0511 -0.0953
 7746TIP3    H244654   4.344   0.609   5.149  1.1442  0.0814 -0.1573
 7747TIP3   OH244655   0.999   0.473  13.067  0.6714 -0.1582 -0.1709
 7747TIP3    H144656   0.926   0.416  13.042  0.4372  0.3918 -0.7448
 7747TIP3    H244657   1.075   0.434  13.025  0.4336  0.2161 -0.9537
 7748TIP3   OH244658   1.387   1.671  12.843  0.1291  0.2299 -0.5166
 7748TIP3    H144659   1.362   1.705  12.757  0.5815  2.3916  0.1289
 7748TIP3    H244660   1.362   1.741  12.904 -0.8875 -1.5581  1.2312
 7749TIP3   OH244661   4.243   6.256  11.523  0.0858 -0.1536  0.8929
 7749TIP3    H144662   4.186   6.199  11.471  0.5496 -0.5001  0.7550
 7749TIP3    H244663   4.184   6.323  11.559 -0.3393 -0.2831  0.4434
 7750TIP3   OH244664   2.695   4.938   4.561 -0.6341  0.7199  0.3487
 7750TIP3    H144665   2.672   4.889   4.482 -0.6120  1.4573 -0.1225
 7750TIP3    H244666   2.772   4.988   4.537  0.4940 -0.4305  1.4030
 7751TIP3   OH244667   3.701   4.073   3.139  0.0029  0.5778  0.1478
 7751TIP3    H144668   3.710   4.156   3.186  0.2911  0.1736  0.8212
 7751TIP3    H244669   3.617   4.038   3.169  0.3380  0.1651  0.6195
 7752TIP3   OH244670   6.498   0.951  15.842  0.0778  0.2128  0.2257
 7752TIP3    H144671   6.550   0.926  15.765 -0.3481 -0.5752  0.1720
 7752TIP3    H244672   6.562   0.982  15.905  0.8747 -2.3597  0.8095
 7753TIP3   OH244673   5.819   1.416  13.220 -0.1309 -0.0495  0.5589
 7753TIP3    H144674   5.910   1.441  13.209 -0.5250  0.1493 -3.7639
 7753TIP3    H244675   5.822   1.329  13.259  1.8529  0.1118  0.8338
 7754TIP3   OH244676   3.791   1.917   5.599  0.0178 -0.2164 -0.5432
 7754TIP3    H144677   3.731   1.919   5.674  0.9686 -2.3866  0.3692
 7754TIP3    H244678   3.876   1.891   5.637  1.2745  1.5507 -1.9617
 7755TIP3   OH244679   5.078   6.200  15.300  0.1484 -0.0213 -0.1907
 7755TIP3    H144680   5.112   6.265  15.239 -1.7948 -0.4609 -1.8303
 7755TIP3    H244681   5.076   6.119  15.249  1.6355 -1.2194  1.5208
 7756TIP3   OH244682   3.247   6.171   2.770  0.3132 -0.7031  0.0544
 7756TIP3    H144683   3.261   6.244   2.830  1.4244  0.0898 -1.1009
 7756TIP3    H244684   3.250   6.093   2.825 -0.2008  0.0659  1.2199
 7757TIP3   OH244685   5.194   4.417  12.722  0.5398  0.1668 -0.4722
 7757TIP3    H144686   5.175   4.325  12.741  1.2066  0.0556 -0.3215
 7757TIP3    H244687   5.195   4.422  12.626 -0.5453  0.2466 -0.4897
 7758TIP3   OH244688   1.682   6.678  15.486 -0.1707  0.0061 -0.1115
 7758TIP3    H144689   1.619   6.656  15.417  0.0491 -1.2091  0.0662
 7758TIP3    H244690   1.636   6.744  15.539 -0.5809  0.4858 -1.0449
 7759TIP3   OH244691   1.726   6.053  13.852 -0.1334 -0.2073  0.1584
 7759TIP3    H144692   1.676   6.050  13.770 -1.0499 -0.4494  0.7098
 7759TIP3    H244693   1.801   6.109  13.832 -1.4502  1.4923 -0.2487
 7760TIP3   OH244694   4.644   2.055  14.665 -0.4180  0.2598 -0.3002
 7760TIP3    H144695   4.555   2.084  14.644 -0.9796 -1.6050 -0.6656
 7760TIP3    H244696   4.638   2.018  14.753 -0.3519 -1.1614 -0.8659
 7761TIP3   OH244697   3.207   4.972  12.806  0.9559  0.1688  0.3668
 7761TIP3    H144698   3.266   4.993  12.734  1.6226 -0.7539  0.6251
 7761TIP3    H244699   3.121   5.000  12.776  0.7780 -2.3451 -1.8228
 7762TIP3   OH244700   1.177   0.565   3.748 -0.1388  0.1248  0.3012
 7762TIP3    H144701   1.149   0.614   3.671 -0.9399 -1.1362 -0.2480
 7762TIP3    H244702   1.127   0.483   3.745  0.5234 -0.3809  1.6334
 7763TIP3   OH244703   5.098   0.143  17.360  0.5402  0.5627  0.2294
 7763TIP3    H144704   5.172   0.167  17.305 -1.0990  1.7840 -1.5487
 7763TIP3    H244705   5.021   0.171  17.312 -1.0382  1.8056  3.1922
 7764TIP3   OH244706   1.931   1.326   6.104 -0.2941 -0.5257 -0.5990
 7764TIP3    H144707   1.864   1.368   6.159  2.4518  0.7426  2.1051
 7764TIP3    H244708   1.913   1.232   6.113 -1.1285 -0.2700  0.8855
 7765TIP3   OH244709   2.934   4.884  13.042  0.7865 -0.0487  0.4420
 7765TIP3    H144710   2.953   4.974  13.016 -1.5583  0.0860 -1.0193
 7765TIP3    H244711   2.919   4.838  12.960 -0.6449 -1.1412  1.2767
 7766TIP3   OH244712   4.286   6.541  12.075 -0.1159 -0.1801 -0.2245
 7766TIP3    H144713   4.270   6.514  12.165 -0.3349 -0.1042 -0.2413
 7766TIP3    H244714   4.264   6.464  12.023 -1.5336  0.2816 -0.3385
 7767TIP3   OH244715   3.861   4.109  14.589  0.3367  0.4236 -0.1551
 7767TIP3    H144716   3.892   4.088  14.677 -0.6604 -0.9908 -0.1046
 7767TIP3    H244717   3.816   4.192  14.598 -2.4735 -1.1123  1.4113
 7768TIP3   OH244718   5.857   3.519   4.974 -0.2001 -0.3996  0.0431
 7768TIP3    H144719   5.802   3.551   4.902  1.1909  3.4057  0.4407
 7768TIP3    H244720   5.946   3.519   4.938  0.3887  0.5518  1.4232
 7769TIP3   OH244721   1.272   3.675   4.473 -0.2381  0.2905  0.7216
 7769TIP3    H144722   1.324   3.682   4.553 -0.6734  0.6321  0.9794
 7769TIP3    H244723   1.297   3.752   4.422  0.3037 -0.1111  0.3600
 7770TIP3   OH244724   5.223   0.210  13.251 -0.5265  0.1189  0.5214
 7770TIP3    H144725   5.153   0.165  13.204  0.7038 -2.1553  0.6912
 7770TIP3    H244726   5.303   0.179  13.209  0.5509 -0.9935  3.1539
 7771TIP3   OH244727   0.075   0.675  17.099  0.3836 -0.2198 -0.1316
 7771TIP3    H144728  -0.013   0.708  17.114  1.2915  2.4054 -0.0645
 7771TIP3    H244729   0.091   0.690  17.006  1.0651  0.2362  0.0483
 7772TIP3   OH244730   6.189   6.525   1.558  0.3465 -0.1603  0.4720
 7772TIP3    H144731   6.141   6.595   1.602 -1.9226 -0.8069 -0.7983
 7772TIP3    H244732   6.280   6.555   1.555 -0.5609  2.7692 -0.1235
 7773TIP3   OH244733   5.837   2.563  12.014  0.6429 -0.2702  0.2086
 7773TIP3    H144734   5.761   2.511  11.987 -0.6592  1.0101  1.1686
 7773TIP3    H244735   5.865   2.523  12.096  0.4138 -0.2054  0.3206
 7774TIP3   OH244736   3.085   4.524  15.617 -0.1994 -0.3747 -0.0331
 7774TIP3    H144737   3.042   4.442  15.592 -0.3306 -0.3711  0.1791
 7774TIP3    H244738   3.020   4.592  15.598 -0.0832 -0.3164 -0.2278
 7775TIP3   OH244739   0.786   3.578  13.069 -0.4704  0.1753  0.5860
 7775TIP3    H144740   0.732   3.657  13.062  0.1820  0.6361  0.6849
 7775TIP3    H244741   0.728   3.514  13.111 -1.8957 -0.2568 -1.8671
 7776TIP3   OH244742   3.962   5.757  11.353  1.1614  0.2110  0.0588
 7776TIP3    H144743   3.968   5.795  11.265  0.4595  0.5713  0.1533
 7776TIP3    H244744   3.886   5.699  11.349  1.4761 -0.2164  0.2674
 7777TIP3   OH244745   3.512   1.334   6.575 -0.2498 -0.2937 -0.8994
 7777TIP3    H144746   3.477   1.409   6.623 -0.0365  1.1126 -2.8019
 7777TIP3    H244747   3.438   1.299   6.526 -0.2742 -1.1209 -0.2796
 7778TIP3   OH244748   1.955   4.350  16.965  0.2386  0.4979  0.0263
 7778TIP3    H144749   1.909   4.386  16.889 -3.9814 -0.9391  1.6486
 7778TIP3    H244750   1.957   4.422  17.028  1.7732  1.0154 -0.5513
 7779TIP3   OH244751   6.551   1.880   5.105  0.0841  0.0997 -0.4724
 7779TIP3    H144752   6.588   1.819   5.170 -0.4518 -1.5150 -1.6071
 7779TIP3    H244753   6.618   1.885   5.036  0.8318  2.1328  0.3292
 7780TIP3   OH244754   1.165   3.602  15.996 -0.3753  0.1857 -0.5737
 7780TIP3    H144755   1.249   3.590  15.951  0.1573 -0.7415  0.5877
 7780TIP3    H244756   1.121   3.518  15.988 -0.2403 -0.0197  0.6481
 7781TIP3   OH244757   6.453   6.008   5.544  0.4572  0.0510  0.1905
 7781TIP3    H144758   6.360   6.029   5.546  0.3119 -0.1959 -1.6881
 7781TIP3    H244759   6.488   6.062   5.472  1.8625  0.4607  1.1243
 7782TIP3   OH244760   6.606   6.174  10.479 -0.7778  0.4229  0.2098
 7782TIP3    H144761   6.666   6.130  10.539 -1.0841 -1.2164 -0.6362
 7782TIP3    H244762   6.530   6.195  10.533 -0.5567  0.0585  0.6735
 7783TIP3   OH244763   6.749   2.578   0.641 -0.2545  0.0255  0.6961
 7783TIP3    H144764   6.793   2.557   0.723 -0.1175  0.8980  0.8609
 7783TIP3    H244765   6.665   2.614   0.668 -0.7566 -0.9058  0.4044
 7784TIP3   OH244766   5.412   4.225   5.968 -0.3451 -0.3699  0.0525
 7784TIP3    H144767   5.499   4.200   5.938 -0.7555 -1.1527 -0.5120
 7784TIP3    H244768   5.424   4.313   6.005  0.9938 -1.0908  1.4671
 7785TIP3   OH244769   2.494   2.752   1.222 -0.3944 -0.4018 -0.4064
 7785TIP3    H144770   2.442   2.826   1.254  1.7002  1.0502 -0.1078
 7785TIP3    H244771   2.449   2.722   1.144 -2.2622  0.0256  0.4560
 7786TIP3   OH244772   2.759   5.567   3.445 -0.6109  0.5922  0.3127
 7786TIP3    H144773   2.704   5.571   3.523 -1.0875 -0.2475  0.0376
 7786TIP3    H244774   2.731   5.487   3.400  1.4976 -0.4167  0.6602
 7787TIP3   OH244775   5.088   2.683   5.698 -0.6181 -0.2949 -0.1285
 7787TIP3    H144776   5.157   2.700   5.763  2.1006 -2.1809 -2.2911
 7787TIP3    H244777   5.115   2.734   5.622 -1.6385 -1.0592 -1.0269
 7788TIP3   OH244778   4.425   0.649  11.926 -0.0303 -0.1539  0.0226
 7788TIP3    H144779   4.453   0.727  11.973 -0.5268  0.8729 -1.3493
 7788TIP3    H244780   4.341   0.626  11.966 -0.6877  0.9993 -0.6498
 7789TIP3   OH244781   2.495   0.678  11.976 -0.3943  0.1558 -0.0110
 7789TIP3    H144782   2.465   0.589  11.993  1.4298 -0.5670 -0.2725
 7789TIP3    H244783   2.590   0.673  11.987 -0.1000  1.7462 -1.4161
 7790TIP3   OH244784   6.242   4.181  12.486  0.3960 -0.2289  0.6688
 7790TIP3    H144785   6.300   4.231  12.543  1.6553  0.3970 -1.0914
 7790TIP3    H244786   6.210   4.244  12.422  1.4761 -1.4796 -1.1930
 7791TIP3   OH244787   2.221   6.316   5.195  0.0998 -0.0972 -0.4174
 7791TIP3    H144788   2.134   6.277   5.195  0.3517 -0.6698 -0.6871
 7791TIP3    H244789   2.269   6.269   5.263  0.0729  0.5140  0.0302
 7792TIP3   OH244790   1.003   2.679  16.564 -0.3750 -0.2808 -0.1274
 7792TIP3    H144791   0.968   2.732  16.492  0.3814 -0.3219 -0.5326
 7792TIP3    H244792   1.098   2.687  16.556 -0.2635  0.6079  1.5350
 7793TIP3   OH244793   1.282   5.387  17.100  0.0895  0.4295 -0.4773
 7793TIP3    H144794   1.200   5.437  17.107 -0.3289 -0.3963  0.9372
 7793TIP3    H244795   1.304   5.366  17.191  2.2344  1.1953 -0.7766
 7794TIP3   OH244796   2.567   3.669  14.446 -0.0415 -0.0913  0.5512
 7794TIP3    H144797   2.654   3.709  14.443 -0.0562 -0.0972 -1.1024
 7794TIP3    H244798   2.583   3.576  14.428 -0.1929 -0.5457  2.5240
 7795TIP3   OH244799   4.705   0.442   3.384  0.0017  0.0297 -0.3251
 7795TIP3    H144800   4.657   0.373   3.339 -1.8308  0.2752  1.1203
 7795TIP3    H244801   4.698   0.419   3.477  1.9570  0.5839  0.0102
 7796TIP3   OH244802   3.922   6.629   6.891 -0.3643  0.0854  0.3515
 7796TIP3    H144803   3.925   6.543   6.932 -1.4962  0.4783  1.3118
 7796TIP3    H244804   3.927   6.610   6.797  0.1269 -0.9668  0.5710
 7797TIP3   OH244805   1.576   1.531  15.862  0.1069 -0.4397  0.2094
 7797TIP3    H144806   1.632   1.604  15.838  0.4530 -0.5270  0.7487
 7797TIP3    H244807   1.621   1.454  15.827 -0.0502 -0.4394  0.0023
 7798TIP3   OH244808   4.686   4.710   2.101  0.0870  0.2570  0.4737
 7798TIP3    H144809   4.623   4.696   2.031 -0.0806  0.1434  0.6466
 7798TIP3    H244810   4.768   4.733   2.056 -0.6209  2.7058  0.2838
 7799TIP3   OH244811   6.096   1.466   1.837 -0.2305  0.4940  0.4337
 7799TIP3    H144812   6.106   1.371   1.845  1.0202  0.5758  0.1884
 7799TIP3    H244813   6.018   1.478   1.783 -1.2807 -0.3397  1.7045
 7800TIP3   OH244814   5.587   4.925   5.645 -0.1457 -0.7252 -0.4813
 7800TIP3    H144815   5.526   4.998   5.640  1.8836  1.1143  0.0433
 7800TIP3    H244816   5.633   4.926   5.560  0.8575 -0.4564  0.0466
 7801TIP3   OH244817   3.927   1.340   2.370  0.2480  0.0281 -0.4284
 7801TIP3    H144818   3.898   1.423   2.409  1.4359 -0.1100  0.8529
 7801TIP3    H244819   3.932   1.280   2.445  0.3216 -0.9322 -1.1946
 7802TIP3   OH244820   4.903   4.184   2.768  0.0755  0.0554 -0.0717
 7802TIP3    H144821   4.814   4.219   2.763 -0.1942 -0.7016 -0.5916
 7802TIP3    H244822   4.908   4.143   2.855 -0.3386 -0.5733 -0.3400
 7803TIP3   OH244823   6.137   3.819   4.934  0.5508 -0.9933  0.4789
 7803TIP3    H144824   6.163   3.788   5.021 -0.5788 -2.4378  0.3367
 7803TIP3    H244825   6.159   3.746   4.875  0.3189 -0.4547 -0.2853
 7804TIP3   OH244826   0.463   0.695   4.147  0.0732 -0.2457  0.4497
 7804TIP3    H144827   0.523   0.650   4.208  0.8608  1.1753  0.7621
 7804TIP3    H244828   0.376   0.671   4.178  0.4756 -0.8744  1.1286
 7805TIP3   OH244829   4.570   6.562  13.847 -0.1236 -0.6630 -0.3233
 7805TIP3    H144830   4.666   6.567  13.847 -0.1401  0.4984  1.4457
 7805TIP3    H244831   4.544   6.618  13.774  0.5317 -0.6415 -0.5489
 7806TIP3   OH244832   1.255   3.089  16.599 -0.4227 -0.3693 -0.1875
 7806TIP3    H144833   1.175   3.082  16.546 -1.4856  1.9075  0.9625
 7806TIP3    H244834   1.303   3.162  16.560  0.5434 -1.0006 -0.1818
 7807TIP3   OH244835   3.571   4.221   0.969  0.3571 -0.5353  0.2355
 7807TIP3    H144836   3.636   4.160   1.003  0.7720  0.4968  1.3740
 7807TIP3    H244837   3.620   4.280   0.913  0.6124  0.7345  1.7170
 7808TIP3   OH244838   4.869   5.640   5.869 -0.3689  0.0726 -0.0381
 7808TIP3    H144839   4.910   5.727   5.866  0.5470 -0.3453 -0.1824
 7808TIP3    H244840   4.783   5.652   5.828  0.6679  0.4420 -2.2969
 7809TIP3   OH244841   1.036   0.329   3.270  0.0485 -0.1891 -0.2962
 7809TIP3    H144842   1.066   0.420   3.277  0.4050 -0.3216 -0.0205
 7809TIP3    H244843   1.100   0.287   3.213  0.3791 -0.4692  0.2743
 7810TIP3   OH244844   6.485   0.182  13.688 -0.0648 -0.2988  0.5519
 7810TIP3    H144845   6.500   0.108  13.629  1.5810 -0.0487  0.6171
 7810TIP3    H244846   6.488   0.259  13.630  1.1201 -0.0839  0.8796
 7811TIP3   OH244847   2.262   4.885   6.556  0.3350 -0.1642  0.3664
 7811TIP3    H144848   2.321   4.862   6.484  0.2421  0.6973  0.0094
 7811TIP3    H244849   2.303   4.846   6.634  1.7090  0.9311  0.2243
 7812TIP3   OH244850   1.530   4.116   6.082  0.4096  0.4158  0.1264
 7812TIP3    H144851   1.615   4.146   6.113  1.1042 -1.0695 -0.2247
 7812TIP3    H244852   1.549   4.073   5.999 -0.3690 -1.5787  0.9194
 7813TIP3   OH244853   1.542   1.864  15.565  0.5252 -0.7258 -0.0069
 7813TIP3    H144854   1.515   1.920  15.492 -1.2640  1.3460  2.0884
 7813TIP3    H244855   1.629   1.896  15.589 -0.8079  1.9255  1.6983
 7814TIP3   OH244856   2.834   6.521   4.484  0.2105 -0.0389 -0.5308
 7814TIP3    H144857   2.918   6.483   4.460  0.1012 -0.4533 -0.2811
 7814TIP3    H244858   2.778   6.445   4.502  0.2957  0.2335  1.0236
 7815TIP3   OH244859   0.467   4.080   5.330  0.1977  0.2351  0.3325
 7815TIP3    H144860   0.409   4.029   5.386  0.5185 -0.6682 -0.1411
 7815TIP3    H244861   0.512   4.015   5.276  1.4076  0.9291  0.4598
 7816TIP3   OH244862   3.987   3.318  12.468 -0.8389 -0.4974  0.5589
 7816TIP3    H144863   4.082   3.328  12.463 -1.0094  0.8101 -1.9810
 7816TIP3    H244864   3.973   3.240  12.521  1.8005 -2.7419 -1.7441
 7817TIP3   OH244865   4.274   5.032   3.080  0.5664 -0.2000 -0.3150
 7817TIP3    H144866   4.232   5.114   3.109  0.2735 -0.3107 -0.4269
 7817TIP3    H244867   4.360   5.060   3.049  0.6057  0.0203 -0.0210
 7818TIP3   OH244868   1.501   5.245   6.139 -0.1170 -0.4446  0.2379
 7818TIP3    H144869   1.500   5.319   6.198 -1.4280  1.5391 -2.0855
 7818TIP3    H244870   1.453   5.176   6.185  0.5233  0.3534  2.1708
 7819TIP3   OH244871   6.629   0.274   0.313 -0.3187 -0.0537  0.3433
 7819TIP3    H144872   6.601   0.249   0.225 -0.5907  0.2926  0.3321
 7819TIP3    H244873   6.658   0.365   0.305  0.0813 -0.1590  0.5189
 7820TIP3   OH244874   6.551   2.375  16.422 -0.1350  0.1706  0.3177
 7820TIP3    H144875   6.468   2.423  16.423  0.1721  0.7863  2.1619
 7820TIP3    H244876   6.543   2.312  16.493  0.3443 -0.9597 -0.6070
 7821TIP3   OH244877   6.173   6.416  14.651  0.2113  0.4109  0.2073
 7821TIP3    H144878   6.240   6.460  14.599  0.3840 -2.2314 -2.0267
 7821TIP3    H244879   6.095   6.417  14.597 -0.8780  1.1807  1.7110
 7822TIP3   OH244880   3.012   0.734  16.298  0.6715  0.2993  0.0400
 7822TIP3    H144881   2.988   0.812  16.249  1.9329  0.3121 -0.6090
 7822TIP3    H244882   3.054   0.677  16.233 -1.2233 -1.4397  0.2191
 7823TIP3   OH244883   1.573   2.128  15.839 -0.8428 -0.3594  0.1229
 7823TIP3    H144884   1.660   2.151  15.808 -0.1543 -0.6784  1.7144
 7823TIP3    H244885   1.524   2.211  15.837 -0.9782 -0.4487 -2.1209
 7824TIP3   OH244886   5.926   1.154   4.951 -0.1292  0.2310 -0.5459
 7824TIP3    H144887   5.833   1.140   4.936  0.0373 -2.4037  0.3158
 7824TIP3    H244888   5.929   1.214   5.026 -1.1597 -0.1946 -0.1385
 7825TIP3   OH244889   4.766   0.765  14.488 -0.4200  0.4952  0.4203
 7825TIP3    H144890   4.778   0.681  14.443 -0.1756  0.8972 -0.2870
 7825TIP3    H244891   4.677   0.760  14.524 -0.3282 -0.1496  0.5733
 7826TIP3   OH244892   2.584   2.075   0.028 -0.2831  0.0619  0.1294
 7826TIP3    H144893   2.629   2.076  -0.056  0.2173  0.1739  0.3949
 7826TIP3    H244894   2.510   2.135   0.017  0.6901  1.3225  0.2535
 7827TIP3   OH244895   0.684   3.997  17.395 -0.0958 -0.0587 -0.2340
 7827TIP3    H144896   0.749   3.978  17.463 -0.9272 -0.2360  0.5299
 7827TIP3    H244897   0.608   3.945  17.419 -0.5416  0.1701 -1.0988
 7828TIP3   OH244898   5.952   1.224  10.846  0.6487  0.4001  0.0088
 7828TIP3    H144899   5.925   1.230  10.937 -0.7560 -0.1530 -0.3433
 7828TIP3    H244900   5.910   1.298  10.803 -1.3376 -1.0647 -0.7514
 7829TIP3   OH244901   4.317   0.598  12.696  0.8110 -0.0302  0.2088
 7829TIP3    H144902   4.236   0.594  12.644  0.1371 -0.5674  1.2805
 7829TIP3    H244903   4.387   0.598  12.630 -0.0478  0.6963 -0.7476
 7830TIP3   OH244904   5.129   6.574  12.662 -0.2260  0.2262  0.0257
 7830TIP3    H144905   5.058   6.636  12.681 -0.9485 -0.4610 -0.3585
 7830TIP3    H244906   5.172   6.609  12.584  1.7816  2.2435  1.9115
 7831TIP3   OH244907   3.476   1.701  15.317  0.5370 -0.0394  0.0973
 7831TIP3    H144908   3.488   1.699  15.412 -1.1498  0.8457  0.3716
 7831TIP3    H244909   3.409   1.635  15.300 -0.4311  1.0083 -0.2399
 7832TIP3   OH244910   5.924   3.104  13.372  0.0601  0.1734  0.3637
 7832TIP3    H144911   5.888   3.161  13.439 -0.6877 -1.3160  1.2973
 7832TIP3    H244912   5.912   3.015  13.408 -1.9903 -0.8201 -2.4697
 7833TIP3   OH244913   2.492   4.283  12.894 -0.2635 -0.1715 -0.2581
 7833TIP3    H144914   2.419   4.340  12.870  0.2412  0.8402  0.5502
 7833TIP3    H244915   2.450   4.202  12.924 -1.0067 -0.0036 -0.8249
 7834TIP3   OH244916   1.003   3.384  15.989  0.5382  0.2297 -0.1205
 7834TIP3    H144917   0.934   3.420  16.045 -0.3019  0.4050 -1.2241
 7834TIP3    H244918   0.989   3.289  15.991 -0.8231  0.3503 -1.6294
 7835TIP3   OH244919   1.870   4.798  13.592  0.3100  0.5784  0.4707
 7835TIP3    H144920   1.879   4.847  13.510 -0.0034  1.6796  1.0628
 7835TIP3    H244921   1.804   4.848  13.642 -0.3966 -0.7405  0.9053
 7836TIP3   OH244922   2.543   3.849  14.222  0.3226 -0.3249  0.6922
 7836TIP3    H144923   2.598   3.797  14.163  0.2684  0.1545  0.2147
 7836TIP3    H244924   2.545   3.801  14.305 -0.9637 -1.9092 -0.1445
 7837TIP3   OH244925   0.726   5.162   1.796 -0.3181 -0.1585 -0.3869
 7837TIP3    H144926   0.666   5.179   1.723  0.9377  1.3503 -1.1047
 7837TIP3    H244927   0.775   5.084   1.769 -0.0199  0.2555 -1.0746
 7838TIP3   OH244928   5.948   5.922  12.000  0.2612 -0.2481  0.7257
 7838TIP3    H144929   5.918   5.863  12.069 -0.9969  0.2885  0.6588
 7838TIP3    H244930   5.939   5.871  11.920  1.4103 -0.7577  0.9002
 7839TIP3   OH244931   4.964   1.920  14.258  0.0449 -0.0098 -0.3811
 7839TIP3    H144932   4.995   1.881  14.176  2.4519  2.5318 -0.8253
 7839TIP3    H244933   5.044   1.938  14.308 -1.0579  2.1697  0.7506
 7840TIP3   OH244934   2.430   1.090  12.223  0.1195 -0.1065 -0.0278
 7840TIP3    H144935   2.384   1.023  12.174 -0.9233  0.8776 -0.4289
 7840TIP3    H244936   2.444   1.161  12.160 -0.5385  0.8487  0.8771
 7841TIP3   OH244937   4.736   4.456   4.572 -0.2310 -0.3386 -0.4814
 7841TIP3    H144938   4.655   4.405   4.575  0.2159 -1.0745 -0.5005
 7841TIP3    H244939   4.760   4.467   4.664 -1.1493  1.2175 -0.4005
 7842TIP3   OH244940   5.608   1.962  10.976  0.1292  0.2213 -0.2423
 7842TIP3    H144941   5.524   1.955  10.932 -0.4830  2.0832  0.5120
 7842TIP3    H244942   5.665   2.007  10.913  0.4311 -0.6068 -0.5713
 7843TIP3   OH244943   5.188   4.388  14.238 -0.3018  0.2758  0.1701
 7843TIP3    H144944   5.267   4.432  14.207  0.8762 -0.3279  2.1573
 7843TIP3    H244945   5.161   4.332  14.164  0.1213  1.7225 -1.1343
 7844TIP3   OH244946   0.518   2.954   1.741 -0.3082 -0.6727  0.0844
 7844TIP3    H144947   0.497   2.908   1.661  0.6096 -1.9252  0.5431
 7844TIP3    H244948   0.451   2.926   1.804 -0.7040 -0.1080 -0.0699
 7845TIP3   OH244949   5.088   2.088   1.165 -0.1640  0.0757 -0.0088
 7845TIP3    H144950   5.180   2.086   1.139  0.0571 -1.3322  0.7739
 7845TIP3    H244951   5.083   2.028   1.240 -1.6420  0.4383  0.2122
 7846TIP3   OH244952   1.128   4.193  13.286 -0.2136 -0.0335 -0.8417
 7846TIP3    H144953   1.147   4.106  13.322 -1.9076  0.1742  0.6329
 7846TIP3    H244954   1.194   4.250  13.326 -1.4918  0.0239  1.2989
 7847TIP3   OH244955   2.036   2.369  11.140 -0.3728 -0.5591 -0.3032
 7847TIP3    H144956   2.120   2.379  11.094  0.5674 -0.7810  1.2600
 7847TIP3    H244957   2.052   2.408  11.226 -3.0702  2.9319 -1.1689
 7848TIP3   OH244958   2.777   2.301   2.028  0.0348 -0.1586  0.1013
 7848TIP3    H144959   2.811   2.224   2.074  2.0570  0.8326  0.3734
 7848TIP3    H244960   2.735   2.354   2.097 -1.4507 -1.0061 -0.1029
 7849TIP3   OH244961   4.808   0.327  17.290 -0.1116  0.2733 -0.2289
 7849TIP3    H144962   4.894   0.359  17.265  0.9629 -2.1620  0.0834
 7849TIP3    H244963   4.764   0.403  17.328  1.8990  1.5710 -0.3630
 7850TIP3   OH244964   3.321   3.049   0.622 -0.1050 -0.2403 -0.5113
 7850TIP3    H144965   3.350   3.130   0.664  0.3045 -0.7341  0.1837
 7850TIP3    H244966   3.239   3.027   0.666  0.9314 -1.4034  0.9239
 7851TIP3   OH244967   4.372   4.848   2.052  0.0723 -0.6867 -0.6093
 7851TIP3    H144968   4.385   4.932   2.008  0.2056 -1.3724 -1.9055
 7851TIP3    H244969   4.284   4.855   2.091 -0.3598 -0.3324 -1.6168
 7852TIP3   OH244970   2.810   2.244   3.546 -0.0481  0.0977  0.2187
 7852TIP3    H144971   2.835   2.184   3.476  1.3885  1.0098 -0.0765
 7852TIP3    H244972   2.721   2.271   3.524  0.1825 -0.0634 -0.9455
 7853TIP3   OH244973   5.515   4.284   3.046  0.5921  0.8611 -0.5140
 7853TIP3    H144974   5.610   4.294   3.054  0.6181  0.4064 -0.1900
 7853TIP3    H244975   5.494   4.317   2.959  0.9618  1.5676 -0.3409
 7854TIP3   OH244976   0.407   2.756  16.590  0.0078 -0.5017 -0.4637
 7854TIP3    H144977   0.326   2.720  16.554  0.7026 -1.3094 -1.3019
 7854TIP3    H244978   0.397   2.749  16.685 -1.0789 -0.1617 -0.5412
 7855TIP3   OH244979   2.899   3.097  12.197 -0.2615  0.2074  0.2350
 7855TIP3    H144980   2.840   3.063  12.264  1.1345 -1.2617  0.7655
 7855TIP3    H244981   2.930   3.180  12.233  0.4621 -0.5623  1.4340
 7856TIP3   OH244982   5.235   0.151  11.283  0.1783  0.3803  0.0595
 7856TIP3    H144983   5.154   0.195  11.255  0.0515  1.1268  1.4921
 7856TIP3    H244984   5.209   0.099  11.359  1.1703  1.2712  1.0452
 7857TIP3   OH244985   4.367   4.395   0.661 -0.0846 -0.1244 -0.7667
 7857TIP3    H144986   4.438   4.348   0.704 -0.3324  0.1605 -0.0430
 7857TIP3    H244987   4.311   4.327   0.625 -0.0716 -0.3636 -0.3318
 7858TIP3   OH244988   5.473   5.957   6.339  0.5103  0.0497  0.7449
 7858TIP3    H144989   5.387   5.959   6.381 -0.1898  0.0410 -0.6454
 7858TIP3    H244990   5.481   5.868   6.304 -0.4227  0.9799 -2.0781
 7859TIP3   OH244991   3.306   2.198   4.518  0.0347 -0.5463  0.0606
 7859TIP3    H144992   3.268   2.218   4.433 -0.3363 -0.1063  0.3268
 7859TIP3    H244993   3.350   2.114   4.505  1.6245  0.4159 -1.0724
 7860TIP3   OH244994   3.854   0.977   1.497  0.4025  0.3079  0.0766
 7860TIP3    H144995   3.907   0.900   1.519  0.7967  1.4016  3.4370
 7860TIP3    H244996   3.787   0.981   1.565 -1.4259  1.3609 -1.6947
 7861TIP3   OH244997   0.781   5.429   0.875  0.0535 -0.7341  0.0569
 7861TIP3    H144998   0.708   5.489   0.887 -2.2551 -3.1036 -1.0415
 7861TIP3    H244999   0.791   5.386   0.959 -1.1807 -1.7616 -0.2964
 7862TIP3   OH245000   6.696   5.614  17.027 -0.1118 -0.7667  0.2723
 7862TIP3    H145001   6.677   5.696  16.982 -0.1047 -1.0941 -0.3272
 7862TIP3    H245002   6.677   5.546  16.963  0.4777 -1.2097  0.5612
 7863TIP3   OH245003   0.742   1.469   1.477  0.3244  0.0624 -0.3937
 7863TIP3    H145004   0.738   1.379   1.511  1.6943 -0.1940 -0.8537
 7863TIP3    H245005   0.808   1.512   1.531 -0.9411  1.0719  0.3950
 7864TIP3   OH245006   3.305   2.730  13.262 -0.5314  0.4896 -0.1452
 7864TIP3    H145007   3.398   2.738  13.284 -0.2886  1.5488 -1.4401
 7864TIP3    H245008   3.302   2.661  13.196 -0.6920  0.3871 -0.0331
 7865TIP3   OH245009   3.200   0.295  15.390 -0.2333 -0.4698 -0.3021
 7865TIP3    H145010   3.240   0.262  15.310  2.3386  0.6112  0.4401
 7865TIP3    H245011   3.156   0.219  15.428  1.1802 -1.7622 -1.1576
 7866TIP3   OH245012   2.988   5.434   4.670  0.0822 -0.2921  0.4341
 7866TIP3    H145013   2.901   5.441   4.631 -0.3279 -0.5621  1.2766
 7866TIP3    H245014   3.048   5.466   4.602 -0.6465 -0.3578 -0.2484
 7867TIP3   OH245015   5.201   5.736  16.450  0.7114  0.0341 -0.1479
 7867TIP3    H145016   5.169   5.661  16.399  1.1043  0.4960 -1.0845
 7867TIP3    H245017   5.296   5.725  16.451  0.8246  0.9074 -0.9058
 7868TIP3   OH245018   5.490   2.395  11.588  0.3978  0.1380 -0.4110
 7868TIP3    H145019   5.417   2.446  11.553 -0.5221 -1.8793 -1.6254
 7868TIP3    H245020   5.449   2.314  11.619  1.7998  0.0416  1.3927
 7869TIP3   OH245021   2.294   1.243  11.803 -0.3318  0.0605  0.3391
 7869TIP3    H145022   2.343   1.230  11.722 -0.3498 -0.1705  0.3652
 7869TIP3    H245023   2.347   1.303  11.854  0.3875 -0.9096  0.7629
 7870TIP3   OH245024   0.698   1.005   2.365  0.0208  0.3985 -0.5889
 7870TIP3    H145025   0.635   0.943   2.329  0.6072  0.4347 -1.7266
 7870TIP3    H245026   0.645   1.079   2.395 -0.4561  0.7467 -2.1805
 7871TIP3   OH245027   4.947   3.573  15.983  0.5097  0.2253 -0.0044
 7871TIP3    H145028   4.857   3.602  15.999  0.6275  0.5044  0.1434
 7871TIP3    H245029   5.002   3.634  16.031  0.7728 -0.0552  0.0582
 7872TIP3   OH245030   1.902   5.217  14.454  0.2392  0.3250  0.3219
 7872TIP3    H145031   1.908   5.283  14.524  1.9173  0.0560  0.4692
 7872TIP3    H245032   1.928   5.135  14.496  0.0441 -0.0780 -0.3341
 7873TIP3   OH245033   0.138   2.730   2.529 -0.3079  0.6576  0.2478
 7873TIP3    H145034   0.168   2.639   2.533  0.7807  0.9968  0.0971
 7873TIP3    H245035   0.050   2.725   2.492  0.7944 -0.1349 -2.4523
 7874TIP3   OH245036   4.996   2.741  11.156 -0.0220  0.1506  0.3399
 7874TIP3    H145037   5.076   2.789  11.135  0.4434 -0.7177  0.0532
 7874TIP3    H245038   4.950   2.733  11.073  0.3600 -0.6895  0.1953
 7875TIP3   OH245039   6.586   0.213  12.141 -0.0806 -0.3704  0.1248
 7875TIP3    H145040   6.660   0.234  12.084 -1.1532  1.2029 -0.7506
 7875TIP3    H245041   6.615   0.239  12.228  0.0113  1.3477 -0.3846
 7876TIP3   OH245042   0.411   3.116   3.375  0.3070 -0.2371 -0.2060
 7876TIP3    H145043   0.385   3.035   3.331  0.5961 -0.5711  0.2372
 7876TIP3    H245044   0.330   3.169   3.377 -0.1404 -0.9244  0.3999
 7877TIP3   OH245045   6.329   4.227   5.410 -0.6284 -0.7396 -0.4367
 7877TIP3    H145046   6.360   4.310   5.447 -0.6537 -0.9297  0.0062
 7877TIP3    H245047   6.402   4.167   5.421 -0.3663 -0.6033 -1.3597
 7878TIP3   OH245048   6.200   2.357   5.853 -0.3132 -0.0075  0.5288
 7878TIP3    H145049   6.272   2.392   5.906  0.1654 -1.0794  0.6078
 7878TIP3    H245050   6.152   2.300   5.913  0.8507 -2.0885 -0.4097
 7879TIP3   OH245051   3.611   4.036   2.866  0.3721 -0.5186 -0.0297
 7879TIP3    H145052   3.646   4.125   2.854 -0.4004 -0.3613 -1.3850
 7879TIP3    H245053   3.670   3.995   2.928  0.8893  0.8697  0.4362
 7880TIP3   OH245054   3.087   6.698   3.497 -0.3899 -0.0768 -0.2704
 7880TIP3    H145055   3.151   6.687   3.567  0.6460 -0.3914 -1.2290
 7880TIP3    H245056   3.107   6.783   3.459 -0.2165 -0.3736 -0.8677
 7881TIP3   OH245057   5.853   6.179   2.573  0.0374 -0.3125 -0.8686
 7881TIP3    H145058   5.846   6.272   2.551 -0.6775 -0.1797 -0.1112
 7881TIP3    H245059   5.947   6.164   2.583  0.1587  0.3177 -1.0287
 7882TIP3   OH245060   6.219   5.251  16.213  0.0228 -0.1540  0.3232
 7882TIP3    H145061   6.289   5.212  16.159  0.4477  0.3689  0.4785
 7882TIP3    H245062   6.226   5.206  16.297 -1.9518 -2.4149 -0.6359
 7883TIP3   OH245063   1.338   5.518   4.219 -0.3253  0.3013 -0.0668
 7883TIP3    H145064   1.382   5.468   4.150 -1.6904  2.5710 -2.8118
 7883TIP3    H245065   1.407   5.570   4.259  0.3862 -0.5161 -0.2186
 7884TIP3   OH245066   6.196   5.746   2.653 -0.3447  0.1995  0.4353
 7884TIP3    H145067   6.150   5.666   2.679  0.3881  0.0819  1.4269
 7884TIP3    H245068   6.272   5.715   2.603  0.2836  0.2327  1.3551
 7885TIP3   OH245069   5.026   4.488  14.560  0.5116  0.1633 -0.9112
 7885TIP3    H145070   4.935   4.471  14.535  0.4384  0.2719 -0.7169
 7885TIP3    H245071   5.067   4.401  14.561 -0.6100 -0.5375  3.1238
 7886TIP3   OH245072   1.825   1.603  11.244 -0.1050  0.1887 -0.6442
 7886TIP3    H145073   1.802   1.672  11.306 -1.4716  0.4886 -1.4618
 7886TIP3    H245074   1.858   1.532  11.300 -2.5126 -0.0621  0.6058
 7887TIP3   OH245075   2.718   4.952  15.539  0.3840  0.3370  0.1915
 7887TIP3    H145076   2.702   5.043  15.563 -0.7307  0.3118 -0.3782
 7887TIP3    H245077   2.653   4.902  15.590 -0.1145  0.0277 -0.7272
 7888TIP3   OH245078   0.270   1.509   5.720  0.1396  0.4168 -0.7170
 7888TIP3    H145079   0.302   1.423   5.748  0.2085  0.0206 -1.9504
 7888TIP3    H245080   0.279   1.564   5.797  0.4129 -0.6025 -0.0013
 7889TIP3   OH245081   0.566   3.430  16.032 -0.0349  0.1955  0.5896
 7889TIP3    H145082   0.472   3.447  16.024 -0.1215 -1.1157 -1.9936
 7889TIP3    H245083   0.572   3.335  16.040  1.1308  0.0556 -1.4768
 7890TIP3   OH245084   0.400   2.630  14.623  0.2563  1.0307  0.0825
 7890TIP3    H145085   0.307   2.655  14.625  0.3698  1.4493  0.5491
 7890TIP3    H245086   0.429   2.642  14.713  0.4188 -0.4814  0.2568
 7891TIP3   OH245087   3.648   1.352  15.266 -0.6399 -0.7073  0.3781
 7891TIP3    H145088   3.639   1.419  15.197  2.2174 -0.7725 -0.1593
 7891TIP3    H245089   3.581   1.287  15.244 -1.8108  0.7454 -0.5545
 7892TIP3   OH245090   4.137   3.794  15.776  0.2806 -0.2539 -0.0309
 7892TIP3    H145091   4.142   3.858  15.704  1.7427 -0.6699 -0.3293
 7892TIP3    H245092   4.096   3.842  15.848  1.7509  1.2114 -0.1008
 7893TIP3   OH245093   0.927   1.416  15.176 -0.6816  0.0007  0.2798
 7893TIP3    H145094   0.854   1.473  15.154 -0.6434  0.0063  0.1666
 7893TIP3    H245095   0.935   1.356  15.102 -1.9595 -1.4277  1.2380
 7894TIP3   OH245096   6.154   5.062  10.613 -0.6771 -0.2746  0.6363
 7894TIP3    H145097   6.221   5.015  10.663 -0.6605  0.4371  1.2960
 7894TIP3    H245098   6.184   5.153  10.612 -0.2642 -0.3877 -1.3581
 7895TIP3   OH245099   4.711   3.061   5.002 -0.2101 -0.4767  0.0258
 7895TIP3    H145100   4.791   3.009   4.992 -0.5523 -0.8975 -0.6395
 7895TIP3    H245101   4.737   3.150   4.976  0.8510  0.1693  2.9511
 7896TIP3   OH245102   6.241   1.636  12.174 -0.4849  0.2591 -0.7603
 7896TIP3    H145103   6.269   1.603  12.088  1.1733  0.8598 -0.4833
 7896TIP3    H245104   6.216   1.557  12.222 -1.3041 -0.0980 -1.7431
 7897TIP3   OH245105   5.428   1.257   2.869 -0.2043  0.4746  0.3436
 7897TIP3    H145106   5.389   1.188   2.814  1.0244 -0.4868  0.6389
 7897TIP3    H245107   5.522   1.238   2.868 -0.1281  0.4634  2.6955
 7898TIP3   OH245108   6.267   0.268   0.953 -0.0405  0.1342  0.1339
 7898TIP3    H145109   6.226   0.346   0.915 -1.2014 -0.4127  0.2158
 7898TIP3    H245110   6.230   0.195   0.904 -0.8008 -0.5186  1.5882
 7899TIP3   OH245111   2.567   6.220   2.655  0.2954 -0.3913  0.0603
 7899TIP3    H145112   2.570   6.262   2.569  1.2017 -0.2074  0.1779
 7899TIP3    H245113   2.492   6.160   2.649 -0.3642  0.4578 -0.4593
 7900TIP3   OH245114   0.966   5.611  11.157  0.0683  0.0652 -0.0275
 7900TIP3    H145115   1.052   5.634  11.123  1.0565  0.0124  2.2396
 7900TIP3    H245116   0.917   5.581  11.081  2.1093 -0.0694 -1.3585
 7901TIP3   OH245117   2.488   6.655   5.119  0.2468 -0.0296 -0.5096
 7901TIP3    H145118   2.544   6.584   5.088 -0.6251 -1.2982  0.6891
 7901TIP3    H245119   2.401   6.635   5.085 -0.2014 -0.0646  0.6256
 7902TIP3   OH245120   2.226   6.208  12.266  0.6489 -0.2153  0.1822
 7902TIP3    H145121   2.252   6.128  12.220 -0.0529 -0.2906 -0.0903
 7902TIP3    H245122   2.140   6.230  12.231  1.3287  1.3325 -0.6058
 7903TIP3   OH245123   3.274   5.637   0.132 -0.4755  0.3876 -0.1619
 7903TIP3    H145124   3.342   5.604   0.191 -0.3289  0.6833 -0.1640
 7903TIP3    H245125   3.218   5.561   0.116  1.2023 -0.5563 -2.0921
 7904TIP3   OH245126   6.071   5.608   1.697 -0.3735 -0.2606 -0.1740
 7904TIP3    H145127   6.115   5.528   1.667 -0.3074 -0.8618  1.4538
 7904TIP3    H245128   6.008   5.628   1.627  0.6723 -0.8390 -1.3239
 7905TIP3   OH245129   5.323   3.647  15.823  0.3903 -0.2658  0.0392
 7905TIP3    H145130   5.345   3.591  15.898  2.2046  1.8796  1.2229
 7905TIP3    H245131   5.407   3.684  15.796 -0.6898  1.6009 -0.9085
 7906TIP3   OH245132   2.656   1.938  16.407  0.7164  0.0885 -0.2419
 7906TIP3    H145133   2.591   2.008  16.405  1.8399  1.3585  2.5732
 7906TIP3    H245134   2.643   1.895  16.491  0.4985 -2.7521 -1.6295
 7907TIP3   OH245135   5.020   5.536   4.320 -0.2118  0.7269 -0.5919
 7907TIP3    H145136   5.091   5.477   4.294  1.1857  1.9732  0.2268
 7907TIP3    H245137   4.954   5.526   4.252 -0.3339 -2.2290 -0.1553
 7908TIP3   OH245138   0.103   1.330  16.878 -0.2409 -0.3410  0.5486
 7908TIP3    H145139   0.157   1.405  16.900 -0.3377 -0.6473  1.9160
 7908TIP3    H245140   0.164   1.266  16.841  0.0588 -0.0868  0.6052
 7909TIP3   OH245141   5.089   5.814  14.899 -0.6320  0.4489  0.4622
 7909TIP3    H145142   5.015   5.761  14.928 -0.1813 -0.4645 -0.0084
 7909TIP3    H245143   5.163   5.783  14.952  0.1972 -1.2179 -1.5488
 7910TIP3   OH245144   6.715   1.772   2.128  0.5192 -0.0112  0.1622
 7910TIP3    H145145   6.776   1.699   2.119 -0.4954 -1.0011  1.0944
 7910TIP3    H245146   6.676   1.781   2.042  0.1599 -1.0223  0.2061
 7911TIP3   OH245147   4.796   4.019   0.530  0.1011 -0.1061 -0.1849
 7911TIP3    H145148   4.783   3.973   0.613  1.1483  1.0126  0.6340
 7911TIP3    H245149   4.887   4.050   0.534 -0.4649  1.7408 -0.8439
 7912TIP3   OH245150   4.345   5.528  13.484  0.4719 -0.6997 -0.1805
 7912TIP3    H145151   4.367   5.435  13.486  0.9530 -0.5822  0.8561
 7912TIP3    H245152   4.413   5.568  13.429  0.6740 -0.8724 -0.0602
 7913TIP3   OH245153   0.276   0.858   1.057  0.3756  0.0635 -0.3914
 7913TIP3    H145154   0.345   0.817   1.109  1.1715  0.9512 -0.7005
 7913TIP3    H245155   0.295   0.952   1.062 -1.7036  0.4779  0.7483
 7914TIP3   OH245156   0.681   6.274  14.054 -0.4393 -0.1045 -0.9109
 7914TIP3    H145157   0.599   6.278  14.103  0.5335  2.5642  0.7647
 7914TIP3    H245158   0.749   6.286  14.121  1.3754 -2.3194 -2.2343
 7915TIP3   OH245159   6.660   1.917   0.084 -0.4610 -0.2156  0.4954
 7915TIP3    H145160   6.693   1.924  -0.006 -1.7068 -1.1333 -0.0671
 7915TIP3    H245161   6.737   1.891   0.135  0.7131  2.1639  0.0857
 7916TIP3   OH245162   4.366   0.591  14.330 -0.6552 -0.6219 -0.4396
 7916TIP3    H145163   4.321   0.530  14.271  0.0941 -2.0329  0.4000
 7916TIP3    H245164   4.443   0.542  14.361 -1.1813 -0.0647  1.9269
 7917TIP3   OH245165   1.912   5.113  14.881 -0.2719 -0.4633  0.0974
 7917TIP3    H145166   1.948   5.026  14.865  1.0750  0.0705  0.0845
 7917TIP3    H245167   1.989   5.168  14.893 -1.1122  0.4023  1.8503
 7918TIP3   OH245168   3.958   2.348   0.131  0.6821 -0.5829  0.3875
 7918TIP3    H145169   4.001   2.373   0.049  1.3343  0.4092  1.0117
 7918TIP3    H245170   4.019   2.287   0.172  0.0669 -1.5755 -0.1414
 7919TIP3   OH245171   6.418   0.197  12.694  0.4152  0.2557 -0.1258
 7919TIP3    H145172   6.338   0.165  12.651  1.2218  1.5017 -2.7503
 7919TIP3    H245173   6.474   0.120  12.699  0.4613  0.1315 -1.8232
 7920TIP3   OH245174   5.006   4.508   3.899 -0.0164  0.2796 -0.2122
 7920TIP3    H145175   5.080   4.452   3.877 -1.5702 -1.3546 -1.5294
 7920TIP3    H245176   4.941   4.449   3.937 -0.7231  1.6429  0.8001
 7921TIP3   OH245177   6.448   5.132   2.937  0.1948 -0.3241  0.3931
 7921TIP3    H145178   6.480   5.126   3.027 -0.9546  0.8827  0.9285
 7921TIP3    H245179   6.386   5.205   2.939 -0.5358 -0.8556 -1.1791
 7922TIP3   OH245180   0.567   2.815   5.325  0.3220  0.1580 -0.2032
 7922TIP3    H145181   0.504   2.887   5.330  0.6859  0.5036 -0.5360
 7922TIP3    H245182   0.650   2.857   5.308  0.5741 -0.3325 -0.2066
 7923TIP3   OH245183   0.157   0.601   3.117 -0.0314  0.3932  0.2025
 7923TIP3    H145184   0.216   0.560   3.053  0.2818  0.3547  0.5119
 7923TIP3    H245185   0.088   0.537   3.131 -0.4944  0.6919 -0.6370
 7924TIP3   OH245186   2.765   3.212  15.720  0.1963 -0.3402 -0.7046
 7924TIP3    H145187   2.800   3.295  15.689  2.2150 -0.6894  0.4547
 7924TIP3    H245188   2.684   3.235  15.764  1.1425  1.1723  0.3388
 7925TIP3   OH245189   5.692   2.700  17.274 -0.0030  0.1501 -0.1197
 7925TIP3    H145190   5.638   2.756  17.329 -2.0615 -0.6484 -1.2359
 7925TIP3    H245191   5.691   2.615  17.318 -0.8047 -0.2176 -0.8136
 7926TIP3   OH245192   1.929   0.724  16.167  0.4426 -0.0855 -0.0117
 7926TIP3    H145193   1.888   0.653  16.216 -0.7399  0.2707 -0.4357
 7926TIP3    H245194   1.857   0.761  16.116  1.1505  1.0890 -0.1789
 7927TIP3   OH245195   2.097   3.537   2.507  0.2751  0.5807 -0.5217
 7927TIP3    H145196   2.099   3.447   2.537  1.3400  0.5611 -0.6119
 7927TIP3    H245197   2.181   3.575   2.536  0.8265  0.8977 -2.3567
 7928TIP3   OH245198   1.953   1.326  13.949  0.2894  0.0075  0.3975
 7928TIP3    H145199   1.955   1.420  13.968  1.1761  0.1947 -0.5062
 7928TIP3    H245200   2.028   1.291  13.996 -0.3492 -0.3497  1.1669
 7929TIP3   OH245201   5.518   4.002   5.543  0.6830 -0.3452 -0.1718
 7929TIP3    H145202   5.427   3.988   5.519 -0.5227  3.2545  1.5292
 7929TIP3    H245203   5.523   3.975   5.635  0.6631  1.3399  0.3775
 7930TIP3   OH245204   6.252   1.660  13.878 -0.0408 -0.3615 -0.0686
 7930TIP3    H145205   6.306   1.669  13.800 -0.2475 -0.4862 -0.2283
 7930TIP3    H245206   6.314   1.654  13.951  0.1604  1.4618 -0.0319
 7931TIP3   OH245207   6.211   4.274   5.150  0.3686  0.6770 -0.0631
 7931TIP3    H145208   6.228   4.356   5.104 -0.5094  1.0247  0.2084
 7931TIP3    H245209   6.224   4.295   5.242 -2.3956  1.2796  0.3015
 7932TIP3   OH245210   2.042   3.900  16.378  0.1335  0.8555 -0.0099
 7932TIP3    H145211   2.109   3.910  16.446  1.3043  0.9861 -1.1467
 7932TIP3    H245212   2.014   3.809  16.384  1.3784  0.4375 -0.3747
 7933TIP3   OH245213   5.646   5.323  14.648  0.0023  0.5322  0.5509
 7933TIP3    H145214   5.577   5.360  14.593  0.5468 -0.6142 -0.9638
 7933TIP3    H245215   5.706   5.396  14.662 -0.3541  0.9508 -0.0389
 7934TIP3   OH245216   5.423   1.581   5.073  0.0952 -0.7642  0.3496
 7934TIP3    H145217   5.493   1.569   5.008 -0.5514 -0.1785 -0.4701
 7934TIP3    H245218   5.451   1.657   5.124  0.1703 -0.6761  0.1775
 7935TIP3   OH245219   5.050   2.988  15.495  0.0361 -0.3262  0.2869
 7935TIP3    H145220   5.075   3.015  15.584 -1.1978 -1.9497  1.1854
 7935TIP3    H245221   4.999   2.908  15.508  1.0149 -1.3996 -2.0064
 7936TIP3   OH245222   2.866   2.476  17.099  0.5153  0.1201 -0.3130
 7936TIP3    H145223   2.912   2.499  17.180  1.8086  1.0493 -1.2557
 7936TIP3    H245224   2.933   2.435  17.044  0.2511  1.4460 -1.7077
 7937TIP3   OH245225   4.919   5.412   0.797  0.5726 -0.7901 -0.1543
 7937TIP3    H145226   4.870   5.358   0.735  1.5213 -1.6865 -0.1477
 7937TIP3    H245227   4.853   5.448   0.855 -0.3416 -0.0216 -1.5969
 7938TIP3   OH245228   3.582   0.778  16.476 -0.4473  1.0292  0.0673
 7938TIP3    H145229   3.638   0.769  16.553  0.6192  3.3272 -0.3662
 7938TIP3    H245230   3.612   0.858  16.433 -0.7758 -0.3446 -2.9687
 7939TIP3   OH245231   4.763   4.707   4.143  0.6994 -0.1854 -0.6540
 7939TIP3    H145232   4.816   4.744   4.213  0.3851 -0.6841 -0.1478
 7939TIP3    H245233   4.673   4.723   4.168  0.5957  0.6252 -1.4996
 7940TIP3   OH245234   3.791   5.029  14.016  0.1145 -0.3207 -0.0832
 7940TIP3    H145235   3.854   5.025  13.945  0.9174  0.4449  0.5695
 7940TIP3    H245236   3.794   4.942  14.056  0.9377 -0.2181  0.0938
 7941TIP3   OH245237   5.791   0.212   4.323  0.4874 -0.2413  0.5846
 7941TIP3    H145238   5.838   0.202   4.240  1.3174 -0.0009  1.0137
 7941TIP3    H245239   5.745   0.296   4.315  0.2487 -0.4043  0.2226
 7942TIP3   OH245240   3.262   4.574   6.277 -0.0222 -0.4517  0.1854
 7942TIP3    H145241   3.176   4.614   6.291 -0.1777 -1.2397  1.7424
 7942TIP3    H245242   3.261   4.496   6.332  1.6134 -0.5979  0.0601
 7943TIP3   OH245243   0.207   1.825  13.476  0.2173 -0.6564 -0.3331
 7943TIP3    H145244   0.137   1.768  13.508 -0.5977 -0.9467 -2.5048
 7943TIP3    H245245   0.283   1.801  13.530 -0.6887 -2.1662  0.3503
 7944TIP3   OH245246   0.351   2.484  12.247 -0.3460  0.3345  0.1610
 7944TIP3    H145247   0.407   2.482  12.325 -0.4534  1.8407  0.3115
 7944TIP3    H245248   0.384   2.557  12.195 -1.7463  0.8648 -0.0454
 7945TIP3   OH245249   3.124   4.748  11.446 -0.0956 -0.7000  0.5382
 7945TIP3    H145250   3.101   4.770  11.536 -0.5606 -1.1754  0.5405
 7945TIP3    H245251   3.127   4.653  11.444  1.2529 -0.6758  0.3671
 7946TIP3   OH245252   1.963   4.717   3.709 -0.2852  0.1732 -0.2951
 7946TIP3    H145253   1.920   4.683   3.631 -0.3369  2.5269 -1.3883
 7946TIP3    H245254   2.051   4.740   3.680 -0.1584  0.6634  0.4523
 7947TIP3   OH245255   3.202   4.383   4.958  0.0631 -0.3177  0.4394
 7947TIP3    H145256   3.162   4.376   4.871  1.2960 -0.2150 -0.1555
 7947TIP3    H245257   3.293   4.406   4.941  0.8177 -2.1062  1.6738
 7948TIP3   OH245258   3.084   1.455   6.287  0.2381  0.0085  0.1496
 7948TIP3    H145259   3.121   1.454   6.376 -0.1495  0.4291  0.3190
 7948TIP3    H245260   3.010   1.394   6.291 -1.2657  1.8013  0.7800
 7949TIP3   OH245261   0.534   5.414  14.134  0.4984 -0.0362  0.2185
 7949TIP3    H145262   0.504   5.357  14.063 -0.7466  0.4956  0.2888
 7949TIP3    H245263   0.577   5.486  14.089 -1.0929  0.7748 -0.1027
 7950TIP3   OH245264   5.675   5.587   1.665  0.0907 -0.2386  0.0837
 7950TIP3    H145265   5.761   5.595   1.625  0.4951  1.1052  1.1414
 7950TIP3    H245266   5.644   5.500   1.639  0.7833  0.1278 -2.1744
 7951TIP3   OH245267   4.476   2.302  12.974  0.0707 -0.1443 -0.5843
 7951TIP3    H145268   4.391   2.303  12.928  0.3896  2.0278 -1.2374
 7951TIP3    H245269   4.455   2.328  13.063 -0.0697 -0.6782 -0.4566
 7952TIP3   OH245270   4.093   0.241   0.136 -0.1980 -0.3470  0.1571
 7952TIP3    H145271   4.017   0.282   0.095  0.3669 -0.7894 -1.3996
 7952TIP3    H245272   4.138   0.313   0.181 -0.9676  0.1080  0.2102
 7953TIP3   OH245273   6.655   5.261   4.594 -0.5481  0.2108 -0.1790
 7953TIP3    H145274   6.702   5.211   4.660 -1.6130  0.0170  0.4550
 7953TIP3    H245275   6.699   5.240   4.511  3.1224  3.1372  0.7717
 7954TIP3   OH245276   4.217   1.792  15.573 -0.0558 -0.2019  0.1586
 7954TIP3    H145277   4.204   1.740  15.493  0.2094  0.0431 -0.0461
 7954TIP3    H245278   4.270   1.736  15.630  3.3106  1.0893 -1.4087
 7955TIP3   OH245279   0.997   4.648   3.717 -0.2340  0.0643  0.3718
 7955TIP3    H145280   0.982   4.707   3.792 -1.4122  0.6264 -0.2670
 7955TIP3    H245281   1.002   4.707   3.641 -2.6074 -0.6581 -0.4463
 7956TIP3   OH245282   5.892   0.017  13.395  0.1467 -0.1233 -0.2684
 7956TIP3    H145283   5.987   0.027  13.407  0.0564 -0.0344  0.3835
 7956TIP3    H245284   5.881  -0.075  13.370  0.5388  0.2166 -1.8012
 7957TIP3   OH245285   5.522   5.629  11.633 -0.5865  1.2197 -0.2929
 7957TIP3    H145286   5.528   5.626  11.729 -2.2926 -1.0905 -0.1704
 7957TIP3    H245287   5.608   5.601  11.602 -0.9955 -1.3033  0.6676
 7958TIP3   OH245288   6.407   2.595  15.654 -0.3604 -0.5323  0.3625
 7958TIP3    H145289   6.416   2.623  15.563 -0.2945 -1.4603  0.0619
 7958TIP3    H245290   6.438   2.504  15.653  0.0427 -0.4180  1.3974
 7959TIP3   OH245291   6.697   5.558  12.239  0.1402  0.5864 -0.6531
 7959TIP3    H145292   6.634   5.560  12.311 -0.2997  0.6422 -1.0363
 7959TIP3    H245293   6.781   5.578  12.281  0.0861 -0.5529  0.0433
 7960TIP3   OH245294   5.062   3.448   1.035 -0.2314  0.2403  0.1549
 7960TIP3    H145295   5.141   3.396   1.050  0.6783  1.4034 -0.4718
 7960TIP3    H245296   5.007   3.432   1.112 -0.3746 -2.2766 -0.3674
 7961TIP3   OH245297   4.471   0.034  12.671 -0.5161 -0.2433  0.3050
 7961TIP3    H145298   4.414  -0.043  12.667 -1.2861  0.3412 -0.1273
 7961TIP3    H245299   4.411   0.109  12.670  0.2786  0.4462 -1.7523
 7962TIP3   OH245300   3.601   3.840   0.654 -0.0570 -0.4736  0.1833
 7962TIP3    H145301   3.572   3.847   0.745 -0.2881 -1.3327  0.1856
 7962TIP3    H245302   3.523   3.858   0.602  0.5423  2.1717  0.0935
 7963TIP3   OH245303   3.920   3.169  17.112  0.0096  0.0978  0.5104
 7963TIP3    H145304   3.858   3.184  17.183 -0.5503 -1.0886  0.3010
 7963TIP3    H245305   3.871   3.188  17.032 -0.4889 -1.9299  0.2811
 7964TIP3   OH245306   4.737   4.954   0.068  0.3763 -0.2575 -0.7901
 7964TIP3    H145307   4.738   5.045   0.036  0.7539  0.1868  0.4270
 7964TIP3    H245308   4.669   4.911   0.016  0.1155  0.7515 -1.3101
 7965TIP3   OH245309   0.314   0.669   4.853  0.4150  0.4330 -0.6568
 7965TIP3    H145310   0.268   0.740   4.898  0.6686 -1.0047  2.0686
 7965TIP3    H245311   0.407   0.691   4.862  0.6006 -0.9355  1.7124
 7966TIP3   OH245312   5.850   6.276  17.276  0.3270 -0.2295 -0.2510
 7966TIP3    H145313   5.819   6.336  17.344  2.3038  1.1750 -0.5060
 7966TIP3    H245314   5.910   6.329  17.223 -1.0256 -1.3017 -3.0505
 7967TIP3   OH245315   1.556   2.885  14.786 -0.4229 -0.6883  0.2082
 7967TIP3    H145316   1.607   2.858  14.863  0.5070 -1.3735 -0.6343
 7967TIP3    H245317   1.477   2.831  14.789 -1.7776  1.2279  2.2064
 7968TIP3   OH245318   3.849   6.469  15.339  0.3783 -0.4369 -0.4196
 7968TIP3    H145319   3.880   6.514  15.418 -0.5398  1.2714 -0.9903
 7968TIP3    H245320   3.789   6.402  15.371  1.5653 -1.1351  0.4347
 7969TIP3   OH245321   5.676   4.638   2.935  0.0437  1.0055 -0.0618
 7969TIP3    H145322   5.684   4.553   2.893  3.0135  0.2848  1.6812
 7969TIP3    H245323   5.744   4.692   2.894  2.6203  0.4623  3.0271
 7970TIP3   OH245324   6.510   6.478   0.986 -0.1183 -0.1801  0.0822
 7970TIP3    H145325   6.540   6.422   0.915 -0.0468 -2.5715  1.8929
 7970TIP3    H245326   6.452   6.423   1.038 -1.3626  1.9475  1.0785
 7971TIP3   OH245327   3.534   2.262   3.582 -0.2243  0.0844 -0.0985
 7971TIP3    H145328   3.513   2.304   3.499 -2.1180 -0.9177 -0.1831
 7971TIP3    H245329   3.625   2.287   3.599 -0.8653  3.2764 -0.6573
 7972TIP3   OH245330   1.165   6.338   2.185 -0.5884 -0.8843 -0.6719
 7972TIP3    H145331   1.071   6.338   2.200 -0.8372  2.5975 -1.3904
 7972TIP3    H245332   1.174   6.318   2.092 -0.6892 -0.5976 -0.7456
 7973TIP3   OH245333   4.797   1.327   2.171 -0.3138 -0.5111 -0.2464
 7973TIP3    H145334   4.850   1.407   2.179 -0.0631 -0.7287  0.3025
 7973TIP3    H245335   4.767   1.328   2.080 -1.8990  1.1937  0.2357
 7974TIP3   OH245336   4.936   5.698   2.695  0.0528 -0.2926 -0.3093
 7974TIP3    H145337   4.850   5.659   2.681  0.1432 -0.1754 -1.2704
 7974TIP3    H245338   4.961   5.671   2.783 -1.1119 -0.0509  0.1135
 7975TIP3   OH245339   1.167   1.395   1.761 -0.2689 -0.5183 -0.0971
 7975TIP3    H145340   1.180   1.328   1.828  0.0646 -1.1610 -0.7887
 7975TIP3    H245341   1.129   1.348   1.687  1.1997 -0.2145 -1.0886
 7976TIP3   OH245342   5.230   4.293  14.534  0.0967  0.0909  0.3906
 7976TIP3    H145343   5.205   4.201  14.538 -0.7382  0.2661 -0.4151
 7976TIP3    H245344   5.271   4.303  14.448 -0.3161  0.5821  0.2459
 7977TIP3   OH245345   1.750   3.573  13.139  0.1250  1.0751 -0.1662
 7977TIP3    H145346   1.701   3.636  13.086 -1.5316  2.4177  2.6800
 7977TIP3    H245347   1.683   3.514  13.174  0.8839  1.1828  1.5745
 7978TIP3   OH245348   0.230   3.335   3.441  0.2513 -0.1218 -0.0741
 7978TIP3    H145349   0.308   3.370   3.484  0.3349 -1.9574  1.3899
 7978TIP3    H245350   0.172   3.309   3.513 -1.6425  0.9699 -1.1256
 7979TIP3   OH245351   6.103   1.141  11.483  0.0161 -0.3334 -0.4707
 7979TIP3    H145352   6.143   1.056  11.497 -0.6218 -0.6321 -0.4145
 7979TIP3    H245353   6.095   1.179  11.571 -1.4299 -1.0265 -0.2761
 7980TIP3   OH245354   5.481   3.494  11.469 -0.0811 -0.1126  0.6516
 7980TIP3    H145355   5.421   3.555  11.426 -0.9256 -1.7146 -0.5738
 7980TIP3    H245356   5.568   3.522  11.440 -0.5232 -0.0740 -0.7503
 7981TIP3   OH245357   0.150   6.559  15.559  0.5635 -0.4069  0.3782
 7981TIP3    H145358   0.173   6.573  15.467 -0.3612  0.0711  0.2128
 7981TIP3    H245359   0.172   6.642  15.602  0.2918 -0.3691  0.4443
 7982TIP3   OH245360   0.086   3.507   3.027 -0.0203 -0.0366 -0.0797
 7982TIP3    H145361   0.053   3.504   2.937  2.5460 -0.0808 -1.1028
 7982TIP3    H245362   0.074   3.599   3.053 -0.6823  0.0047 -0.4892
 7983TIP3   OH245363   6.313   1.695  17.347 -0.4731 -0.2679  0.3044
 7983TIP3    H145364   6.362   1.626  17.303 -2.4345 -1.0725 -0.7488
 7983TIP3    H245365   6.345   1.776  17.309  0.5348 -0.7199  0.1739
 7984TIP3   OH245366   2.774   0.316   3.022 -0.2266 -0.2410  0.5512
 7984TIP3    H145367   2.725   0.339   2.943  0.0436  2.5371  1.0967
 7984TIP3    H245368   2.737   0.232   3.049 -0.2767 -1.3531 -2.5218
 7985TIP3   OH245369   2.017   3.186  14.276  0.3634  0.3408  0.0379
 7985TIP3    H145370   2.036   3.181  14.182 -0.8662  1.6605 -0.3020
 7985TIP3    H245371   1.949   3.120  14.290  0.1200  0.5565 -0.1195
 7986TIP3   OH245372   2.118   1.825  14.558  0.1477  0.0443 -1.0368
 7986TIP3    H145373   2.150   1.905  14.599  0.4896 -0.7421  0.3169
 7986TIP3    H245374   2.182   1.805  14.489  0.4356  0.5652 -0.9220
 7987TIP3   OH245375   6.112   0.932  15.971 -0.1044 -0.2676 -0.3713
 7987TIP3    H145376   6.189   0.948  16.025 -0.0230 -2.0277  0.0962
 7987TIP3    H245377   6.042   0.980  16.014  0.3006 -0.3493  0.3966
 7988TIP3   OH245378   2.776   5.357  14.789 -0.5166 -0.1229 -0.3447
 7988TIP3    H145379   2.809   5.319  14.708 -0.9155  0.8335 -0.9733
 7988TIP3    H245380   2.848   5.347  14.852 -0.9386 -2.8044 -0.1502
 7989TIP3   OH245381   4.521   3.388  15.950 -0.6807 -0.6197  0.2335
 7989TIP3    H145382   4.566   3.428  15.875 -0.5891 -0.1075  0.5624
 7989TIP3    H245383   4.574   3.311  15.970 -1.0893 -1.1602 -0.6618
 7990TIP3   OH245384   0.522   3.277   3.990  0.6555  0.1709  0.5001
 7990TIP3    H145385   0.530   3.372   3.989 -1.9744  0.5212  2.4621
 7990TIP3    H245386   0.483   3.256   3.905  2.2685  0.6466 -0.4070
 7991TIP3   OH245387   2.909   5.344  17.153  0.6066  0.1298  0.7223
 7991TIP3    H145388   2.944   5.258  17.130  1.1428  0.3486  0.7071
 7991TIP3    H245389   2.855   5.328  17.231 -1.7021 -0.7242 -0.9409
 7992TIP3   OH245390   2.939   0.793  11.110 -0.3639  0.3215 -0.3495
 7992TIP3    H145391   2.957   0.738  11.034 -1.4808 -1.0901  0.3511
 7992TIP3    H245392   2.845   0.808  11.107 -0.4863 -0.0815  0.9537
 7993TIP3   OH245393   4.100   4.374   2.539 -0.2611  0.1334 -0.6475
 7993TIP3    H145394   4.081   4.406   2.627 -0.4705 -0.2805 -0.5424
 7993TIP3    H245395   4.043   4.298   2.527  0.6827 -0.5971 -0.6573
 7994TIP3   OH245396   5.591   3.673  13.282  0.2736  0.2707 -0.2098
 7994TIP3    H145397   5.584   3.582  13.255 -1.8383 -0.5430  2.5811
 7994TIP3    H245398   5.505   3.711  13.265 -0.3948  0.3476  2.7433
 7995TIP3   OH245399   4.679   3.432  10.826 -0.9026 -0.3201  0.0237
 7995TIP3    H145400   4.752   3.492  10.812 -1.2483 -0.1852 -1.3726
 7995TIP3    H245401   4.701   3.355  10.775 -1.7257 -0.2779 -0.4162
 7996TIP3   OH245402   2.594   5.176  13.166 -0.0752  0.5062 -0.0147
 7996TIP3    H145403   2.682   5.189  13.202  0.1884 -0.3700 -0.3225
 7996TIP3    H245404   2.584   5.081  13.160 -0.9277  0.6048 -0.2728
 7997TIP3   OH245405   3.303   0.824   1.241  0.1911  0.0589  0.1828
 7997TIP3    H145406   3.390   0.782   1.235  0.4503  0.7657 -1.2362
 7997TIP3    H245407   3.263   0.808   1.156 -0.1267  1.7845 -0.0144
 7998TIP3   OH245408   3.539   2.812   3.705  0.1500 -0.4410  0.2034
 7998TIP3    H145409   3.474   2.873   3.737  2.2677  2.5732 -0.8209
 7998TIP3    H245410   3.493   2.761   3.638 -2.4818 -2.3064  3.1051
 7999TIP3   OH245411   6.241   3.919   5.758 -0.0918  0.3237 -0.4361
 7999TIP3    H145412   6.304   3.878   5.817 -1.0362  0.6980  0.8788
 7999TIP3    H245413   6.167   3.858   5.756 -1.1288  1.4970  0.8121
 8000TIP3   OH245414   6.363   0.573   3.291  0.3145  0.8328 -0.2761
 8000TIP3    H145415   6.320   0.518   3.357  1.7044  1.5718  1.3409
 8000TIP3    H245416   6.314   0.655   3.294 -0.5015  0.4058 -1.2335
 8001TIP3   OH245417   0.248   3.156   4.943  0.0009 -0.3586 -0.3761
 8001TIP3    H145418   0.344   3.159   4.950 -0.0777 -1.2431  1.8989
 8001TIP3    H245419   0.231   3.165   4.849  2.2443  0.9500 -0.7434
 8002TIP3   OH245420   4.233   2.551   3.963 -0.4497 -0.0581  0.2276
 8002TIP3    H145421   4.172   2.587   4.027  1.3033  2.0253  0.8725
 8002TIP3    H245422   4.303   2.512   4.016 -0.3117 -0.7847 -0.4684
 8003TIP3   OH245423   5.410   5.904   6.850  0.2589 -0.2077  0.3064
 8003TIP3    H145424   5.426   5.887   6.757 -2.3818 -0.9371 -0.0986
 8003TIP3    H245425   5.346   5.975   6.850  1.0506  0.5417  1.6455
 8004TIP3   OH245426   3.677   2.486  11.789  0.3529 -0.0672  0.4996
 8004TIP3    H145427   3.594   2.535  11.787 -0.8292 -1.9771 -0.4405
 8004TIP3    H245428   3.673   2.436  11.870 -0.0634 -1.1559 -0.1695
 8005TIP3   OH245429   2.158   3.641  13.783  0.3219 -0.0705 -0.3430
 8005TIP3    H145430   2.219   3.690  13.837 -1.4797  1.3080  0.5467
 8005TIP3    H245431   2.135   3.564  13.835 -0.1494  0.4045  0.1597
 8006TIP3   OH245432   6.129   0.243   3.906  0.7200 -0.9013 -0.1788
 8006TIP3    H145433   6.078   0.184   3.962  0.6883 -1.3407 -0.6632
 8006TIP3    H245434   6.115   0.210   3.817 -0.7410  0.8988 -0.6733
 8007TIP3   OH245435   5.451   4.858  13.514 -0.5616 -0.2513 -0.2506
 8007TIP3    H145436   5.542   4.874  13.491 -0.7453 -1.8427 -2.3383
 8007TIP3    H245437   5.456   4.800  13.590  0.1647 -0.5436 -0.5123
 8008TIP3   OH245438   2.976   5.577   1.953 -0.5871 -0.9987 -0.1939
 8008TIP3    H145439   3.019   5.495   1.930  1.6220  0.2946 -0.9636
 8008TIP3    H245440   2.945   5.613   1.870 -0.4461 -0.4779 -0.0274
 8009TIP3   OH245441   6.718   3.805   5.515 -0.4584  0.4755  0.3283
 8009TIP3    H145442   6.681   3.826   5.602 -2.5122 -1.0298 -0.1020
 8009TIP3    H245443   6.641   3.799   5.458  0.8848  2.2008 -1.8426
 8010TIP3   OH245444   6.183   5.448  11.778  0.1645  0.7216  0.5494
 8010TIP3    H145445   6.243   5.373  11.783 -0.4028  0.1489 -0.6475
 8010TIP3    H245446   6.212   5.507  11.847  1.8680  0.2898  0.2539
 8011TIP3   OH245447   1.976   2.224   5.102  0.0108 -0.0099  0.0748
 8011TIP3    H145448   2.048   2.175   5.140 -0.2536 -1.0620 -0.7217
 8011TIP3    H245449   2.009   2.253   5.017 -0.7840 -1.3090 -0.7127
 8012TIP3   OH245450   3.182   2.358  15.424  0.1621 -0.6313  0.1475
 8012TIP3    H145451   3.275   2.367  15.405  0.1984  0.7229  0.8614
 8012TIP3    H245452   3.144   2.442  15.399 -0.4551 -0.2737  2.0950
 8013TIP3   OH245453   1.175   6.188   2.595  0.1751  0.4146 -0.2326
 8013TIP3    H145454   1.190   6.102   2.633  2.9333  0.7465 -0.3953
 8013TIP3    H245455   1.190   6.250   2.668  1.0380  0.8532 -0.7673
 8014TIP3   OH245456   6.406   5.447   4.066  0.3032  0.2546 -0.0641
 8014TIP3    H145457   6.465   5.522   4.055 -1.5529  2.0071  1.3733
 8014TIP3    H245458   6.353   5.447   3.986  0.4832  0.3191 -0.1841
 8015TIP3   OH245459   3.602   0.443  14.280  0.3714 -0.0015 -1.1463
 8015TIP3    H145460   3.677   0.484  14.323 -0.0414 -1.3286  0.9949
 8015TIP3    H245461   3.640   0.370  14.230  0.6695  0.3050 -1.3688
 8016TIP3   OH245462   2.734   0.555   6.333 -0.6359 -0.1427 -0.2913
 8016TIP3    H145463   2.668   0.609   6.377  1.2969  2.2879 -0.1150
 8016TIP3    H245464   2.796   0.531   6.401  0.3417  0.3680 -0.9675
 8017TIP3   OH245465   6.068   1.392  16.864  0.0667  0.0154 -0.1937
 8017TIP3    H145466   6.120   1.321  16.903 -0.5271 -0.2425  0.1446
 8017TIP3    H245467   6.132   1.461  16.846  0.2945  0.3799  1.7733
 8018TIP3   OH245468   4.725   2.138   0.316 -0.0884  0.0609  0.2638
 8018TIP3    H145469   4.633   2.118   0.337 -0.5928  0.2494 -1.5356
 8018TIP3    H245470   4.775   2.098   0.387 -1.6050  1.0610  1.9908
 8019TIP3   OH245471   5.344   0.069  13.731 -0.4568  0.0443  0.5369
 8019TIP3    H145472   5.266   0.065  13.675  0.8482 -0.2612 -1.3553
 8019TIP3    H245473   5.368   0.161  13.732 -0.0882 -0.0393 -0.0127
 8020TIP3   OH245474   0.562   5.634   3.452  0.1805 -0.1367 -0.4289
 8020TIP3    H145475   0.623   5.617   3.524 -1.1927  0.0738  0.8403
 8020TIP3    H245476   0.499   5.562   3.458 -0.3671  0.2964 -0.9574
 8021TIP3   OH245477   0.211   3.722  12.948  0.4010 -0.2093 -0.4006
 8021TIP3    H145478   0.169   3.763  13.024  1.9371 -0.7704  0.7959
 8021TIP3    H245479   0.139   3.707  12.887 -1.0266 -0.3654  1.2184
 8022TIP3   OH245480   6.480   6.533   1.562 -0.0551 -0.0026 -0.2933
 8022TIP3    H145481   6.491   6.511   1.469  0.3682 -0.8380 -0.0531
 8022TIP3    H245482   6.556   6.586   1.583 -0.4569  0.6951 -0.5689
 8023TIP3   OH245483   0.897   2.107  13.660 -0.2746 -0.2467  0.1297
 8023TIP3    H145484   0.820   2.054  13.682  1.5333 -3.5243 -0.8143
 8023TIP3    H245485   0.944   2.118  13.742 -1.4213  1.3406  0.6167
 8024TIP3   OH245486   3.463   6.414  13.830 -0.0118 -0.0739 -0.5831
 8024TIP3    H145487   3.532   6.398  13.766  0.7783  0.7360  0.0446
 8024TIP3    H245488   3.464   6.337  13.886 -0.8959 -0.9203 -1.6763
 8025TIP3   OH245489   5.318   4.430  15.378 -0.1133 -0.5903 -0.2166
 8025TIP3    H145490   5.295   4.468  15.463  1.9337 -1.2636  0.6987
 8025TIP3    H245491   5.237   4.391  15.346 -1.9411  2.9357 -0.4376
 8026TIP3   OH245492   3.646   1.125   0.636  0.7270  0.4642 -0.3349
 8026TIP3    H145493   3.563   1.162   0.605 -0.8188 -1.1917  1.5482
 8026TIP3    H245494   3.709   1.145   0.566 -1.6303  0.2392 -2.6679
 8027TIP3   OH245495   5.764   0.140   0.165 -0.5269  0.0949 -0.2374
 8027TIP3    H145496   5.747   0.139   0.259  0.9354  0.8623  0.0672
 8027TIP3    H245497   5.844   0.192   0.156 -1.2634  1.0056 -2.0070
 8028TIP3   OH245498   3.870   2.613  12.898  0.0573  0.5755 -0.1820
 8028TIP3    H145499   3.876   2.634  12.991 -0.6891 -1.5571  0.3983
 8028TIP3    H245500   3.778   2.588  12.884  0.7520 -1.9298 -0.7861
 8029TIP3   OH245501   2.335   2.972   1.223 -0.1630 -0.3961 -0.0662
 8029TIP3    H145502   2.302   2.999   1.137 -0.3017  0.0635  0.1257
 8029TIP3    H245503   2.340   3.054   1.274 -1.7629 -0.8652  0.9283
 8030TIP3   OH245504   5.382   1.054   1.232  0.0891 -0.2071  0.3917
 8030TIP3    H145505   5.472   1.065   1.202 -0.8898  0.3457 -2.6475
 8030TIP3    H245506   5.383   1.084   1.323  2.4825  2.1439 -0.2968
 8031TIP3   OH245507   4.897   1.629  16.611  0.2586 -0.0252  0.5114
 8031TIP3    H145508   4.866   1.605  16.698  0.2703  1.2967  0.8868
 8031TIP3    H245509   4.851   1.569  16.552  1.2902 -1.8767  1.5073
 8032TIP3   OH245510   2.628   0.392   4.870  0.3117 -0.5190 -0.2624
 8032TIP3    H145511   2.684   0.365   4.943 -0.5556  0.5749  0.8595
 8032TIP3    H245512   2.557   0.328   4.870  0.6761 -0.9294 -0.6117
 8033TIP3   OH245513   1.012   2.815  14.842 -0.6054  0.1832  0.4492
 8033TIP3    H145514   0.994   2.877  14.913  1.4652  0.4562  0.7779
 8033TIP3    H245515   1.019   2.870  14.764  0.5567  0.3072  0.6285
 8034TIP3   OH245516   1.408   4.302   3.598 -0.2939 -0.0060  0.1704
 8034TIP3    H145517   1.332   4.358   3.614  0.5464  0.7754  1.6656
 8034TIP3    H245518   1.476   4.362   3.567  0.1533 -0.4419  0.2999
 8035TIP3   OH245519   1.111   5.944  14.909  0.3406 -0.4232  0.3089
 8035TIP3    H145520   1.168   5.989  14.972 -1.2887  1.1694  0.7007
 8035TIP3    H245521   1.170   5.921  14.836  1.8653 -0.5896  1.5328
 8036TIP3   OH245522   4.758   3.927  14.647 -0.0289  0.3734  0.2687
 8036TIP3    H145523   4.705   3.935  14.567 -0.7141 -0.7111  0.5917
 8036TIP3    H245524   4.720   3.990  14.708  1.6475  2.5573 -0.8166
 8037TIP3   OH245525   6.588   2.200   5.644  0.5268 -0.3214  0.1364
 8037TIP3    H145526   6.557   2.148   5.570 -2.2774  2.3244 -0.7576
 8037TIP3    H245527   6.569   2.148   5.721 -0.9549 -1.1759 -0.7772
 8038TIP3   OH245528   5.753   6.217   4.732  0.5905 -0.2153  0.3320
 8038TIP3    H145529   5.687   6.155   4.763 -0.4847  1.5258  1.7332
 8038TIP3    H245530   5.835   6.185   4.770  0.2500 -1.3272  0.1705
 8039TIP3   OH245531   0.567   6.443  14.921 -0.3580 -0.2274 -0.3806
 8039TIP3    H145532   0.492   6.386  14.902  0.7540 -1.3530 -1.6469
 8039TIP3    H245533   0.614   6.449  14.838 -0.9008  3.3680 -0.5942
 8040TIP3   OH245534   5.825   3.438   3.710  0.5449 -0.1605  0.2706
 8040TIP3    H145535   5.861   3.449   3.798  1.3472  0.6027 -0.1480
 8040TIP3    H245536   5.880   3.371   3.670  1.0290  0.4575 -0.1070
 8041TIP3   OH245537   4.882   2.868   5.002 -0.1653 -0.0291 -0.2895
 8041TIP3    H145538   4.940   2.885   5.076  0.5608 -0.9592 -0.6264
 8041TIP3    H245539   4.940   2.857   4.928 -0.7223 -1.4601 -0.5475
 8042TIP3   OH245540   4.779   4.200   4.666  0.3091 -0.5884  0.2498
 8042TIP3    H145541   4.841   4.221   4.596  1.0152  0.4133  1.1532
 8042TIP3    H245542   4.696   4.184   4.620 -0.5219  4.6209 -0.6755
 8043TIP3   OH245543   5.135   3.861   0.896  0.2333 -0.0497  0.2833
 8043TIP3    H145544   5.139   3.942   0.947  1.1020  0.4613 -0.5819
 8043TIP3    H245545   5.222   3.822   0.906 -0.3348 -1.1794  1.1396
 8044TIP3   OH245546   4.955   4.541   0.288  0.4843 -0.0162  0.8098
 8044TIP3    H145547   4.876   4.558   0.339 -0.1865 -1.8837  0.4870
 8044TIP3    H245548   4.959   4.446   0.280 -0.4589  0.0861 -4.0391
 8045TIP3   OH245549   1.364   1.070  15.150  0.1651 -0.4293 -0.0602
 8045TIP3    H145550   1.335   1.151  15.192 -1.7030 -0.6339 -0.8376
 8045TIP3    H245551   1.285   1.017  15.144  1.4431 -2.5622  0.8909
 8046TIP3   OH245552   5.111   5.658  14.681 -0.0422 -0.2855 -0.1720
 8046TIP3    H145553   5.111   5.739  14.731  0.5043 -0.1000 -0.4750
 8046TIP3    H245554   5.048   5.674  14.610 -1.4144 -0.8231  0.8756
 8047TIP3   OH245555   6.457   1.272  14.676 -0.3740  0.1316  0.7702
 8047TIP3    H145556   6.456   1.331  14.601 -2.2044  0.3151  0.9118
 8047TIP3    H245557   6.515   1.201  14.650 -1.5393 -0.1864 -1.1245
 8048TIP3   OH245558   2.354   4.084   4.476 -0.0125 -0.2551  0.2265
 8048TIP3    H145559   2.321   4.123   4.557 -0.6854  0.9716 -0.6010
 8048TIP3    H245560   2.449   4.086   4.486 -0.0555  0.7651  0.6116
 8049TIP3   OH245561   4.305   2.901  16.486  0.0822  0.3240  0.1579
 8049TIP3    H145562   4.222   2.855  16.472  0.6536 -0.1858 -1.8682
 8049TIP3    H245563   4.282   2.994  16.478 -0.4347  0.2389  0.5434
 8050TIP3   OH245564   2.623   2.336   5.773  0.5163  0.4560 -0.0008
 8050TIP3    H145565   2.588   2.411   5.822  0.7263 -0.0087  0.8872
 8050TIP3    H245566   2.589   2.347   5.685 -1.6428  0.1636  0.7427
 8051TIP3   OH245567   1.941   0.915   3.810  0.2432  0.9537  0.3607
 8051TIP3    H145568   1.866   0.866   3.845  0.8032 -0.5650 -0.4640
 8051TIP3    H245569   1.920   0.931   3.719  0.3611  1.6783  0.4572
 8052TIP3   OH245570   5.311   3.005   5.969  0.1266  0.5606  0.5022
 8052TIP3    H145571   5.279   3.080   5.919  1.2612  2.5827  2.6352
 8052TIP3    H245572   5.309   3.034   6.060  2.8469 -1.1276  1.2168
 8053TIP3   OH245573   1.560   6.580   3.454  0.1465  0.6033  0.0367
 8053TIP3    H145574   1.537   6.562   3.546  1.6589  0.5695  0.4458
 8053TIP3    H245575   1.477   6.602   3.412 -0.4224  1.9524  1.7246
 8054TIP3   OH245576   1.822   0.485  12.675  0.3800 -0.2263  0.2532
 8054TIP3    H145577   1.908   0.445  12.665 -0.2570 -1.4606 -0.5817
 8054TIP3    H245578   1.764   0.430  12.623 -1.3052 -0.6605  2.4356
 8055TIP3   OH245579   2.827   6.235  13.479  0.1780 -0.2056  0.2261
 8055TIP3    H145580   2.889   6.283  13.533  0.4835 -0.0550 -0.2456
 8055TIP3    H245581   2.782   6.176  13.539  0.4426  0.0266  0.6542
 8056TIP3   OH245582   5.520   4.642   0.727  0.0694  0.3056 -0.3097
 8056TIP3    H145583   5.488   4.578   0.663 -0.8308  1.2097 -0.7848
 8056TIP3    H245584   5.559   4.712   0.674  2.5341 -0.5307  0.2267
 8057TIP3   OH245585   6.024   2.475   1.745 -0.4288 -0.3264  0.2597
 8057TIP3    H145586   6.046   2.539   1.812 -1.6999 -0.1228  0.5047
 8057TIP3    H245587   5.945   2.432   1.778 -0.2922 -1.1661 -0.4749
 8058TIP3   OH245588   5.625   0.753   1.181 -0.0536 -0.2373 -0.0431
 8058TIP3    H145589   5.582   0.774   1.098 -1.7430  0.7033  1.0258
 8058TIP3    H245590   5.612   0.830   1.236 -0.1046 -1.3264  1.5530
 8059TIP3   OH245591   2.953   6.407   3.302  0.4306 -0.9330  0.5264
 8059TIP3    H145592   2.970   6.478   3.240 -0.2665  0.7331  2.1497
 8059TIP3    H245593   2.859   6.393   3.299  0.3043 -0.4445  1.5651
 8060TIP3   OH245594   2.217   4.991   2.763 -0.3057 -0.2125  0.1738
 8060TIP3    H145595   2.164   4.912   2.751 -1.1964  0.4982 -0.7458
 8060TIP3    H245596   2.155   5.056   2.797  0.1539  0.4061 -0.1517
 8061TIP3   OH245597   2.318   1.422   3.806 -0.1867 -0.4794  0.0515
 8061TIP3    H145598   2.346   1.475   3.881 -1.1294 -0.2080  0.2225
 8061TIP3    H245599   2.389   1.360   3.793 -0.6524 -1.5407  2.1435
 8062TIP3   OH245600   4.473   3.712  14.458 -0.3156  0.2126  0.5846
 8062TIP3    H145601   4.400   3.653  14.475 -0.4412  1.0345  3.6309
 8062TIP3    H245602   4.455   3.788  14.514  2.0689  1.1327  0.2255
 8063TIP3   OH245603   6.120   3.286  11.941  0.6059  0.0397 -0.0534
 8063TIP3    H145604   6.144   3.375  11.966  0.1556 -0.4239  2.2490
 8063TIP3    H245605   6.092   3.245  12.022 -1.5395 -1.4860 -1.4661
 8064TIP3   OH245606   0.431   6.553   0.171 -0.1191 -1.0741 -0.0623
 8064TIP3    H145607   0.442   6.647   0.154 -0.6721 -1.1550 -1.0008
 8064TIP3    H245608   0.341   6.545   0.202 -0.4183 -1.3859 -0.9509
 8065TIP3   OH245609   0.830   0.472   6.029  0.2993  0.0868  0.3790
 8065TIP3    H145610   0.829   0.567   6.044 -2.0762  0.4550 -1.5080
 8065TIP3    H245611   0.751   0.440   6.073  1.1960 -1.1119  1.1947
 8066TIP3   OH245612   3.720   5.511   3.008 -0.0070  0.6138  0.5958
 8066TIP3    H145613   3.638   5.466   3.029  0.0443 -0.0484 -0.5717
 8066TIP3    H245614   3.779   5.442   2.979  1.6525  0.7631  3.2029
 8067TIP3   OH245615   1.477   0.115  15.593  0.1459 -0.2281 -0.8660
 8067TIP3    H145616   1.436   0.051  15.651 -0.2215  1.1610  0.4881
 8067TIP3    H245617   1.411   0.132  15.525 -0.8215  0.5787  0.2242
 8068TIP3   OH245618   3.603   2.583   2.200 -0.4344 -0.0497 -0.2716
 8068TIP3    H145619   3.673   2.533   2.158 -0.0052  0.6603 -0.4135
 8068TIP3    H245620   3.550   2.615   2.127 -2.1777 -2.3127 -0.1316
 8069TIP3   OH245621   4.669   1.207  16.458  0.2698 -0.4495  0.4168
 8069TIP3    H145622   4.711   1.169  16.381  0.2532  0.0797  0.1396
 8069TIP3    H245623   4.609   1.140  16.489 -0.2553 -0.3980 -0.4603
 8070TIP3   OH245624   2.573   2.188   4.737  0.4991 -0.5289 -0.1083
 8070TIP3    H145625   2.562   2.251   4.665 -2.0073 -0.9713 -0.1756
 8070TIP3    H245626   2.492   2.193   4.787  1.0727 -2.2428  1.0857
 8071TIP3   OH245627   4.646   4.723  15.829  1.0286  0.1672  0.0258
 8071TIP3    H145628   4.648   4.647  15.887 -0.4627  0.1367  0.0871
 8071TIP3    H245629   4.735   4.731  15.795  1.2431 -1.5200  0.1384
 8072TIP3   OH245630   0.100   1.322  14.714 -0.1782  0.2885 -0.0974
 8072TIP3    H145631   0.163   1.258  14.681 -0.1795  0.1056  0.2497
 8072TIP3    H245632   0.087   1.298  14.806 -1.3123 -0.1308 -0.3449
 8073TIP3   OH245633   6.511   4.226  10.558 -0.5198 -0.4181  0.0607
 8073TIP3    H145634   6.444   4.283  10.518  1.1268  0.7321 -1.1664
 8073TIP3    H245635   6.591   4.279  10.557  0.2770 -1.4631  2.2144
 8074TIP3   OH245636   1.071   2.903   2.457 -0.1611  0.0555  0.9963
 8074TIP3    H145637   1.152   2.853   2.448 -0.4262 -0.6121  2.0431
 8074TIP3    H245638   1.014   2.846   2.510 -0.4207  1.5265  2.3816
 8075TIP3   OH245639   0.552   6.428   0.385  0.2538 -0.0281 -0.4500
 8075TIP3    H145640   0.507   6.463   0.308 -2.5795 -1.0687  0.6195
 8075TIP3    H245641   0.568   6.336   0.364 -0.4364 -0.2903  0.1374
 8076TIP3   OH245642   0.781   3.807   2.134  0.8189  0.0349  0.3938
 8076TIP3    H145643   0.796   3.885   2.081  1.4049  0.2907  0.9240
 8076TIP3    H245644   0.866   3.787   2.172  0.5168 -0.4435  0.8297
 8077TIP3   OH245645   2.837   3.158  13.051 -0.3091  0.7089 -0.3017
 8077TIP3    H145646   2.816   3.070  13.020  1.4220 -0.4081  1.4570
 8077TIP3    H245647   2.866   3.205  12.973 -1.7233 -0.0973 -1.3536
 8078TIP3   OH245648   4.494   3.768  14.917 -0.2729  0.4004 -0.1677
 8078TIP3    H145649   4.425   3.703  14.933 -0.2540  0.2897 -0.5298
 8078TIP3    H245650   4.573   3.716  14.902 -0.5212  0.4550 -1.7750
 8079TIP3   OH245651   3.210   1.828  12.425  0.1230  0.2160  0.4703
 8079TIP3    H145652   3.263   1.787  12.493  0.4007  3.6524  2.5481
 8079TIP3    H245653   3.274   1.866  12.365 -0.0850  0.0310  0.1290
 8080TIP3   OH245654   4.281   5.417  13.131 -0.4349 -0.6348  0.4550
 8080TIP3    H145655   4.270   5.480  13.202 -2.5635  0.2684 -0.5899
 8080TIP3    H245656   4.204   5.361  13.136 -0.2643 -1.0055 -0.7119
 8081TIP3   OH245657   3.242   1.632   0.952  0.2686  0.3456 -0.0958
 8081TIP3    H145658   3.182   1.568   0.915 -1.4516  1.7335  0.1383
 8081TIP3    H245659   3.329   1.607   0.919 -0.3699 -1.8853 -0.2209
 8082TIP3   OH245660   5.879   3.862   6.183  0.1514 -0.0396  0.6533
 8082TIP3    H145661   5.881   3.958   6.178  1.9806 -0.1157 -1.4509
 8082TIP3    H245662   5.812   3.837   6.120  1.7156 -0.1608 -1.0434
 8083TIP3   OH245663   4.246   5.908   6.164 -0.4144  0.2024 -0.1337
 8083TIP3    H145664   4.234   5.890   6.258 -2.0727  0.5861 -0.2396
 8083TIP3    H245665   4.306   5.840   6.134 -0.6225 -0.5256  1.0234
 8084TIP3   OH245666   5.783   3.080   1.752  0.0573 -0.6587 -0.1715
 8084TIP3    H145667   5.765   3.166   1.788 -0.9386 -0.5879 -0.8093
 8084TIP3    H245668   5.798   3.096   1.658  0.0791 -1.1452 -0.2556
 8085TIP3   OH245669   4.875   0.496  16.150 -0.1759 -0.6864  0.0938
 8085TIP3    H145670   4.799   0.465  16.199 -0.8740  0.4933 -0.1932
 8085TIP3    H245671   4.868   0.592  16.153  0.9140 -0.5665 -0.5444
 8086TIP3   OH245672   5.274   5.441   6.454  1.1103  0.1275  0.8214
 8086TIP3    H145673   5.337   5.389   6.504  0.6724 -1.9633 -0.6771
 8086TIP3    H245674   5.192   5.434   6.503  0.7012 -1.8519 -0.0528
 8087TIP3   OH245675   4.208   4.810  11.045  0.2427  0.0668  0.4380
 8087TIP3    H145676   4.132   4.861  11.016  0.1212 -0.8784 -1.0126
 8087TIP3    H245677   4.214   4.828  11.139 -1.1511  0.9688  0.3881
 8088TIP3   OH245678   2.280   6.246  11.805 -0.0903 -0.1572 -0.4151
 8088TIP3    H145679   2.228   6.294  11.869  2.2503 -1.5342  2.7797
 8088TIP3    H245680   2.218   6.186  11.764 -1.4038 -0.5562  1.9815
 8089TIP3   OH245681   3.972   1.094   1.266  0.1629  0.0713  0.3045
 8089TIP3    H145682   4.061   1.116   1.292  1.2632 -1.3332 -1.9367
 8089TIP3    H245683   3.930   1.062   1.346  1.5191  1.1206  1.4767
 8090TIP3   OH245684   5.530   5.334   1.636 -0.2545 -0.5742 -0.0286
 8090TIP3    H145685   5.475   5.285   1.697  0.1477 -0.8952  0.0827
 8090TIP3    H245686   5.588   5.268   1.598 -0.3837 -0.3442 -0.6286
 8091TIP3   OH245687   0.791   0.123  17.225 -0.3388 -0.1164  0.3214
 8091TIP3    H145688   0.792   0.100  17.318 -1.4458  1.2912  0.7054
 8091TIP3    H245689   0.739   0.203  17.220 -1.2571 -0.7730 -1.6594
 8092TIP3   OH245690   2.872   4.650  12.142  0.2890  0.1171 -0.3501
 8092TIP3    H145691   2.843   4.595  12.069 -1.5671  0.5809 -0.0102
 8092TIP3    H245692   2.907   4.588  12.206 -1.0048 -0.6239 -0.3210
 8093TIP3   OH245693   6.345   4.446   1.851 -0.1830  0.1717 -0.0794
 8093TIP3    H145694   6.415   4.391   1.885 -0.3751 -0.9867 -1.4984
 8093TIP3    H245695   6.268   4.422   1.903  0.4206  1.5786  1.6124
 8094TIP3   OH245696   3.046   3.184  14.108  0.0436 -0.5393 -0.1300
 8094TIP3    H145697   3.101   3.165  14.184 -0.4154  1.4679  0.7597
 8094TIP3    H245698   2.957   3.183  14.142 -0.1197  1.1197 -0.4605
 8095TIP3   OH245699   1.779   5.566   5.001 -0.3533 -0.3787 -0.4541
 8095TIP3    H145700   1.733   5.486   4.977  0.5356 -1.2818  0.7176
 8095TIP3    H245701   1.716   5.615   5.053 -0.2467 -1.2881  0.5667
 8096TIP3   OH245702   6.656   2.680  14.436 -0.7847 -0.4945  0.4708
 8096TIP3    H145703   6.576   2.702  14.388  0.0537  0.2982 -0.6025
 8096TIP3    H245704   6.720   2.660  14.367 -0.5344 -2.9759  1.3236
 8097TIP3   OH245705   2.570   4.806  17.141  0.0164 -0.1912  0.4378
 8097TIP3    H145706   2.574   4.800  17.236  1.4395  0.5507  0.4656
 8097TIP3    H245707   2.626   4.735  17.110  1.6608  1.0836  0.2774
 8098TIP3   OH245708   6.413   3.645   2.159  0.7852 -0.2363  0.4998
 8098TIP3    H145709   6.460   3.644   2.242 -0.4310 -1.3510  1.2291
 8098TIP3    H245710   6.425   3.557   2.123 -0.4547 -0.4684  0.5769
 8099TIP3   OH245711   3.802   3.905  16.443  0.2283  0.3913  0.6252
 8099TIP3    H145712   3.863   3.831  16.440  0.3137  0.4573  0.7011
 8099TIP3    H245713   3.715   3.865  16.445  0.2092  0.3065 -0.7691
 8100TIP3   OH245714   5.585   1.951  14.346  0.2680 -0.6576 -0.4217
 8100TIP3    H145715   5.609   2.043  14.338  2.6584 -1.0767  0.8853
 8100TIP3    H245716   5.608   1.912  14.262  0.7363 -0.3386 -0.4441
 8101TIP3   OH245717   1.791   4.897   3.817  0.3581  0.4840  0.2198
 8101TIP3    H145718   1.717   4.842   3.841 -0.0586  0.7752 -0.3763
 8101TIP3    H245719   1.850   4.839   3.771 -0.1873  0.5741 -0.6125
 8102TIP3   OH245720   2.530   4.782  16.647  0.4096 -0.9143 -0.2683
 8102TIP3    H145721   2.543   4.855  16.708 -0.1210  0.2585 -1.5090
 8102TIP3    H245722   2.619   4.748  16.632  1.0623  1.1812 -1.6632
 8103TIP3   OH245723   5.582   0.901  14.385  0.0348 -0.1577 -0.4207
 8103TIP3    H145724   5.507   0.954  14.412 -0.1292 -0.3895 -0.4134
 8103TIP3    H245725   5.549   0.849  14.311  0.4381  0.3715 -0.9844
 8104TIP3   OH245726   2.765   3.236  16.716  0.0609  0.2655  0.9569
 8104TIP3    H145727   2.765   3.292  16.639 -1.7479 -0.2153  0.5526
 8104TIP3    H245728   2.744   3.149  16.682 -0.4381 -0.0138  1.9465
 8105TIP3   OH245729   2.399   5.995  15.434 -0.0586  0.3355 -0.4879
 8105TIP3    H145730   2.304   6.007  15.430 -0.0737  0.1818 -0.6230
 8105TIP3    H245731   2.416   5.922  15.373  0.0610 -0.1082  0.0650
 8106TIP3   OH245732   5.081   5.094   5.606  0.4463  0.0291  0.2700
 8106TIP3    H145733   5.148   5.118   5.542  1.9197  0.1972  1.8271
 8106TIP3    H245734   4.998   5.119   5.563  1.3942  0.5321 -1.3747
 8107TIP3   OH245735   5.331   1.026   0.817  0.2067  0.0370 -0.4304
 8107TIP3    H145736   5.291   0.973   0.748 -1.4783  1.7194 -0.8564
 8107TIP3    H245737   5.419   1.044   0.785  0.8612 -2.4951 -0.2224
 8108TIP3   OH245738   6.493   4.103  12.431 -0.0935  0.2361  0.3384
 8108TIP3    H145739   6.455   4.087  12.345 -0.3577 -0.5230  0.5904
 8108TIP3    H245740   6.436   4.168  12.472  0.3790  1.0670 -0.2832
 8109TIP3   OH245741   6.243   6.325   5.310  0.4541 -0.4025  0.0017
 8109TIP3    H145742   6.186   6.299   5.237  1.4906 -0.0527 -0.9651
 8109TIP3    H245743   6.314   6.373   5.268  1.1300 -0.2894  1.2501
 8110TIP3   OH245744   3.179   5.507  16.946  0.4283 -0.1742 -0.3250
 8110TIP3    H145745   3.243   5.472  16.885 -0.6765 -0.3638 -1.4106
 8110TIP3    H245746   3.113   5.438  16.953 -0.3370  0.5503 -0.2829
 8111TIP3   OH245747   3.824   3.896  14.081 -0.4962 -0.5859 -0.0089
 8111TIP3    H145748   3.891   3.945  14.033  0.7429  0.0222  2.2200
 8111TIP3    H245749   3.742   3.941  14.059 -0.0323 -0.4981 -1.7031
 8112TIP3   OH245750   2.464   6.692  12.804 -0.1238 -0.0199  0.3609
 8112TIP3    H145751   2.425   6.651  12.728 -3.2608  0.9697  1.3008
 8112TIP3    H245752   2.534   6.632  12.831 -0.3210 -1.4232 -2.0059
 8113TIP3   OH245753   2.663   5.764   2.702 -0.3934 -0.4850  0.0164
 8113TIP3    H145754   2.755   5.738   2.694 -0.9987 -2.6331 -0.6732
 8113TIP3    H245755   2.615   5.703   2.645 -2.4160 -0.5600  1.6565
 8114TIP3   OH245756   4.973   6.191   5.567 -0.0011  0.1322 -0.1933
 8114TIP3    H145757   4.892   6.182   5.618  0.8452 -1.5577  0.9439
 8114TIP3    H245758   4.963   6.276   5.523 -2.5950 -0.2479 -0.5218
 8115TIP3   OH245759   3.060   5.857   1.163 -0.5970  0.7463 -0.1576
 8115TIP3    H145760   3.106   5.939   1.147  1.2326 -0.0393  0.7982
 8115TIP3    H245761   3.099   5.794   1.102 -0.5632  0.1234  0.4825
 8116TIP3   OH245762   5.607   2.214  13.847 -0.8112  0.3089  0.3259
 8116TIP3    H145763   5.666   2.261  13.907 -0.7167 -0.0365  0.5084
 8116TIP3    H245764   5.520   2.246  13.869 -0.7404  0.4495  0.4040
 8117TIP3   OH245765   0.549   3.973  11.474 -0.1834  0.6566  0.4721
 8117TIP3    H145766   0.522   3.954  11.384 -0.2384 -2.2483  0.9902
 8117TIP3    H245767   0.608   3.901  11.496 -0.3504  1.1863  2.8223
 8118TIP3   OH245768   5.999   1.029  17.231 -0.3384 -0.5892 -0.5532
 8118TIP3    H145769   6.020   1.094  17.298  0.7725 -2.9006  1.4675
 8118TIP3    H245770   6.060   1.048  17.160  1.2899 -0.5357  0.7992
 8119TIP3   OH245771   1.034   2.307   0.745  0.0741 -0.7502  0.2408
 8119TIP3    H145772   1.092   2.231   0.733  1.1161  0.2773 -1.5759
 8119TIP3    H245773   0.968   2.298   0.677  2.3890  1.8380 -2.6388
 8120TIP3   OH245774   6.488   5.363  15.647  0.0562 -0.2238 -0.1173
 8120TIP3    H145775   6.442   5.373  15.730 -0.2654  0.2473 -0.3496
 8120TIP3    H245776   6.531   5.277  15.653  0.1769 -0.1160  0.6017
 8121TIP3   OH245777   1.987   4.825  10.918 -0.2178  0.1014  0.0047
 8121TIP3    H145778   2.025   4.911  10.900 -2.3184  0.9714 -0.6104
 8121TIP3    H245779   1.946   4.799  10.836 -0.6397 -0.9185  0.5205
 8122TIP3   OH245780   5.613   3.213  15.987 -0.2956  0.3762  0.0379
 8122TIP3    H145781   5.544   3.260  16.034 -2.0970 -0.8499 -1.2670
 8122TIP3    H245782   5.631   3.136  16.040  0.2050  0.7489  0.4319
 8123TIP3   OH245783   6.277   3.748   3.465 -0.1248  0.3047  0.7882
 8123TIP3    H145784   6.212   3.679   3.452  0.6049 -0.5671  1.5890
 8123TIP3    H245785   6.317   3.727   3.550 -0.8306  2.4989  1.7446
 8124TIP3   OH245786   0.199   1.458   0.361 -0.0365  0.2000  0.2654
 8124TIP3    H145787   0.216   1.496   0.275  2.4020 -0.4597  0.3965
 8124TIP3    H245788   0.121   1.404   0.348  0.0129  0.4930 -1.4133
 8125TIP3   OH245789   0.828   0.093   1.903  0.2086 -0.6613  0.0718
 8125TIP3    H145790   0.766   0.104   1.975 -0.6772  1.6087 -0.9661
 8125TIP3    H245791   0.911   0.075   1.947 -0.4677 -0.2314  1.6261
 8126TIP3   OH245792   3.778   5.243   3.568 -0.4666  0.3386 -0.4727
 8126TIP3    H145793   3.718   5.314   3.590  0.3110  0.4078  1.5920
 8126TIP3    H245794   3.816   5.216   3.651  3.6979  1.4382 -1.7892
 8127TIP3   OH245795   6.042   5.738  16.226  0.5976  0.3399 -0.2308
 8127TIP3    H145796   6.122   5.790  16.221  0.6332  0.1809 -1.6536
 8127TIP3    H245797   5.991   5.780  16.296  2.6464 -0.6409  2.0165
 8128TIP3   OH245798   0.761   1.837  12.473  0.1810 -0.3023  0.3073
 8128TIP3    H145799   0.705   1.910  12.498  0.8579  0.4517 -0.3182
 8128TIP3    H245800   0.701   1.773  12.434 -0.1813  0.7966 -1.0263
 8129TIP3   OH245801   2.645   1.998  14.399  0.5152  0.1282 -0.8902
 8129TIP3    H145802   2.591   2.063  14.355  0.0341 -0.5967 -1.3934
 8129TIP3    H245803   2.672   2.040  14.480 -1.5222  0.2179 -0.2006
 8130TIP3   OH245804   1.909   1.299  14.590 -0.1684 -0.0809 -0.6178
 8130TIP3    H145805   1.931   1.344  14.508 -0.0656  0.0765 -0.5051
 8130TIP3    H245806   1.945   1.356  14.658  2.1106 -1.5001 -0.5449
 8131TIP3   OH245807   3.238   2.837   6.577 -0.2790 -0.9016  0.1908
 8131TIP3    H145808   3.163   2.805   6.628  0.0388  0.9969  1.9749
 8131TIP3    H245809   3.199   2.892   6.509 -0.5636 -0.9684  0.2993
 8132TIP3   OH245810   0.411   2.228   4.878  0.0377 -0.3263  0.3625
 8132TIP3    H145811   0.494   2.179   4.881 -0.2494 -0.8100  0.4015
 8132TIP3    H245812   0.411   2.280   4.959  0.5565  0.0960  0.0995
 8133TIP3   OH245813   2.542   0.732   6.457  0.0048 -0.2345  0.3356
 8133TIP3    H145814   2.493   0.731   6.539  0.3693  1.1693  0.5945
 8133TIP3    H245815   2.530   0.820   6.423  0.6505 -0.5069 -0.6439
 8134TIP3   OH245816   0.688   2.981  12.635 -0.1855 -0.0907 -0.3313
 8134TIP3    H145817   0.723   2.893  12.651 -0.4500 -0.1038  0.1853
 8134TIP3    H245818   0.763   3.039  12.650 -0.3099 -0.1402  0.5272
 8135TIP3   OH245819   0.513   4.353  17.078 -0.0457 -0.0594  0.1671
 8135TIP3    H145820   0.475   4.428  17.033 -1.2397  0.3491  1.7803
 8135TIP3    H245821   0.601   4.382  17.103 -1.0727  1.5509  2.2957
 8136TIP3   OH245822   2.286   3.454  16.300 -0.2765  0.0380 -0.0169
 8136TIP3    H145823   2.248   3.532  16.260 -0.5029  0.5547  1.1441
 8136TIP3    H245824   2.347   3.420  16.235 -1.3024  0.3052 -1.1541
 8137TIP3   OH245825   3.762   6.688   2.475  0.1918  0.0132 -0.1157
 8137TIP3    H145826   3.832   6.730   2.526 -0.1975  0.4927  0.0325
 8137TIP3    H245827   3.749   6.604   2.518  1.1006 -0.3415 -0.5210
 8138TIP3   OH245828   2.373   4.018  11.816  0.1786  1.2884 -0.3561
 8138TIP3    H145829   2.364   4.051  11.905  0.2800  0.3153  0.0289
 8138TIP3    H245830   2.441   3.950  11.822 -0.0396  0.9919 -1.1032
 8139TIP3   OH245831   0.629   0.586  16.925  0.0122  0.3083  0.2694
 8139TIP3    H145832   0.552   0.626  16.885 -0.5855 -1.4239 -0.4396
 8139TIP3    H245833   0.617   0.492  16.910  0.0283 -0.4733  4.0651
 8140TIP3   OH245834   4.411   4.476   2.806  0.0078 -0.2375  0.0728
 8140TIP3    H145835   4.384   4.460   2.716  1.0436  1.0229 -0.4957
 8140TIP3    H245836   4.364   4.410   2.858  1.3717 -2.7206 -1.6630
 8141TIP3   OH245837   1.743   3.831   3.650  0.7642  0.1835  0.3016
 8141TIP3    H145838   1.746   3.889   3.726  2.1114  0.5392  0.0031
 8141TIP3    H245839   1.801   3.871   3.586 -1.9691  1.0851 -1.8269
 8142TIP3   OH245840   2.715   3.001  17.123  0.0354  0.0509  0.3338
 8142TIP3    H145841   2.641   3.061  17.125  0.6609  1.0558 -2.3349
 8142TIP3    H245842   2.692   2.937  17.055  0.8745 -0.6735  0.7147
 8143TIP3   OH245843   4.512   1.062  16.897 -0.2337  0.0971  0.3009
 8143TIP3    H145844   4.444   1.001  16.872  0.3152 -0.1257 -0.7063
 8143TIP3    H245845   4.473   1.115  16.967 -2.3163  1.5719 -1.8277
 8144TIP3   OH245846   4.555   6.635   0.544  0.9443  0.2438 -1.1091
 8144TIP3    H145847   4.527   6.714   0.591 -0.3246 -0.4384 -0.6534
 8144TIP3    H245848   4.564   6.664   0.453 -1.2950  0.5635 -1.2894
 8145TIP3   OH245849   1.885   2.477   4.723  0.4069 -0.1312 -0.5366
 8145TIP3    H145850   1.944   2.524   4.663  1.1875 -2.2619 -1.5550
 8145TIP3    H245851   1.802   2.473   4.676  0.5080 -0.2487 -0.7101
 8146TIP3   OH245852   5.502   3.432   6.096 -0.1017 -0.2051  0.3010
 8146TIP3    H145853   5.527   3.340   6.110  0.1950 -0.0709  0.6417
 8146TIP3    H245854   5.482   3.436   6.002 -1.9104 -1.0520  0.6152
 8147TIP3   OH245855   3.553   3.288   2.011 -0.3620 -0.2194 -0.2495
 8147TIP3    H145856   3.550   3.198   2.044 -0.6589 -0.1001  0.0509
 8147TIP3    H245857   3.646   3.311   2.012 -0.3131 -0.4289 -0.0708
 8148TIP3   OH245858   4.261   5.342  12.589 -0.4767  0.9797  0.2003
 8148TIP3    H145859   4.285   5.319  12.499 -0.3449  0.6979  0.3071
 8148TIP3    H245860   4.255   5.437  12.589  1.1481  1.1129  0.2866
 8149TIP3   OH245861   3.518   5.114  12.121 -0.5740  0.1948  0.2896
 8149TIP3    H145862   3.467   5.074  12.191 -0.0223  0.9494  1.1416
 8149TIP3    H245863   3.462   5.109  12.044 -1.1468 -0.7519  0.7537
 8150TIP3   OH245864   1.477   4.865  14.353  0.6991  0.6732 -0.1541
 8150TIP3    H145865   1.464   4.823  14.438  0.5861  0.2354 -0.3838
 8150TIP3    H245866   1.431   4.808  14.291  1.6112  0.4540 -0.6449
 8151TIP3   OH245867   6.471   3.188  14.565 -0.5376 -0.0206  0.1211
 8151TIP3    H145868   6.430   3.148  14.488 -0.2727  1.4791 -0.8446
 8151TIP3    H245869   6.516   3.266  14.531 -1.7079  1.5911  2.0037
 8152TIP3   OH245870   1.938   5.740  10.779 -0.1200 -0.6836  0.0782
 8152TIP3    H145871   1.960   5.655  10.741 -1.6453 -0.7675 -0.6821
 8152TIP3    H245872   1.871   5.720  10.844 -1.3419  0.0460 -0.9215
 8153TIP3   OH245873   5.274   2.186   1.377 -0.1176  0.2221  0.5564
 8153TIP3    H145874   5.303   2.224   1.460 -0.1772  0.5432  0.4319
 8153TIP3    H245875   5.238   2.260   1.328 -0.3146 -0.0112  0.3458
 8154TIP3   OH245876   3.136   4.650  13.958 -0.1173 -0.0895 -0.0222
 8154TIP3    H145877   3.107   4.559  13.960  0.1447 -0.1703  0.4418
 8154TIP3    H245878   3.076   4.696  14.017 -0.5138  0.1238 -0.5868
 8155TIP3   OH245879   3.670   5.084   1.862 -0.0658 -0.0059  0.1141
 8155TIP3    H145880   3.608   5.113   1.930  1.4940  0.6699  1.2988
 8155TIP3    H245881   3.646   5.135   1.785 -1.3841 -0.2304  0.3459
 8156TIP3   OH245882   6.710   2.435   5.087  0.2692  0.1655  0.1649
 8156TIP3    H145883   6.682   2.430   5.178  0.5099  0.4098  0.2547
 8156TIP3    H245884   6.780   2.501   5.087 -0.2172  0.6970 -0.3140
 8157TIP3   OH245885   0.108   0.223   4.623  0.0355  0.4157  0.2775
 8157TIP3    H145886   0.100   0.252   4.714  1.7103  0.5297  0.4256
 8157TIP3    H245887   0.025   0.246   4.582 -1.5668 -1.4338  2.2615
 8158TIP3   OH245888   2.641   1.256   1.504 -0.0897  0.0426  0.2035
 8158TIP3    H145889   2.617   1.165   1.485  1.2631 -0.3453  0.2341
 8158TIP3    H245890   2.568   1.290   1.556 -1.3658 -0.5197 -1.1533
 8159TIP3   OH245891   1.818   3.573  13.394 -0.8235  0.2671 -0.4158
 8159TIP3    H145892   1.802   3.558  13.301 -0.6944  0.6220 -0.4989
 8159TIP3    H245893   1.813   3.668  13.404  0.9751  0.4120 -0.4197
 8160TIP3   OH245894   5.008   0.314   2.258  0.3105 -0.1319  0.1634
 8160TIP3    H145895   5.059   0.281   2.332 -1.0986 -1.1821  0.7053
 8160TIP3    H245896   4.928   0.262   2.259 -0.6981  1.3316 -0.7654
 8161TIP3   OH245897   4.244   1.127  11.386  0.2273 -0.2935  0.8259
 8161TIP3    H145898   4.289   1.043  11.381 -1.1638 -1.0055 -0.6083
 8161TIP3    H245899   4.303   1.189  11.343  1.3548 -0.4440  2.0819
 8162TIP3   OH245900   1.712   0.165  11.780 -0.3145 -0.1977  0.0437
 8162TIP3    H145901   1.798   0.149  11.741  0.2957 -1.3900  1.7501
 8162TIP3    H245902   1.731   0.209  11.863 -1.1900 -1.8954  1.2026
 8163TIP3   OH245903   1.941   3.633  16.934  0.6177 -0.2299 -0.5691
 8163TIP3    H145904   1.885   3.658  16.861  1.5542 -0.3561 -1.3430
 8163TIP3    H245905   2.028   3.663  16.910  1.1531 -1.2572 -0.0139
 8164TIP3   OH245906   6.713   1.312  14.479  0.0645 -0.3049 -0.5431
 8164TIP3    H145907   6.751   1.320  14.567  0.3815  0.7122 -0.7571
 8164TIP3    H245908   6.680   1.400  14.459 -2.1632 -1.0716 -0.4897
 8165TIP3   OH245909   6.515   0.378  14.832 -0.0362 -0.2813 -0.4779
 8165TIP3    H145910   6.576   0.371  14.905 -1.7656  0.0286  1.0717
 8165TIP3    H245911   6.460   0.300  14.838 -1.1318  0.4586 -0.5302
 8166TIP3   OH245912   6.184   3.544  11.868 -0.2523 -0.4989 -0.3002
 8166TIP3    H145913   6.189   3.572  11.960  2.2644  1.0294 -0.7878
 8166TIP3    H245914   6.131   3.611  11.825 -1.5235 -1.2738  0.0187
 8167TIP3   OH245915   3.863   5.248  16.934 -0.0518 -0.2264  0.7121
 8167TIP3    H145916   3.881   5.285  16.847  0.4502 -0.8733  0.5338
 8167TIP3    H245917   3.827   5.321  16.984  0.1527  0.2889  0.1198
 8168TIP3   OH245918   0.511   6.257  14.262 -0.7305  0.3814 -0.4651
 8168TIP3    H145919   0.457   6.179  14.251  1.3103 -0.9830 -1.2825
 8168TIP3    H245920   0.548   6.249  14.350 -0.2059  0.1944 -0.6963
 8169TIP3   OH245921   2.330   2.756   3.426  0.1623 -0.3309 -0.2509
 8169TIP3    H145922   2.389   2.699   3.378  1.0959  0.9191 -0.6438
 8169TIP3    H245923   2.335   2.840   3.380 -1.0449  0.1315  0.3954
 8170TIP3   OH245924   2.533   4.501   5.090  0.6840 -0.3174 -0.3786
 8170TIP3    H145925   2.469   4.532   5.154  1.4691 -2.0586  1.3555
 8170TIP3    H245926   2.485   4.499   5.007 -0.6155  1.2122  0.2754
 8171TIP3   OH245927   5.018   3.131  15.043 -0.1813 -0.4555  0.2407
 8171TIP3    H145928   5.016   3.053  14.988 -0.6126 -1.2510  1.3521
 8171TIP3    H245929   4.942   3.182  15.016  1.3443  0.7924 -2.1126
 8172TIP3   OH245930   0.095   0.303   3.721  0.4616 -0.0130 -0.3470
 8172TIP3    H145931   0.023   0.351   3.762  0.7945  0.2911 -0.1104
 8172TIP3    H245932   0.068   0.292   3.630  0.2022  0.2666 -0.3048
 8173TIP3   OH245933   5.445   0.158  16.153 -0.1423  0.0816 -0.4287
 8173TIP3    H145934   5.418   0.214  16.226  2.4939  2.3066 -0.9561
 8173TIP3    H245935   5.440   0.216  16.077 -0.1802 -1.3634 -1.5529
 8174TIP3   OH245936   0.568   1.146   4.519 -0.1109  0.2583 -0.2645
 8174TIP3    H145937   0.628   1.128   4.447 -1.1011  1.1368 -1.3507
 8174TIP3    H245938   0.481   1.126   4.484 -0.5690  0.2155  0.8510
 8175TIP3   OH245939   6.079   3.730  15.371 -0.1640  0.1359 -0.0134
 8175TIP3    H145940   6.154   3.733  15.312  1.5470 -1.5301  1.9658
 8175TIP3    H245941   6.112   3.762  15.455 -2.2288  1.3211  0.4215
 8176TIP3   OH245942   2.635   0.214  12.402 -0.2578  0.3961  0.0838
 8176TIP3    H145943   2.657   0.303  12.376  0.2408  0.3504  0.3172
 8176TIP3    H245944   2.697   0.195  12.473  0.2035 -0.4352 -0.5363
 8177TIP3   OH245945   3.818   5.462  11.124 -0.5246  0.4346 -0.8983
 8177TIP3    H145946   3.872   5.538  11.102 -0.9627  1.6895  1.7865
 8177TIP3    H245947   3.741   5.470  11.067  0.1397  1.1566 -1.7133
 8178TIP3   OH245948   4.595   4.524  16.554 -0.3345 -0.2765  0.0419
 8178TIP3    H145949   4.669   4.583  16.566 -0.8353  0.3041  0.3322
 8178TIP3    H245950   4.621   4.466  16.482 -0.0649  0.6716 -0.6349
 8179TIP3   OH245951   2.368   5.484   3.503  0.5896  0.1601  0.1717
 8179TIP3    H145952   2.287   5.467   3.455  0.4999 -0.6414  0.5908
 8179TIP3    H245953   2.339   5.508   3.591  0.7385  2.0051 -0.2509
 8180TIP3   OH245954   1.313   6.296  14.425  0.7784 -0.0730 -0.1147
 8180TIP3    H145955   1.344   6.210  14.393  3.1481  1.2990 -1.8678
 8180TIP3    H245956   1.354   6.359  14.366 -1.2921  2.2966  0.8127
 8181TIP3   OH245957   1.396   3.078   1.867 -0.4880  0.1535 -0.7015
 8181TIP3    H145958   1.313   3.052   1.827 -1.0270 -0.9539  1.0192
 8181TIP3    H245959   1.457   3.008   1.846 -0.3740  0.2750 -0.7821
 8182TIP3   OH245960   0.976   4.706   2.498  0.6731 -0.7179  0.6537
 8182TIP3    H145961   0.964   4.799   2.477  0.1245 -0.9150  0.0631
 8182TIP3    H245962   0.903   4.685   2.557 -0.2285 -1.1873 -0.5870
 8183TIP3   OH245963   2.889   5.158   5.585  0.2807 -0.2876 -0.6248
 8183TIP3    H145964   2.894   5.224   5.515  1.1118  0.8138  0.4256
 8183TIP3    H245965   2.908   5.207   5.665  2.0507 -2.0310  0.0914
 8184TIP3   OH245966   2.019   2.914  15.199  0.6062  0.2112 -0.4093
 8184TIP3    H145967   1.981   2.853  15.136  0.6394  0.6202 -0.8324
 8184TIP3    H245968   2.000   2.875  15.285  1.4769 -0.8833 -0.6873
 8185TIP3   OH245969   1.226   2.314   0.341 -0.6276  0.5775 -0.2602
 8185TIP3    H145970   1.269   2.399   0.355  1.5092 -0.2178 -1.5961
 8185TIP3    H245971   1.248   2.263   0.418  1.5018 -0.0266 -1.1863
 8186TIP3   OH245972   4.430   1.145   0.142  0.2574  0.0664 -0.2883
 8186TIP3    H145973   4.470   1.069   0.185  0.3891 -0.4721 -1.3316
 8186TIP3    H245974   4.400   1.112   0.058 -1.5027  0.7092  0.0521
 8187TIP3   OH245975   4.415   2.498   1.776 -0.3743 -0.3224 -0.3035
 8187TIP3    H145976   4.355   2.452   1.834  1.7029  0.4515  2.7545
 8187TIP3    H245977   4.501   2.465   1.799  0.9594  3.0081  0.1349
 8188TIP3   OH245978   1.483   3.954   5.265 -0.0096  0.8070 -1.2134
 8188TIP3    H145979   1.481   3.895   5.189 -0.5568  1.0248 -1.3768
 8188TIP3    H245980   1.453   3.899   5.338  0.7142  0.5430 -1.1131
 8189TIP3   OH245981   2.773   1.113  15.437  0.2266  0.1395 -0.5039
 8189TIP3    H145982   2.809   1.118  15.526  0.6283  0.1275 -0.6649
 8189TIP3    H245983   2.817   1.184  15.390  0.2302 -0.0406 -0.7704
 8190TIP3   OH245984   4.752   4.438  14.509 -0.0127 -0.1530 -0.0528
 8190TIP3    H145985   4.733   4.455  14.417 -1.0075  0.4553  0.2496
 8190TIP3    H245986   4.699   4.361  14.531  0.7335 -0.7132 -0.1419
 8191TIP3   OH245987   2.271   4.282   0.898 -0.5701 -0.5551 -0.2784
 8191TIP3    H145988   2.208   4.209   0.898 -0.7392 -0.4156 -0.8033
 8191TIP3    H245989   2.348   4.247   0.854 -1.7246  0.4455 -3.3781
 8192TIP3   OH245990   6.738   2.022  15.966 -0.3782 -0.2814 -0.1652
 8192TIP3    H145991   6.660   1.977  16.000 -0.0121 -0.7225  0.0954
 8192TIP3    H245992   6.789   1.953  15.923  0.3355 -0.1776  0.4982
 8193TIP3   OH245993   2.439   1.250  12.440 -0.2743 -0.5876  0.0058
 8193TIP3    H145994   2.458   1.196  12.363 -0.9139  1.8046 -1.9398
 8193TIP3    H245995   2.522   1.294  12.459 -0.7123  0.6629 -0.8814
 8194TIP3   OH245996   2.616   4.261   3.881  0.1082  0.0483 -0.1024
 8194TIP3    H145997   2.523   4.239   3.885 -0.3637  1.6445 -1.1832
 8194TIP3    H245998   2.634   4.270   3.787  1.5489 -0.9419  0.0495
 8195TIP3   OH245999   2.433   0.805  12.614 -0.3297 -0.1230  0.1881
 8195TIP3    H146000   2.434   0.736  12.548  0.5173 -1.4077  1.4816
 8195TIP3    H246001   2.504   0.864  12.589 -1.5752  0.7844 -1.3848
 8196TIP3   OH246002   4.760   5.227  17.153  0.5917  0.9478  0.3667
 8196TIP3    H146003   4.674   5.188  17.167  0.9070 -0.7830 -1.8273
 8196TIP3    H246004   4.742   5.306  17.101  0.3705 -0.6516 -2.1543
 8197TIP3   OH246005   0.762   1.429   2.224  0.4661  0.0236 -0.1984
 8197TIP3    H146006   0.824   1.406   2.292  0.0912 -0.3949  0.0056
 8197TIP3    H246007   0.680   1.444   2.270  0.9359  3.0662 -0.1260
 8198TIP3   OH246008   4.044   2.156   3.339  0.6758 -0.2894 -0.3298
 8198TIP3    H146009   4.006   2.235   3.378 -1.2975 -1.1937 -0.3266
 8198TIP3    H246010   4.123   2.140   3.390  0.6687  1.2006  0.2070
 8199TIP3   OH246011   5.460   1.075   4.025 -0.2886  0.1955  1.2440
 8199TIP3    H146012   5.420   0.997   4.063 -0.2807  0.6451  2.2024
 8199TIP3    H246013   5.432   1.147   4.082 -1.9615  1.2370 -0.7398
 8200TIP3   OH246014   4.842   0.255  14.427 -0.5798 -0.1589  0.0922
 8200TIP3    H146015   4.900   0.263  14.503 -2.2459  1.8167  1.2953
 8200TIP3    H246016   4.774   0.194  14.456 -1.2394  0.6302  0.2429
 8201TIP3   OH246017   2.704   2.784   1.019 -0.3440  0.1153 -0.0902
 8201TIP3    H146018   2.691   2.733   0.939 -0.0979 -0.0218 -0.0442
 8201TIP3    H246019   2.663   2.732   1.088 -0.6427  0.2806 -0.1406
 8202TIP3   OH246020   6.410   6.090   0.010  0.2666 -0.3204 -0.2917
 8202TIP3    H146021   6.372   6.178   0.017  1.7896  0.2656  1.1296
 8202TIP3    H246022   6.371   6.054  -0.070  0.9686  2.3373 -1.9554
 8203TIP3   OH246023   2.140   5.374  16.376 -0.2610  0.1281 -0.4405
 8203TIP3    H146024   2.156   5.445  16.313  0.5785 -0.1163 -0.5022
 8203TIP3    H246025   2.189   5.300  16.342  0.2406  0.0050  0.5310
 8204TIP3   OH246026   1.534   1.833   5.893  0.1737  0.3694 -0.0997
 8204TIP3    H146027   1.576   1.758   5.852  2.3396  1.4383 -0.0073
 8204TIP3    H246028   1.581   1.845   5.976 -0.8177  1.2147  0.3676
 8205TIP3   OH246029   2.761   5.555   0.520 -0.1482 -0.1072 -0.2470
 8205TIP3    H146030   2.791   5.467   0.496  0.2599 -0.8467  2.5415
 8205TIP3    H246031   2.667   5.552   0.507 -0.2314 -1.2224  0.4085
 8206TIP3   OH246032   4.122   2.119  13.512  0.0194 -0.6513  0.0307
 8206TIP3    H146033   4.205   2.092  13.552  1.2564  1.0256 -1.2595
 8206TIP3    H246034   4.108   2.057  13.441  1.2581  0.1751 -0.9983
 8207TIP3   OH246035   3.465   2.934  13.607  1.0725  0.2967  0.1878
 8207TIP3    H146036   3.475   2.936  13.702  0.9019 -1.5691  0.2884
 8207TIP3    H246037   3.376   2.966  13.591  0.6176 -0.6432  0.7742
 8208TIP3   OH246038   3.185   2.526   0.064  0.1185 -0.1776  0.8193
 8208TIP3    H146039   3.196   2.443   0.016  0.4411 -0.5338  1.4876
 8208TIP3    H246040   3.105   2.563   0.029 -0.4338 -1.1403  1.0072
 8209TIP3   OH246041   3.524   3.931   5.268 -0.6035  0.0935 -0.3405
 8209TIP3    H146042   3.512   4.010   5.215 -2.3819 -0.6978 -1.2222
 8209TIP3    H246043   3.445   3.879   5.250  0.4041 -1.7632  0.4161
 8210TIP3   OH246044   0.437   0.926   1.956  0.2028  0.1982 -0.0092
 8210TIP3    H146045   0.530   0.920   1.937  0.0002  0.8607 -1.2757
 8210TIP3    H246046   0.395   0.879   1.884 -0.5062  1.0690 -0.1703
 8211TIP3   OH246047   3.604   3.466   4.983 -0.2762 -0.2538 -0.2896
 8211TIP3    H146048   3.605   3.477   4.888  0.1857  1.0180 -0.1628
 8211TIP3    H246049   3.571   3.377   4.997 -1.5091 -0.0401 -1.5959
 8212TIP3   OH246050   0.642   4.786  16.928  0.1429  0.0967  0.5396
 8212TIP3    H146051   0.732   4.816  16.916  0.0513 -0.2001 -1.2053
 8212TIP3    H246052   0.647   4.724  17.001  1.3340  0.1256  0.5068
 8213TIP3   OH246053   4.141   1.780  14.409  0.0282 -0.3238  0.0336
 8213TIP3    H146054   4.180   1.698  14.440  1.3284  0.4555  0.5759
 8213TIP3    H246055   4.124   1.766  14.316  0.5127 -1.1131  0.0573
 8214TIP3   OH246056   3.289   4.157   3.566  0.1127 -0.1676  0.6920
 8214TIP3    H146057   3.357   4.224   3.558 -0.3791  0.1681 -1.4251
 8214TIP3    H246058   3.207   4.204   3.553 -0.3675 -0.8991  1.0423
 8215TIP3   OH246059   6.073   4.296  14.273  0.3984 -0.5027  0.3553
 8215TIP3    H146060   5.986   4.327  14.248  1.4245  1.6361 -0.8696
 8215TIP3    H246061   6.085   4.214  14.224 -0.6318 -0.4152 -0.0621
 8216TIP3   OH246062   0.064   3.828   3.786 -0.3028 -0.6116  0.2627
 8216TIP3    H146063   0.054   3.806   3.693  0.5328 -2.4369  0.5441
 8216TIP3    H246064   0.032   3.918   3.794  1.2417  0.2469 -2.1266
 8217TIP3   OH246065   0.520   3.305  14.086 -0.1240  0.2667  0.1224
 8217TIP3    H146066   0.450   3.302  14.151  1.0359  0.4603  1.4273
 8217TIP3    H246067   0.504   3.231  14.028 -0.6019 -0.5283  1.2568
 8218TIP3   OH246068   6.138   4.592   3.451  0.6348 -0.1324  0.5903
 8218TIP3    H146069   6.217   4.578   3.504  0.6196  0.7287  0.8521
 8218TIP3    H246070   6.125   4.509   3.405  0.6342 -0.9257  1.9613
 8219TIP3   OH246071   2.141   1.226  12.882 -0.2184  0.1633  0.1559
 8219TIP3    H146072   2.165   1.152  12.826  0.4783  0.1490  0.4596
 8219TIP3    H246073   2.111   1.186  12.963  0.7570  0.2128  0.5530
 8220TIP3   OH246074   5.994   1.638  13.970 -0.8341 -0.0681 -0.2415
 8220TIP3    H146075   5.924   1.687  13.927 -0.3218 -1.4771 -2.8338
 8220TIP3    H246076   6.074   1.668  13.927 -0.3489 -1.8913 -0.6936
 8221TIP3   OH246077   6.605   3.917  13.157  0.6761 -0.5234  0.2489
 8221TIP3    H146078   6.628   3.986  13.095  0.2231 -1.5272 -1.0770
 8221TIP3    H246079   6.648   3.944  13.239  3.1508 -0.2515 -1.0317
 8222TIP3   OH246080   1.063   2.177  16.223  0.0738 -0.0219 -0.2962
 8222TIP3    H146081   1.037   2.156  16.312  0.5305 -1.0268 -0.3783
 8222TIP3    H246082   1.004   2.126  16.168  0.2077  0.0929 -0.5488
 8223TIP3   OH246083   2.523   2.399  11.962  0.2833  0.8098 -0.4029
 8223TIP3    H146084   2.489   2.472  11.911 -1.5100 -0.8095 -1.6420
 8223TIP3    H246085   2.587   2.357  11.905  1.5141  1.5168  0.4098
 8224TIP3   OH246086   3.399   0.523   2.169 -0.6238 -0.1838 -0.2560
 8224TIP3    H146087   3.339   0.458   2.133 -0.4748  0.4092 -1.6301
 8224TIP3    H246088   3.425   0.576   2.094  2.0673 -0.7658  0.1584
 8225TIP3   OH246089   6.103   3.412   3.647 -0.1013 -0.2304 -0.0983
 8225TIP3    H146090   6.113   3.317   3.645 -0.8110 -0.3194  0.2584
 8225TIP3    H246091   6.162   3.441   3.717  0.8450 -0.3020 -0.8497
 8226TIP3   OH246092   5.248   2.065  14.756 -0.3192  0.0139  0.2902
 8226TIP3    H146093   5.172   2.019  14.791 -0.9684 -0.8737 -2.0791
 8226TIP3    H246094   5.293   2.000  14.702  1.2158  0.9844  0.3428
 8227TIP3   OH246095   3.927   5.164   0.909  0.0246 -0.5116 -0.1794
 8227TIP3    H146096   3.964   5.250   0.926 -1.5193  0.6128 -2.1629
 8227TIP3    H246097   3.899   5.167   0.818 -2.6367 -2.1185  0.4818
 8228TIP3   OH246098   3.035   0.249   4.310  0.1036 -0.3765 -0.2079
 8228TIP3    H146099   3.112   0.279   4.358  0.3049  1.0695 -1.3460
 8228TIP3    H246100   2.963   0.258   4.372  0.3268  1.6461 -0.1626
 8229TIP3   OH246101   3.439   2.639   4.979  0.3128 -0.2537 -0.9296
 8229TIP3    H146102   3.349   2.632   5.013  0.7685 -0.8402  0.2231
 8229TIP3    H246103   3.448   2.563   4.921  0.0252 -0.1256 -1.1450
 8230TIP3   OH246104   2.261   5.136  16.268  0.2846  0.3073  0.4652
 8230TIP3    H146105   2.239   5.051  16.230  0.0765  0.7031 -0.3270
 8230TIP3    H246106   2.327   5.116  16.334 -1.3013 -0.7268  1.8179
 8231TIP3   OH246107   6.449   5.353   2.342 -0.1018  0.0893  0.0514
 8231TIP3    H146108   6.402   5.282   2.385 -0.8977  0.2193 -0.5900
 8231TIP3    H246109   6.500   5.310   2.274 -1.2391  0.1954 -0.9012
 8232TIP3   OH246110   2.972   1.194   5.427  0.1855 -0.0142 -0.5291
 8232TIP3    H146111   2.929   1.251   5.490  0.4922  0.5617 -0.8337
 8232TIP3    H246112   2.907   1.181   5.358  0.9235  1.9732 -1.6746
 8233TIP3   OH246113   6.015   5.958   1.726 -0.0104 -0.2384 -0.1634
 8233TIP3    H146114   5.974   6.011   1.657  1.0720 -0.2457 -0.8295
 8233TIP3    H246115   6.109   5.965   1.709  0.3854  0.9959  2.2363
 8234TIP3   OH246116   6.260   5.976  15.359  0.0204 -0.1896 -0.5231
 8234TIP3    H146117   6.276   5.923  15.436  1.2973  1.3207  0.3247
 8234TIP3    H246118   6.311   5.934  15.290 -0.0208 -0.7877 -0.1890
 8235TIP3   OH246119   0.638   1.411   0.425  0.0168 -0.5740  0.6304
 8235TIP3    H146120   0.725   1.381   0.402  0.8744 -0.1556  3.0089
 8235TIP3    H246121   0.592   1.332   0.454 -0.5410 -0.8402 -0.8744
 8236TIP3   OH246122   6.540   2.730  12.300  0.5895  0.0919 -0.2393
 8236TIP3    H146123   6.526   2.786  12.376  0.7939  2.1455 -1.6591
 8236TIP3    H246124   6.631   2.702  12.307 -0.2458 -2.6129  2.0276
 8237TIP3   OH246125   4.684   1.109  11.301  0.2109  0.2012  0.5746
 8237TIP3    H146126   4.696   1.175  11.234  1.8764 -1.1197 -0.4949
 8237TIP3    H246127   4.662   1.159  11.380 -0.5105  1.8620 -0.6166
 8238TIP3   OH246128   1.878   3.431   1.206  0.1312 -0.2883  0.4042
 8238TIP3    H146129   1.859   3.490   1.280  0.9864  0.5621 -0.0373
 8238TIP3    H246130   1.931   3.361   1.244 -1.5692 -1.2732  1.1050
 8239TIP3   OH246131   0.167   6.290  17.124 -0.2550 -0.5026  0.1583
 8239TIP3    H146132   0.212   6.333  17.197  2.3154 -0.8680 -1.1215
 8239TIP3    H246133   0.126   6.213  17.163  1.5471 -1.0096  1.1681
 8240TIP3   OH246134   5.586   0.479  11.765 -0.3836  0.0026  0.5711
 8240TIP3    H146135   5.671   0.522  11.758 -0.3379 -0.2176 -0.2855
 8240TIP3    H246136   5.576   0.461  11.859 -0.9178  2.8815  1.1938
 8241TIP3   OH246137   1.745   3.091  12.022  0.4165 -0.7613 -0.0803
 8241TIP3    H146138   1.707   3.036  12.091 -0.2818  1.8456  1.7997
 8241TIP3    H246139   1.838   3.067  12.020  0.4875 -0.8237  1.9366
 8242TIP3   OH246140   3.997   0.332   0.482 -0.4163  0.2848  0.2855
 8242TIP3    H146141   4.025   0.240   0.489 -0.4828  0.0426 -1.9699
 8242TIP3    H246142   3.906   0.326   0.453 -0.4644  1.0780  0.2685
 8243TIP3   OH246143   0.865   1.675   2.989  0.3716 -0.3070  0.0198
 8243TIP3    H146144   0.821   1.760   2.979 -1.6065 -1.1727  0.7852
 8243TIP3    H246145   0.917   1.685   3.069 -1.5681 -0.4198  1.3825
 8244TIP3   OH246146   5.470   1.863   6.110  0.1302  0.2386 -0.4901
 8244TIP3    H146147   5.544   1.895   6.162 -0.7987  0.9008  0.4563
 8244TIP3    H246148   5.438   1.940   6.065  0.6178 -0.2407 -1.6987
 8245TIP3   OH246149   6.383   0.722  15.906  0.4556  0.3534  0.5035
 8245TIP3    H146150   6.462   0.692  15.949 -0.2368  0.1805  1.6870
 8245TIP3    H246151   6.411   0.798  15.854  1.6417 -0.5405 -0.2032
 8246TIP3   OH246152   4.495   5.390   2.631 -0.4956  0.3431 -0.4324
 8246TIP3    H146153   4.501   5.344   2.548  0.0936 -0.6859  0.1630
 8246TIP3    H246154   4.420   5.350   2.676 -2.3220  2.4627 -1.3645
 8247TIP3   OH246155   3.401   2.465   3.862 -1.1146  0.7708  0.2844
 8247TIP3    H146156   3.378   2.372   3.855  2.3300 -0.1102 -1.5108
 8247TIP3    H246157   3.398   2.497   3.772  0.4262  1.6035  0.4924
 8248TIP3   OH246158   2.906   6.154   3.443 -0.0133 -0.0921 -0.3997
 8248TIP3    H146159   2.944   6.223   3.387 -1.7009  1.6932  0.5355
 8248TIP3    H246160   2.820   6.138   3.405 -0.6287  0.1415  0.8573
 8249TIP3   OH246161   0.715   1.006   4.307 -0.3141 -0.6685  0.0764
 8249TIP3    H146162   0.632   0.958   4.312 -0.2408 -0.9385 -1.0538
 8249TIP3    H246163   0.781   0.941   4.331 -0.5683  0.2898  4.1180
 8250TIP3   OH246164   2.845   1.648   0.935  0.2765 -0.2366  0.5755
 8250TIP3    H146165   2.872   1.643   0.843  0.3675  0.2338  0.5743
 8250TIP3    H246166   2.903   1.586   0.980 -0.0686 -0.7976  0.2491
 8251TIP3   OH246167   5.986   4.930   4.648  0.0267 -0.4328  0.3053
 8251TIP3    H146168   6.071   4.948   4.609 -0.2115  0.9634  0.3882
 8251TIP3    H246169   5.998   4.948   4.742 -0.3404 -0.2722  0.3248
 8252TIP3   OH246170   0.835   1.458   1.210 -0.8445  0.8857  0.6821
 8252TIP3    H146171   0.788   1.468   1.293 -2.3293  0.4656 -0.0739
 8252TIP3    H246172   0.802   1.376   1.173  1.8679 -0.4282  0.9426
 8253TIP3   OH246173   2.413   4.265   1.379 -0.4829 -0.2198  0.5446
 8253TIP3    H146174   2.385   4.174   1.378 -1.7002  0.1432  0.3895
 8253TIP3    H246175   2.339   4.314   1.344 -0.7247  1.0594  2.6458
 8254TIP3   OH246176   5.878   4.810   6.187 -0.0677 -0.1608  0.1035
 8254TIP3    H146177   5.866   4.904   6.173  0.5033  0.6999  4.1262
 8254TIP3    H246178   5.969   4.801   6.215  0.0669 -2.0608 -0.7405
 8255TIP3   OH246179   0.102   0.558  14.944 -0.1678 -0.0231  0.1344
 8255TIP3    H146180   0.055   0.491  14.992  1.2937 -1.0431  0.2218
 8255TIP3    H246181   0.188   0.519  14.926  0.0474  1.0942 -1.5142
 8256TIP3   OH246182   5.398   0.954  13.161 -0.4678  0.1098 -0.2560
 8256TIP3    H146183   5.317   0.985  13.202 -1.4291 -0.5161 -1.6238
 8256TIP3    H246184   5.463   1.021  13.183 -1.8769  1.7844 -0.9724
 8257TIP3   OH246185   4.046   1.977  15.441  0.1509  0.2156 -0.1984
 8257TIP3    H146186   3.958   1.940  15.445  0.6729 -1.2292 -1.1017
 8257TIP3    H246187   4.103   1.909  15.476  0.8357  1.5720  1.4697
 8258TIP3   OH246188   3.050   3.957  12.622 -0.4381  0.1850 -0.2012
 8258TIP3    H146189   3.090   4.041  12.644  1.2978 -0.5971 -0.2890
 8258TIP3    H246190   3.048   3.956  12.526 -0.6797  0.2041 -0.1990
 8259TIP3   OH246191   6.143   1.143   3.209  0.4203  0.3947 -0.1600
 8259TIP3    H146192   6.131   1.210   3.276  3.8314  1.5981 -0.5657
 8259TIP3    H246193   6.194   1.074   3.252 -0.9142 -0.8406 -0.4506
 8260TIP3   OH246194   0.896   6.257  17.144  0.2549 -0.2396 -0.2714
 8260TIP3    H146195   0.857   6.328  17.196  0.9908  0.0677 -0.1253
 8260TIP3    H246196   0.881   6.178  17.196  1.3078  0.1108  0.6210
 8261TIP3   OH246197   2.616   0.070   2.013  0.1657 -0.0210  0.4099
 8261TIP3    H146198   2.640   0.087   1.922 -0.6650 -2.0057 -0.2519
 8261TIP3    H246199   2.672  -0.004   2.039 -0.8051 -0.5999  0.9158
 8262TIP3   OH246200   4.751   4.968  13.582  0.3903  0.2870 -0.2072
 8262TIP3    H146201   4.733   5.047  13.633 -0.7963 -0.5368  0.7132
 8262TIP3    H246202   4.846   4.955  13.591  0.4260  0.9782  0.5677
 8263TIP3   OH246203   5.251   0.571  13.391 -0.5415 -0.1303  0.1007
 8263TIP3    H146204   5.327   0.513  13.391 -0.3537 -0.0526 -3.3849
 8263TIP3    H246205   5.176   0.513  13.406 -0.1457 -0.9522 -0.9858
 8264TIP3   OH246206   6.069   2.555   5.350  0.4847 -0.5804 -0.3739
 8264TIP3    H146207   6.043   2.644   5.374 -0.2289 -1.1128  0.9438
 8264TIP3    H246208   6.017   2.535   5.272 -0.8738 -0.5374  0.4894
 8265TIP3   OH246209   6.712   1.279  13.759  0.2715 -0.8616  0.3860
 8265TIP3    H146210   6.795   1.239  13.783 -0.4809 -1.3946  2.3049
 8265TIP3    H246211   6.685   1.327  13.837 -0.3757  0.8136 -0.8124
 8266TIP3   OH246212   1.722   5.616   5.882 -0.4222 -0.4161  0.0063
 8266TIP3    H146213   1.658   5.546   5.872 -0.4313 -0.3117 -0.7351
 8266TIP3    H246214   1.806   5.572   5.882 -0.4388 -0.4485 -0.2248
 8267TIP3   OH246215   6.217   0.687  11.174  0.5419  0.0733 -0.1600
 8267TIP3    H146216   6.125   0.714  11.167  0.4679 -0.5009 -2.2255
 8267TIP3    H246217   6.266   0.769  11.167  0.2079  0.3566  0.6825
 8268TIP3   OH246218   5.488   6.606   2.559  0.2222  0.3609 -0.4823
 8268TIP3    H146219   5.457   6.559   2.481  1.4442 -0.1861 -0.6665
 8268TIP3    H246220   5.562   6.657   2.528  2.8297 -2.3199  0.8532
 8269TIP3   OH246221   1.528   5.456   4.025  0.3706 -0.5493 -0.6356
 8269TIP3    H146222   1.519   5.409   3.942 -0.8423 -0.9604 -0.2928
 8269TIP3    H246223   1.623   5.464   4.038  0.5994 -2.2299 -1.0860
 8270TIP3   OH246224   6.535   5.955   2.874 -0.7721  0.2697  0.8260
 8270TIP3    H146225   6.483   5.930   2.797 -0.5611 -2.6410  1.5022
 8270TIP3    H246226   6.605   5.890   2.877  0.0280  1.1602  2.7184
 8271TIP3   OH246227   6.095   3.520  11.580 -0.1969 -0.2169 -0.1288
 8271TIP3    H146228   6.046   3.535  11.499 -1.0858 -0.0535  0.4231
 8271TIP3    H246229   6.183   3.554  11.562 -0.6718  0.7348 -0.6848
 8272TIP3   OH246230   5.136   1.772  16.001 -0.3722 -0.3319 -0.5278
 8272TIP3    H146231   5.102   1.709  16.064  0.7804 -0.3080  0.1466
 8272TIP3    H246232   5.082   1.850  16.015 -0.3542 -0.4370  0.2142
 8273TIP3   OH246233   4.725   2.090  15.777 -0.1176 -0.1662  0.4513
 8273TIP3    H146234   4.678   2.024  15.828  0.4692 -0.2541  0.8989
 8273TIP3    H246235   4.715   2.170  15.827  0.2620 -0.2006  0.5836
 8274TIP3   OH246236   5.721   1.332  16.407 -0.4411  0.0923 -0.1694
 8274TIP3    H146237   5.710   1.274  16.332 -0.6529  1.8851 -1.5724
 8274TIP3    H246238   5.814   1.355  16.406 -0.5692  0.6125 -0.2638
 8275TIP3   OH246239   5.336   6.056  10.628  0.1843 -0.4977 -0.1932
 8275TIP3    H146240   5.405   6.117  10.601  1.7572 -1.5821  1.1199
 8275TIP3    H246241   5.260   6.112  10.646  1.7489  1.2304  1.5881
 8276TIP3   OH246242   1.383   4.526   6.000 -0.1483  0.4415  0.0640
 8276TIP3    H146243   1.334   4.445   6.017 -0.4892  0.7959  0.8256
 8276TIP3    H246244   1.470   4.508   6.034  0.0984  0.0199 -0.7554
 8277TIP3   OH246245   3.424   3.744   4.177  0.6305  0.1851 -0.2719
 8277TIP3    H146246   3.378   3.685   4.118  1.6088  0.2822 -1.1657
 8277TIP3    H246247   3.476   3.686   4.233 -0.2625  0.0951  0.4748
 8278TIP3   OH246248   6.172   2.790  17.222  0.0173 -0.3762  0.0775
 8278TIP3    H146249   6.110   2.837  17.278 -0.3522  1.6032 -1.8272
 8278TIP3    H246250   6.117   2.750  17.154  0.6593  0.0038 -0.6889
 8279TIP3   OH246251   6.626   6.205  15.132 -0.7499 -0.3528  0.3477
 8279TIP3    H146252   6.673   6.251  15.061 -0.2285  1.2674  1.6661
 8279TIP3    H246253   6.535   6.207  15.104 -0.2918 -2.1404 -1.5142
 8280TIP3   OH246254   6.320   3.320  16.718  0.3140  0.0730  0.0881
 8280TIP3    H146255   6.289   3.350  16.803 -0.6406 -0.7980  0.0742
 8280TIP3    H246256   6.406   3.282  16.735  0.1141 -0.1288  0.6867
 8281TIP3   OH246257   4.318   4.806  11.662  0.3263  0.0195 -0.0259
 8281TIP3    H146258   4.377   4.877  11.638  0.3985 -0.3084 -0.8719
 8281TIP3    H246259   4.233   4.848  11.672  0.3862  0.2445 -0.4248
 8282TIP3   OH246260   3.764   2.359   6.177  0.1419 -0.6356  0.3561
 8282TIP3    H146261   3.756   2.441   6.226 -0.1796  0.3529 -1.2612
 8282TIP3    H246262   3.856   2.356   6.151 -0.2997  0.4887 -1.5781
 8283TIP3   OH246263   2.651   0.334   4.139  0.0355 -0.1763 -0.1200
 8283TIP3    H146264   2.670   0.385   4.060  0.6207  0.0524  0.1628
 8283TIP3    H246265   2.717   0.265   4.139  1.3541  1.0306  1.2358
 8284TIP3   OH246266   4.006   5.871  16.096 -0.0717  0.7523 -0.2637
 8284TIP3    H146267   4.014   5.866  16.001 -0.2298 -1.2747 -0.2184
 8284TIP3    H246268   4.089   5.838  16.130 -0.3182  0.6863  0.2989
 8285TIP3   OH246269   5.577   0.728   3.978  0.0703  0.0549 -0.3321
 8285TIP3    H146270   5.668   0.755   3.983  0.1863 -0.0289 -1.7134
 8285TIP3    H246271   5.559   0.720   3.885 -1.2599 -0.2500 -0.0729
 8286TIP3   OH246272   4.060   5.153  14.014 -0.0998 -0.0549  0.1641
 8286TIP3    H146273   4.131   5.135  13.952  1.7659  0.9276  1.9252
 8286TIP3    H246274   4.001   5.078  14.005  1.4126 -1.1638 -0.9648
 8287TIP3   OH246275   0.071   3.176  16.972  0.3155 -0.7269  0.1325
 8287TIP3    H146276   0.093   3.255  16.922 -0.6768 -1.0405 -0.8443
 8287TIP3    H246277   0.119   3.106  16.928  0.0060 -0.8918  0.0499
 8288TIP3   OH246278   2.744   0.130   2.738 -0.1300 -0.3524  0.5618
 8288TIP3    H146279   2.732   0.184   2.660 -0.3762  2.7709  2.5823
 8288TIP3    H246280   2.656   0.121   2.775  0.1271 -0.7620  1.0921
 8289TIP3   OH246281   2.323   3.280   3.175 -0.5354  0.4650  0.2272
 8289TIP3    H146282   2.295   3.363   3.212  0.2418  0.7286  0.2452
 8289TIP3    H246283   2.387   3.246   3.237 -1.9610 -0.9077  1.0160
 8290TIP3   OH246284   6.114   3.341   1.204  0.3742  0.4861 -0.4290
 8290TIP3    H146285   6.154   3.411   1.151  1.5235  0.6079  0.5512
 8290TIP3    H246286   6.032   3.379   1.236 -0.2131  0.5036 -1.8833
 8291TIP3   OH246287   0.716   4.190   2.473  0.4441  0.4454 -0.2688
 8291TIP3    H146288   0.673   4.270   2.502 -0.1824  0.0113  0.0290
 8291TIP3    H246289   0.763   4.159   2.551  1.1091  0.7953 -0.5288
 8292TIP3   OH246290   2.759   5.960   2.538 -0.6569 -0.0667 -0.2076
 8292TIP3    H146291   2.732   5.913   2.616 -1.6768  1.1432  0.1936
 8292TIP3    H246292   2.850   5.985   2.555 -0.0127 -1.9976 -0.5169
 8293TIP3   OH246293   1.522   4.284  13.159 -0.2648 -0.1938 -0.1789
 8293TIP3    H146294   1.551   4.229  13.232  0.5679 -0.1252 -0.4462
 8293TIP3    H246295   1.464   4.348  13.199  0.2598 -0.0928  0.4456
 8294TIP3   OH246296   4.866   1.430  12.713  0.5302  0.4302  0.0435
 8294TIP3    H146297   4.832   1.485  12.783 -1.1075 -0.2730 -0.1576
 8294TIP3    H246298   4.847   1.340  12.741  1.1120  0.0715 -0.6613
 8295TIP3   OH246299   1.410   1.207   4.693  0.3227 -0.7415  0.2203
 8295TIP3    H146300   1.469   1.155   4.748 -0.6770 -0.4341  1.6496
 8295TIP3    H246301   1.422   1.297   4.723  0.5526 -0.4000 -0.8452
 8296TIP3   OH246302   6.603   1.510   2.895 -0.0103  0.0553  0.5118
 8296TIP3    H146303   6.508   1.515   2.885  0.0202 -1.9344 -1.4944
 8296TIP3    H246304   6.617   1.439   2.957  0.1247 -1.6270 -1.3303
 8297TIP3   OH246305   6.675   6.250  16.452  0.2737 -0.5954 -0.1995
 8297TIP3    H146306   6.628   6.265  16.535  1.2340  0.3001  0.2043
 8297TIP3    H246307   6.748   6.193  16.476 -0.1166 -1.3088 -0.6721
 8298TIP3   OH246308   5.628   4.441   3.680  0.5303  0.5283 -0.0880
 8298TIP3    H146309   5.590   4.388   3.610  1.6455  0.4411 -0.6458
 8298TIP3    H246310   5.691   4.497   3.636  2.0833 -0.3091  0.9813
 8299TIP3   OH246311   6.177   0.258   1.801  0.0696  0.0286  0.0735
 8299TIP3    H146312   6.089   0.268   1.766  0.1480 -1.6571 -0.6999
 8299TIP3    H246313   6.217   0.344   1.790 -0.8720  0.3275 -1.2964
 8300TIP3   OH246314   0.836   4.085   2.131 -0.3618 -0.1250  0.7374
 8300TIP3    H146315   0.900   4.077   2.060 -0.2600  0.5831  0.7407
 8300TIP3    H246316   0.881   4.053   2.209 -0.6881 -1.5187  0.3728
 8301TIP3   OH246317   3.185   3.091   2.523 -0.0246 -0.5664  0.0721
 8301TIP3    H146318   3.144   3.010   2.554  1.6581 -0.9831  1.3901
 8301TIP3    H246319   3.212   3.135   2.603 -0.2510  0.9625 -0.6702
 8302TIP3   OH246320   6.159   1.355  15.715 -0.3641 -0.1811 -0.5237
 8302TIP3    H146321   6.174   1.384  15.624 -1.4485  0.0696 -0.6310
 8302TIP3    H246322   6.079   1.303  15.711  0.0345 -0.8614  0.1613
 8303TIP3   OH246323   2.694   4.374   1.394  0.6077 -0.3768  0.4673
 8303TIP3    H146324   2.610   4.328   1.393  1.3782 -1.8707  0.9201
 8303TIP3    H246325   2.670   4.467   1.397 -1.0336 -0.7707  1.3180
 8304TIP3   OH246326   0.102   6.736   5.565 -0.1155 -0.6413  0.1753
 8304TIP3    H146327   0.060   6.650   5.576 -0.7851 -0.1879  1.3282
 8304TIP3    H246328   0.042   6.797   5.608  0.3475  0.4168 -0.6446
 8305TIP3   OH246329   5.665   5.128  15.354 -0.0448 -0.3900  0.0228
 8305TIP3    H146330   5.730   5.104  15.288  1.6767  0.9786  1.1744
 8305TIP3    H246331   5.581   5.122  15.307  1.2167  2.9980 -3.1242
 8306TIP3   OH246332   4.498   6.010   2.229  0.3711 -0.1332 -0.4295
 8306TIP3    H146333   4.573   6.041   2.279 -1.1401  1.6200  0.8851
 8306TIP3    H246334   4.422   6.034   2.282 -1.1207 -2.7042 -1.2256
 8307TIP3   OH246335   2.937   3.573  13.050  0.6747 -0.1189 -0.7410
 8307TIP3    H146336   2.872   3.618  12.995 -1.8109  0.3056  2.2670
 8307TIP3    H246337   2.988   3.644  13.090 -0.5918 -0.0840  0.9209
 8308TIP3   OH246338   2.763   0.771  11.623  0.2005 -0.1061  0.0913
 8308TIP3    H146339   2.732   0.848  11.575 -0.7435 -0.4976  0.0309
 8308TIP3    H246340   2.788   0.709  11.554 -2.0148 -1.0123  0.0197
 8309TIP3   OH246341   5.560   6.227  14.818 -0.0249 -0.7633 -0.4384
 8309TIP3    H146342   5.520   6.158  14.871 -0.4844  0.1572  0.4539
 8309TIP3    H246343   5.571   6.301  14.879  1.8318 -0.5287 -0.9785
 8310TIP3   OH246344   1.295   1.059  11.120  0.1636  0.6808 -0.4196
 8310TIP3    H146345   1.236   1.038  11.047  2.3583 -0.9023 -1.8722
 8310TIP3    H246346   1.290   0.982  11.177  0.7253  0.5828 -0.4997
 8311TIP3   OH246347   6.346   3.292  13.788  0.1920 -0.7652  0.0799
 8311TIP3    H146348   6.252   3.307  13.796  0.3735  0.5522  0.0280
 8311TIP3    H246349   6.359   3.270  13.695  0.0835  0.4040 -0.2275
 8312TIP3   OH246350   3.628   1.927  11.004  0.5496 -0.1949 -0.0318
 8312TIP3    H146351   3.666   1.896  11.086 -0.2468 -0.8732  0.0949
 8312TIP3    H246352   3.586   1.849  10.967 -0.6937  0.5278 -0.1695
 8313TIP3   OH246353   6.412   5.688   3.550  0.0355  0.0341  0.1538
 8313TIP3    H146354   6.364   5.643   3.482 -2.1630  0.0519  1.5987
 8313TIP3    H246355   6.415   5.779   3.521 -2.0257  0.2973  0.5874
 8314TIP3   OH246356   5.046   4.315   4.227  0.0685  0.6758  0.2948
 8314TIP3    H146357   5.121   4.334   4.170  1.5061 -0.0682  1.8664
 8314TIP3    H246358   5.035   4.395   4.278  1.1322  0.0970  1.4776
 8315TIP3   OH246359   3.033   6.114  16.366  0.1660 -0.4514  0.2496
 8315TIP3    H146360   2.995   6.192  16.327 -1.5997 -1.0607  0.6599
 8315TIP3    H246361   2.989   6.104  16.450 -0.5700 -2.5163 -0.3018
 8316TIP3   OH246362   5.856   5.135  13.661 -0.3097  0.2639  0.2158
 8316TIP3    H146363   5.902   5.136  13.745  0.2916 -1.4135 -0.0500
 8316TIP3    H246364   5.849   5.043  13.638 -1.3914  0.6283 -1.0958
 8317TIP3   OH246365   0.650   2.334  11.040 -0.6366 -0.2357  0.4678
 8317TIP3    H146366   0.583   2.273  11.073  0.0846 -0.2321  2.0118
 8317TIP3    H246367   0.705   2.352  11.116 -0.4667  1.8779 -0.1019
 8318TIP3   OH246368   5.636   6.381  13.221  0.7747  0.0020  0.5235
 8318TIP3    H146369   5.708   6.365  13.282  1.5978 -0.5507 -0.5663
 8318TIP3    H246370   5.608   6.294  13.193  0.0044  0.2315  0.5503
 8319TIP3   OH246371   3.288   5.128   1.545 -0.9710  0.4060  0.0696
 8319TIP3    H146372   3.355   5.076   1.499 -0.6509  0.0405  0.9285
 8319TIP3    H246373   3.311   5.119   1.637 -1.0598  1.8868  0.2557
 8320TIP3   OH246374   1.619   2.139   5.452  0.1074 -0.1500 -0.2340
 8320TIP3    H146375   1.664   2.065   5.410  1.7532  1.4317 -1.4338
 8320TIP3    H246376   1.612   2.204   5.383  1.4405  1.9412  1.4788
 8321TIP3   OH246377   3.858   4.982  14.497 -0.3099 -0.0171  0.1107
 8321TIP3    H146378   3.812   5.049  14.548 -0.6598 -0.2245  0.0717
 8321TIP3    H246379   3.834   4.900  14.540 -0.9922 -0.2421 -0.6631
 8322TIP3   OH246380   0.801   1.698   5.566  0.3840 -0.0646 -0.3251
 8322TIP3    H146381   0.760   1.618   5.598  0.2370  0.2212  0.2104
 8322TIP3    H246382   0.728   1.756   5.545  0.4947  0.2771  0.2020
 8323TIP3   OH246383   4.469   1.074   2.653 -0.0217  0.1687 -0.0127
 8323TIP3    H146384   4.492   1.000   2.596 -1.2756  0.2493 -0.6671
 8323TIP3    H246385   4.549   1.127   2.658  1.1103 -1.5374  0.9977
 8324TIP3   OH246386   5.336   3.947   3.607 -0.0752  0.0228 -0.0467
 8324TIP3    H146387   5.340   3.862   3.651  0.7642  0.9379  1.7780
 8324TIP3    H246388   5.414   3.993   3.638 -1.7658  2.3683  1.0645
 8325TIP3   OH246389   2.661   6.647  17.021  0.2793 -0.7154  0.3474
 8325TIP3    H146390   2.618   6.626  16.938 -2.5622  2.5547  0.7872
 8325TIP3    H246391   2.622   6.585  17.084 -0.9433 -0.3213  0.0094
 8326TIP3   OH246392   0.155   4.391  16.698  0.2295  0.3064 -0.6001
 8326TIP3    H146393   0.084   4.344  16.741 -0.2244  2.6553  1.4139
 8326TIP3    H246394   0.219   4.323  16.675 -1.3025 -1.4999  0.2711
 8327TIP3   OH246395   2.053   0.181   3.397 -0.0873  0.2894  0.0355
 8327TIP3    H146396   2.137   0.225   3.408 -1.0403  2.0402  0.6375
 8327TIP3    H246397   2.021   0.168   3.486 -0.0435 -1.2774 -0.1482
 8328TIP3   OH246398   2.653   0.260  10.504  0.0199  0.2647  0.6878
 8328TIP3    H146399   2.632   0.351  10.525  2.3382  0.7699  1.0009
 8328TIP3    H246400   2.668   0.260  10.409  0.2385  0.2493  0.7228
 8329TIP3   OH246401   3.505   1.804  12.944 -0.1857  0.2108  0.4683
 8329TIP3    H146402   3.485   1.714  12.918 -0.1982 -0.3460  2.2826
 8329TIP3    H246403   3.558   1.796  13.023  1.2076  1.7944 -0.2215
 8330TIP3   OH246404   1.743   4.967  15.711 -0.0108  0.2387  0.6453
 8330TIP3    H146405   1.766   5.059  15.697 -1.4696  0.8099  1.7166
 8330TIP3    H246406   1.652   4.961  15.683  0.7109 -1.4893 -1.6815
 8331TIP3   OH246407   6.293   3.430   3.953  0.2533  0.7370 -0.2959
 8331TIP3    H146408   6.379   3.388   3.956 -0.4817 -1.1097 -2.3694
 8331TIP3    H246409   6.312   3.522   3.937  1.8576  0.9459  2.2010
 8332TIP3   OH246410   4.311   3.324   2.852  0.3295  0.1595  0.3301
 8332TIP3    H146411   4.404   3.323   2.874  0.2712 -1.2581  0.6399
 8332TIP3    H246412   4.285   3.232   2.856 -1.0289  0.5062 -0.0189
 8333TIP3   OH246413   5.716   6.150  17.086  0.2950  0.8886 -0.3009
 8333TIP3    H146414   5.630   6.174  17.120 -0.5096  0.3221 -1.8649
 8333TIP3    H246415   5.777   6.181  17.153 -1.1267  0.9969  1.0005
 8334TIP3   OH246416   3.592   0.298   5.044  0.6871  0.0582 -0.4049
 8334TIP3    H146417   3.668   0.258   5.003  2.6057  0.5186  2.4127
 8334TIP3    H246418   3.566   0.236   5.113 -1.0515  0.2652 -0.8203
 8335TIP3   OH246419   4.833   3.994   1.589  0.5611 -0.4783  0.1154
 8335TIP3    H146420   4.911   3.952   1.553 -1.7426 -3.3013 -2.0154
 8335TIP3    H246421   4.786   4.028   1.513  0.0283  1.9282  1.4257
 8336TIP3   OH246422   5.231   6.091  16.322 -0.1778  0.5870  0.3562
 8336TIP3    H146423   5.215   6.131  16.237  0.8440  0.8286  0.2611
 8336TIP3    H246424   5.242   5.998  16.304  0.6858  0.7268  0.1257
 8337TIP3   OH246425   3.631   1.334  12.072 -0.2480 -0.0049  0.0771
 8337TIP3    H146426   3.563   1.359  12.009 -0.1137 -0.9674 -0.4843
 8337TIP3    H246427   3.707   1.387  12.048 -0.3999  0.1043 -0.1674
 8338TIP3   OH246428   6.254   2.753   4.781 -0.3913  0.0260  0.6914
 8338TIP3    H146429   6.164   2.778   4.804 -0.3634  0.1958  0.6170
 8338TIP3    H246430   6.273   2.679   4.838 -1.0411 -0.8403 -0.1673
 8339TIP3   OH246431   2.490   5.739   3.060 -0.1506  0.0138  0.2449
 8339TIP3    H146432   2.578   5.764   3.086  0.3240 -0.4593 -0.8282
 8339TIP3    H246433   2.470   5.796   2.985  0.7409 -2.2884 -1.9063
 8340TIP3   OH246434   4.104   2.895   2.712 -0.4535  0.3672  0.2978
 8340TIP3    H146435   4.096   2.932   2.800 -1.1046 -0.7065  0.7098
 8340TIP3    H246436   4.175   2.944   2.672  0.7894 -0.0367  1.9123
 8341TIP3   OH246437   5.420   6.598  17.252  0.3942 -0.2429 -0.0608
 8341TIP3    H146438   5.445   6.582  17.161  2.6178  3.4831 -0.3373
 8341TIP3    H246439   5.325   6.603  17.251  0.3653 -0.3754 -2.1494
 8342TIP3   OH246440   2.260   2.395   6.931 -0.3291 -0.0626 -0.1281
 8342TIP3    H146441   2.279   2.308   6.966  2.2260  0.1883 -0.7130
 8342TIP3    H246442   2.242   2.381   6.838  1.1468  0.1076 -0.4578
 8343TIP3   OH246443   2.667   0.806  11.078  0.2960 -0.3796 -0.3839
 8343TIP3    H146444   2.582   0.763  11.078 -0.1469  0.3456  2.1475
 8343TIP3    H246445   2.651   0.891  11.037 -0.1876 -0.2918 -0.0242
 8344TIP3   OH246446   2.152   4.819   0.096  0.2386  0.3380  0.0703
 8344TIP3    H146447   2.131   4.886   0.031 -1.0294 -0.3764 -0.2833
 8344TIP3    H246448   2.080   4.823   0.158  0.2994 -0.4982  0.2005
 8345TIP3   OH246449   3.634   3.361  12.809 -0.8476  0.2059 -0.0991
 8345TIP3    H146450   3.692   3.419  12.759  0.4686 -1.7174 -0.9670
 8345TIP3    H246451   3.553   3.358  12.757 -0.1792 -0.2912 -1.1580
 8346TIP3   OH246452   6.158   6.257   4.620 -0.8026  0.1350  0.0133
 8346TIP3    H146453   6.181   6.207   4.542 -3.3589 -0.1496 -0.6699
 8346TIP3    H246454   6.123   6.340   4.587 -1.2681  0.3002  0.8694
 8347TIP3   OH246455   0.717   2.157  16.197  0.0487 -0.4711  0.5313
 8347TIP3    H146456   0.776   2.088  16.167 -1.2834 -1.5931  0.3821
 8347TIP3    H246457   0.727   2.227  16.132  1.3587 -0.5361  0.6420
 8348TIP3   OH246458   4.101   1.855   3.478 -0.4316 -0.7630 -0.0858
 8348TIP3    H146459   4.106   1.942   3.518  0.9488 -0.9770  0.2435
 8348TIP3    H246460   4.164   1.802   3.526 -1.0216 -1.8744 -0.4982
 8349TIP3   OH246461   2.123   0.834  12.734  0.2249  0.0261 -0.2231
 8349TIP3    H146462   2.154   0.744  12.729  0.0305  0.0380 -3.0998
 8349TIP3    H246463   2.171   0.872  12.808  0.3648 -2.3656  0.9947
 8350TIP3   OH246464   0.274   0.302  16.903  0.5163 -0.2721 -0.5387
 8350TIP3    H146465   0.314   0.215  16.911 -0.9601 -1.0152 -0.7958
 8350TIP3    H246466   0.184   0.284  16.875  0.5929  1.4105 -2.0418
 8351TIP3   OH246467   3.169   2.415  12.384 -0.2485 -0.6804  0.8309
 8351TIP3    H146468   3.155   2.496  12.432  0.5431 -1.1481  1.9071
 8351TIP3    H246469   3.252   2.428  12.339 -1.0489 -0.1955 -0.5712
 8352TIP3   OH246470   4.482   1.086   5.300 -0.0362  0.1293  0.4463
 8352TIP3    H146471   4.439   1.100   5.384  0.8697  0.6125  0.8481
 8352TIP3    H246472   4.554   1.025   5.319  0.4136  0.5408  0.1109
 8353TIP3   OH246473   5.570   2.789  15.767  0.2744 -0.1206 -0.5936
 8353TIP3    H146474   5.664   2.803  15.765  0.0987  1.1229 -0.6342
 8353TIP3    H246475   5.559   2.698  15.740  1.5385 -0.6731  0.6004
 8354TIP3   OH246476   1.950   2.121  11.258  0.4629 -0.1528 -0.4594
 8354TIP3    H146477   2.005   2.141  11.334  1.0876 -1.0525 -0.6567
 8354TIP3    H246478   1.905   2.203  11.238  1.9122  0.6779 -0.4355
 8355TIP3   OH246479   0.208   6.047   0.906 -0.5634 -0.4476  0.2920
 8355TIP3    H146480   0.190   5.972   0.962 -2.4599 -0.3507 -0.1211
 8355TIP3    H246481   0.125   6.094   0.901  0.6427  1.9088  0.8198
 8356TIP3   OH246482   1.104   5.591   5.273 -0.0801  0.4189  0.7241
 8356TIP3    H146483   1.197   5.573   5.262 -0.0622  0.9455  0.0125
 8356TIP3    H246484   1.099   5.685   5.288 -0.4868  0.3601  0.9918
 8357TIP3   OH246485   3.891   3.100   3.636 -0.0404 -0.5540 -0.4977
 8357TIP3    H146486   3.870   3.189   3.666 -0.6722 -0.8209 -0.1187
 8357TIP3    H246487   3.958   3.070   3.698 -2.0823 -1.4906  1.4040
 8358TIP3   OH246488   3.296   6.149  13.223 -0.1036  0.1872  0.3012
 8358TIP3    H146489   3.261   6.229  13.264 -0.2001 -0.7234  2.0710
 8358TIP3    H246490   3.351   6.109  13.290 -0.1448 -1.3058 -0.5099
 8359TIP3   OH246491   2.746   0.076  17.204 -0.0063 -0.0310  0.4645
 8359TIP3    H146492   2.737   0.009  17.272  0.8456 -0.7398 -0.1033
 8359TIP3    H246493   2.713   0.034  17.125  1.0816 -0.0055 -0.0206
 8360TIP3   OH246494   3.165   5.610   0.470  0.3728 -0.3845  0.0541
 8360TIP3    H146495   3.185   5.532   0.521  0.4363 -1.4490 -1.5452
 8360TIP3    H246496   3.132   5.577   0.386 -0.8962  1.3076 -0.1771
 8361TIP3   OH246497   2.055   5.893  15.242  0.3090 -0.1182 -0.1619
 8361TIP3    H146498   2.129   5.904  15.181  0.4994  1.7785  0.3244
 8361TIP3    H246499   2.070   5.960  15.309 -1.8640  0.3349 -0.0621
 8362TIP3   OH246500   2.069   3.947  11.429  0.2615  0.4212 -0.3522
 8362TIP3    H146501   1.982   3.921  11.459  0.4110  1.1209  0.7183
 8362TIP3    H246502   2.053   3.995  11.348 -0.5148  1.8158  0.5744
 8363TIP3   OH246503   0.184   5.901  14.333  0.7233 -0.3349 -0.4035
 8363TIP3    H146504   0.126   5.940  14.398  0.3770  1.1523 -1.5449
 8363TIP3    H246505   0.132   5.833  14.292  0.8031 -0.9937  0.5541
 8364TIP3   OH246506   0.120   4.249   0.719 -1.2459 -0.0150  0.1802
 8364TIP3    H146507   0.047   4.289   0.670 -0.4702  0.5138 -0.5756
 8364TIP3    H246508   0.191   4.246   0.656 -0.3548  0.2391  1.1558
 8365TIP3   OH246509   1.616   4.814   5.286  0.4565 -0.5179 -0.7643
 8365TIP3    H146510   1.571   4.895   5.262 -2.0166 -1.3652  0.6990
 8365TIP3    H246511   1.704   4.843   5.311 -0.4139  1.7676 -0.0273
 8366TIP3   OH246512   6.745   6.505  17.385 -0.4105 -0.4453 -0.0711
 8366TIP3    H146513   6.746   6.411  17.370  0.9509 -0.3596 -0.6530
 8366TIP3    H246514   6.654   6.531  17.369 -0.4362 -1.3829 -1.6065
 8367TIP3   OH246515   1.831   0.277  12.010  0.3008 -0.0209 -0.6920
 8367TIP3    H146516   1.877   0.247  12.089 -0.6202 -0.1423 -0.1814
 8367TIP3    H246517   1.884   0.349  11.977 -0.1641  1.1502  1.0068
 8368TIP3   OH246518   0.580   6.136  15.084  0.6461  0.2063 -0.5306
 8368TIP3    H146519   0.512   6.204  15.085  1.8293  1.4317 -0.0418
 8368TIP3    H246520   0.544   6.067  15.029 -1.3232  0.4652  0.3191
 8369TIP3   OH246521   3.453   4.839   5.844  0.1086 -0.0527 -0.0803
 8369TIP3    H146522   3.506   4.792   5.781 -0.3309  2.0012 -2.0820
 8369TIP3    H246523   3.408   4.907   5.794  1.0236  2.8446  2.6503
 8370TIP3   OH246524   5.016   4.590   6.035  0.6006  0.5989  0.3344
 8370TIP3    H146525   5.096   4.613   5.988  0.6558  0.7910  0.5251
 8370TIP3    H246526   5.045   4.528   6.102  0.4774  0.0886 -0.0735
 8371TIP3   OH246527   5.318   5.578   3.829 -0.2790 -0.1206  0.2103
 8371TIP3    H146528   5.352   5.664   3.853  0.6525  0.0848 -1.7124
 8371TIP3    H246529   5.280   5.590   3.742 -0.4566 -1.5813  0.0598
 8372TIP3   OH246530   3.309   4.336   0.016  0.7995  0.0545  1.0361
 8372TIP3    H146531   3.397   4.299   0.019  0.8057 -0.1309 -0.4696
 8372TIP3    H246532   3.322   4.427  -0.011  0.4659 -0.5546 -1.4725
 8373TIP3   OH246533   1.707   4.719   2.492 -0.2866  0.6346 -0.7167
 8373TIP3    H146534   1.690   4.653   2.559  2.2243  3.7574  3.3954
 8373TIP3    H246535   1.620   4.756   2.473 -1.2210 -1.1751 -0.2170
 8374TIP3   OH246536   6.392   3.002   2.507  0.0076  0.6063  0.1821
 8374TIP3    H146537   6.379   3.096   2.522  0.8844  0.4990  1.8018
 8374TIP3    H246538   6.476   2.982   2.548 -0.0510 -0.8606 -0.3391
 8375TIP3   OH246539   3.437   2.645  14.904  0.4054  0.0996 -0.7255
 8375TIP3    H146540   3.469   2.723  14.949  0.1644  0.1380 -0.6147
 8375TIP3    H246541   3.411   2.586  14.975 -0.8857  0.5406 -0.7914
 8376TIP3   OH246542   5.001   1.576  16.141  0.4729 -0.2804  0.2620
 8376TIP3    H146543   5.063   1.523  16.191  1.6585  2.0052  1.3445
 8376TIP3    H246544   4.955   1.628  16.207 -2.9131 -2.0606 -0.4557
 8377TIP3   OH246545   0.317   2.591   3.781  0.1317 -0.0634 -0.0138
 8377TIP3    H146546   0.345   2.501   3.796  0.8109  0.0551 -0.5087
 8377TIP3    H246547   0.398   2.639   3.766 -0.3046  0.3986 -0.9801
 8378TIP3   OH246548   0.307   3.082  11.525 -0.1894 -0.1283 -0.7862
 8378TIP3    H146549   0.230   3.093  11.468 -1.7781  0.1715  1.3167
 8378TIP3    H246550   0.273   3.091  11.614  2.3693  0.3611  0.2258
 8379TIP3   OH246551   5.712   4.648   4.027 -0.0200  0.0115 -0.0179
 8379TIP3    H146552   5.796   4.620   3.992 -0.4983 -1.1503 -0.2608
 8379TIP3    H246553   5.734   4.714   4.093  1.0401  0.1514 -0.5066
 8380TIP3   OH246554   4.360   1.030  14.905  0.5707  0.1611 -0.7804
 8380TIP3    H146555   4.284   1.080  14.934  1.0025  0.9694 -1.0219
 8380TIP3    H246556   4.417   1.025  14.982 -0.1925 -1.3677 -0.2880
 8381TIP3   OH246557   4.918   1.263   3.133 -0.4787  0.9829 -0.5907
 8381TIP3    H146558   4.929   1.233   3.043 -1.4828 -0.9354 -0.1491
 8381TIP3    H246559   5.000   1.239   3.176  0.4334  2.8936 -1.2057
 8382TIP3   OH246560   6.241   0.958  10.995  0.2105  0.4025 -0.0298
 8382TIP3    H146561   6.258   1.046  10.961  0.6463 -0.5049 -2.3048
 8382TIP3    H246562   6.314   0.906  10.963 -0.3026 -0.9111  0.8741
 8383TIP3   OH246563   0.524   1.841   0.841 -0.0820  0.6375  0.2797
 8383TIP3    H146564   0.583   1.902   0.886  1.1524  0.2887 -0.8279
 8383TIP3    H246565   0.568   1.822   0.758 -0.8198 -1.1720  0.2778
 8384TIP3   OH246566   2.551   3.530  12.085 -0.3603  0.2418  0.5291
 8384TIP3    H146567   2.630   3.479  12.066 -0.5412  0.6407 -1.6256
 8384TIP3    H246568   2.479   3.472  12.060 -0.7294  0.1589  1.7601
 8385TIP3   OH246569   2.289   3.524  12.648  0.0381  0.1752  0.1901
 8385TIP3    H146570   2.282   3.440  12.604 -1.3486  0.9164 -1.0834
 8385TIP3    H246571   2.209   3.571  12.625  1.1386  2.1777  0.1742
 8386TIP3   OH246572   6.647   0.389  14.043  0.3952  0.0018  0.0020
 8386TIP3    H146573   6.675   0.480  14.058  2.4923 -0.5890 -0.1421
 8386TIP3    H246574   6.564   0.398  13.996  0.8189  1.8563 -0.4875
 8387TIP3   OH246575   0.746   5.275  11.627 -0.2861 -0.5584 -0.3557
 8387TIP3    H146576   0.804   5.289  11.552 -1.2896  0.6957 -0.9389
 8387TIP3    H246577   0.686   5.349  11.625 -1.9590 -1.8183  0.1681
 8388TIP3   OH246578   6.086   0.226  14.991 -0.2867  0.1035 -0.1123
 8388TIP3    H146579   5.996   0.221  15.023  0.0261  1.1515  1.0069
 8388TIP3    H246580   6.136   0.170  15.051  0.1546  1.3215  0.6766
 8389TIP3   OH246581   4.037   0.037  15.265 -0.0638 -0.0783  0.0005
 8389TIP3    H146582   4.094   0.106  15.301 -2.9289  2.7499 -0.3601
 8389TIP3    H246583   3.999  -0.004  15.343 -2.2251  2.4106  0.3918
 8390TIP3   OH246584   2.048   5.625   5.178  0.2801  0.0816 -0.6712
 8390TIP3    H146585   2.056   5.629   5.273 -0.4700 -5.2687 -0.1170
 8390TIP3    H246586   1.954   5.633   5.161  0.2001 -0.8452 -0.7187
 8391TIP3   OH246587   4.706   4.165   5.858  0.4892 -0.4939  0.2020
 8391TIP3    H146588   4.647   4.167   5.783  0.7710  1.6047 -0.0228
 8391TIP3    H246589   4.666   4.102   5.919  0.1455 -2.0796 -1.5785
 8392TIP3   OH246590   6.428   1.621  14.075  0.5572 -0.5779 -0.4088
 8392TIP3    H146591   6.509   1.670  14.060  0.8106 -0.8623  0.0095
 8392TIP3    H246592   6.393   1.657  14.156 -1.3103  1.6235 -2.0439
 8393TIP3   OH246593   6.296   3.817  15.512  1.1082  0.1287  0.1499
 8393TIP3    H146594   6.370   3.829  15.452  1.0679  0.8117  0.2362
 8393TIP3    H246595   6.323   3.745  15.569  1.5199  0.0718 -0.1102
 8394TIP3   OH246596   3.165   3.021   3.576 -0.3161 -0.2285 -0.3210
 8394TIP3    H146597   3.209   3.011   3.491 -0.8871 -1.0195 -0.5368
 8394TIP3    H246598   3.072   3.006   3.557 -0.3682 -1.1142  0.5659
 8395TIP3   OH246599   4.015   0.179  14.722  0.1465 -0.4017 -0.7761
 8395TIP3    H146600   3.946   0.133  14.672 -0.3989 -1.1191  0.5847
 8395TIP3    H246601   4.079   0.111  14.742  0.9462  0.1286 -1.4538
 8396TIP3   OH246602   6.048   2.480   5.669  0.2058 -0.8335  0.0737
 8396TIP3    H146603   6.098   2.438   5.738  0.8401 -1.0061 -0.4819
 8396TIP3    H246604   6.108   2.483   5.594  0.7559  2.4000  0.4977
 8397TIP3   OH246605   3.088   1.583   2.339  0.2728  0.2370 -0.1360
 8397TIP3    H146606   3.084   1.508   2.281  1.3565  0.8288 -1.0191
 8397TIP3    H246607   3.182   1.604   2.345  0.0811  0.8859  0.9145
 8398TIP3   OH246608   5.484   4.739  11.571 -0.3772  0.0019  0.2936
 8398TIP3    H146609   5.530   4.670  11.619  1.4347  0.6987 -0.3580
 8398TIP3    H246610   5.391   4.721  11.586  0.0793 -0.4217  3.1468
 8399TIP3   OH246611   3.570   5.906   0.199  0.4918  0.4151 -0.5736
 8399TIP3    H146612   3.541   5.847   0.269 -1.3797  0.3431 -1.3542
 8399TIP3    H246613   3.665   5.914   0.213  0.2913 -0.1621  1.5060
 8400TIP3   OH246614   5.397   5.821   4.824  0.1963  0.4306 -0.4888
 8400TIP3    H146615   5.360   5.734   4.840 -1.0034  0.1119 -4.2084
 8400TIP3    H246616   5.490   5.811   4.847 -0.5182 -0.7384  2.3943
 8401TIP3   OH246617   1.867   6.480  15.497  0.4268 -0.7450 -0.2807
 8401TIP3    H146618   1.916   6.526  15.430  0.1705 -0.9483 -0.6114
 8401TIP3    H246619   1.784   6.527  15.503  0.3835 -0.8285 -0.2286
 8402TIP3   OH246620   5.507   6.511  13.444 -0.1563 -0.7801  0.3587
 8402TIP3    H146621   5.531   6.467  13.363 -1.6041  0.5219 -0.8455
 8402TIP3    H246622   5.542   6.455  13.514  2.5369 -1.1367 -1.1312
 8403TIP3   OH246623   5.115   5.444   5.162  0.0328 -0.4681 -0.0527
 8403TIP3    H146624   5.097   5.531   5.197 -0.4353 -0.2184 -0.8976
 8403TIP3    H246625   5.029   5.405   5.150  0.2018 -0.6516 -0.6725
 8404TIP3   OH246626   5.269   3.998   6.031 -0.3157  0.4579  0.0002
 8404TIP3    H146627   5.222   4.026   6.109 -1.6075  1.2724 -1.0189
 8404TIP3    H246628   5.328   4.070   6.011 -1.9167  1.4912 -1.2555
 8405TIP3   OH246629   0.333   0.215   1.874 -0.2647 -0.2425 -0.5397
 8405TIP3    H146630   0.238   0.208   1.860 -0.4334 -1.3463  0.8620
 8405TIP3    H246631   0.364   0.272   1.804 -2.0275  0.4947 -0.7653
 8406TIP3   OH246632   1.230   6.044  13.146 -0.0389 -0.2369  0.0165
 8406TIP3    H146633   1.252   6.136  13.128 -0.3675 -0.1016  0.2876
 8406TIP3    H246634   1.183   6.047  13.229  0.0886 -0.6726  0.1060
 8407TIP3   OH246635   5.535   4.613   2.343  0.3107 -0.5039  0.4013
 8407TIP3    H146636   5.453   4.566   2.355 -1.4227  2.2294  0.0139
 8407TIP3    H246637   5.536   4.639   2.251  1.1004  0.4033  0.6466
 8408TIP3   OH246638   6.133   3.617   5.231 -0.0115  0.3889  0.6002
 8408TIP3    H146639   6.112   3.587   5.319 -1.8275 -0.8996 -0.1995
 8408TIP3    H246640   6.188   3.548   5.195  0.4209  0.7329  0.6012
 8409TIP3   OH246641   4.793   5.387  12.946 -0.2671 -0.3192  0.0385
 8409TIP3    H146642   4.831   5.431  13.023  0.4275 -0.3106 -0.2998
 8409TIP3    H246643   4.782   5.296  12.974 -1.8845  0.0766  0.8067
 8410TIP3   OH246644   5.829   1.847   6.083  0.3381  0.3063  0.2872
 8410TIP3    H146645   5.922   1.863   6.099  0.4740  1.1958 -1.2387
 8410TIP3    H246646   5.784   1.907   6.143  0.7749  0.9221  0.0047
 8411TIP3   OH246647   2.066   4.706   0.604  0.4239  1.0113  0.7574
 8411TIP3    H146648   1.986   4.679   0.648  0.0677  0.0226 -0.4453
 8411TIP3    H246649   2.137   4.668   0.656 -0.0139 -0.8512  0.0715
 8412TIP3   OH246650   0.682   2.461   3.016  0.6309  0.4705  0.2627
 8412TIP3    H146651   0.628   2.473   2.938  1.2962  1.6413 -0.0345
 8412TIP3    H246652   0.744   2.391   2.992  0.8808  0.8784 -0.2898
 8413TIP3   OH246653   0.477   6.575  13.514  0.2768  0.3395  0.4528
 8413TIP3    H146654   0.434   6.652  13.552 -0.3356  1.1115 -1.6841
 8413TIP3    H246655   0.406   6.514  13.496  0.5068  0.1323  0.2409
 8414TIP3   OH246656   4.377   1.335  12.855 -0.3807 -0.4099  0.2300
 8414TIP3    H146657   4.385   1.271  12.926 -1.0645  0.4149  1.0680
 8414TIP3    H246658   4.395   1.419  12.896 -0.7109  0.0766 -0.5992
 8415TIP3   OH246659   5.178   6.590   0.629 -0.5357  0.8037  0.0501
 8415TIP3    H146660   5.094   6.569   0.670 -0.0958  0.7665  0.9656
 8415TIP3    H246661   5.174   6.684   0.613 -1.0385  0.6761 -0.5951
 8416TIP3   OH246662   5.785   0.826  11.035  0.0039 -0.1207  0.0351
 8416TIP3    H146663   5.709   0.883  11.046 -1.4206 -1.7963 -0.6947
 8416TIP3    H246664   5.805   0.829  10.942  0.5824  0.0049  0.1621
 8417TIP3   OH246665   1.413   0.636   2.532  0.3338 -0.1995 -0.0661
 8417TIP3    H146666   1.442   0.547   2.512 -0.7134 -1.0065  1.7163
 8417TIP3    H246667   1.318   0.632   2.523  0.3447  1.0643 -1.0217
 8418TIP3   OH246668   2.992   5.594  13.921  0.1681 -0.5582  0.4074
 8418TIP3    H146669   3.064   5.588  13.984  1.7243 -0.6971 -1.3123
 8418TIP3    H246670   2.996   5.512  13.871 -0.8148 -0.3027 -0.1265
 8419TIP3   OH246671   3.867   4.115  16.983 -0.1746 -0.0731  0.6216
 8419TIP3    H146672   3.943   4.123  17.041  0.1838  0.9048  0.0472
 8419TIP3    H246673   3.798   4.167  17.026 -0.7661 -1.5233  1.4952
 8420TIP3   OH246674   3.089   1.014  13.412  0.0914  0.5013  0.2665
 8420TIP3    H146675   3.137   0.952  13.357  0.7786  0.4174  0.9466
 8420TIP3    H246676   3.011   0.967  13.439 -0.9069  0.9474 -1.6038
 8421TIP3   OH246677   5.770   0.520   5.582  0.2569 -0.2935 -0.0740
 8421TIP3    H146678   5.842   0.504   5.521  2.2828  1.5297  1.6714
 8421TIP3    H246679   5.768   0.615   5.592 -2.4627 -0.2934 -0.0566
 8422TIP3   OH246680   4.413   3.023  17.141 -0.4209  0.2848  0.1346
 8422TIP3    H146681   4.398   3.096  17.079  0.6681  2.0129  1.7972
 8422TIP3    H246682   4.332   3.018  17.191  0.0064  1.3855  0.9807
 8423TIP3   OH246683   4.400   3.362  13.341  0.3939 -0.0037  1.1247
 8423TIP3    H146684   4.350   3.355  13.260 -0.7875  2.8593  1.4839
 8423TIP3    H246685   4.400   3.455  13.361  3.1335 -0.2763  2.9363
 8424TIP3   OH246686   4.669   6.370  11.179 -0.0326  0.0046 -0.7861
 8424TIP3    H146687   4.747   6.425  11.167  0.0953  0.2220  0.8585
 8424TIP3    H246688   4.701   6.280  11.174  0.5561  0.0772  0.9409
 8425TIP3   OH246689   6.607   1.092  13.518  0.1385 -0.5538  0.0332
 8425TIP3    H146690   6.623   1.096  13.612  1.4625 -0.8373 -0.1658
 8425TIP3    H246691   6.590   0.999  13.500 -1.0164 -0.3677  0.1225
 8426TIP3   OH246692   0.469   0.723  15.949 -0.1576  0.0587  0.0759
 8426TIP3    H146693   0.446   0.781  15.877 -1.4759  1.5732  1.6310
 8426TIP3    H246694   0.564   0.710  15.940 -0.4793 -1.0884 -2.7686
 8427TIP3   OH246695   4.049   0.163  15.732  0.9321 -0.0123  0.1477
 8427TIP3    H146696   3.981   0.154  15.798  1.4244  1.4181  0.9058
 8427TIP3    H246697   4.040   0.253  15.701  1.4054 -0.3338 -0.9657
 8428TIP3   OH246698   4.200   2.918  15.980  0.7333  0.3666  0.2446
 8428TIP3    H146699   4.105   2.909  15.990  0.9693 -1.7500  1.1331
 8428TIP3    H246700   4.226   2.980  16.049  0.3018 -1.3230  2.0211
 8429TIP3   OH246701   0.227   4.501  10.601  0.4736  0.0281  0.1904
 8429TIP3    H146702   0.307   4.553  10.597  0.5397 -0.1434 -0.8509
 8429TIP3    H246703   0.158   4.565  10.621  0.7410  0.3134  0.2061
 8430TIP3   OH246704   3.578   3.511   1.224 -0.7589 -0.6115 -0.3926
 8430TIP3    H146705   3.490   3.533   1.193 -1.1258 -2.9622 -1.2159
 8430TIP3    H246706   3.631   3.508   1.144  0.5090  2.3051  0.2333
 8431TIP3   OH246707   3.709   3.528  13.383  0.3018 -0.4104 -0.2631
 8431TIP3    H146708   3.763   3.464  13.429  0.6316  0.2837  0.3384
 8431TIP3    H246709   3.645   3.476  13.334  1.6096 -1.2685 -1.1328
 8432TIP3   OH246710   5.808   3.062  12.529  0.0175  0.1696  0.3655
 8432TIP3    H146711   5.713   3.058  12.523  0.0062  1.0765 -0.2434
 8432TIP3    H246712   5.839   3.022  12.447  0.1798 -0.3795  0.6843
 8433TIP3   OH246713   6.737   6.410   2.090 -0.5907  0.0034  0.3942
 8433TIP3    H146714   6.657   6.416   2.142 -0.0219 -0.1756  1.3279
 8433TIP3    H246715   6.807   6.399   2.155 -0.0975 -2.9772 -0.4553
 8434TIP3   OH246716   1.756   1.907   5.392 -0.0781 -0.2718  0.1719
 8434TIP3    H146717   1.691   1.837   5.392 -0.6874  0.2732  1.2800
 8434TIP3    H246718   1.841   1.862   5.390 -0.4673 -1.0094 -0.1379
 8435TIP3   OH246719   5.640   0.481  11.066  0.3323 -0.0111 -0.0302
 8435TIP3    H146720   5.545   0.476  11.077  0.2930  0.8298  0.0918
 8435TIP3    H246721   5.656   0.447  10.978 -0.2802  1.4675 -0.7399
 8436TIP3   OH246722   4.297   5.073   0.911  0.3259 -0.2034  0.6521
 8436TIP3    H146723   4.281   5.090   1.003  2.0552  0.6680  0.8192
 8436TIP3    H246724   4.238   5.133   0.865  1.9343  1.9144  1.2293
 8437TIP3   OH246725   1.747   1.150   2.748  0.2381 -0.4234 -0.3465
 8437TIP3    H146726   1.694   1.227   2.768 -1.4792 -1.1762 -1.7827
 8437TIP3    H246727   1.791   1.129   2.830  1.9014  2.8962 -0.2223
 8438TIP3   OH246728   1.661   2.450  11.199  0.2881  0.6479 -0.3551
 8438TIP3    H146729   1.707   2.442  11.283  0.6342 -0.9995 -0.6555
 8438TIP3    H246730   1.621   2.537  11.202  3.0717  2.0487  0.1000
 8439TIP3   OH246731   3.717   4.706  11.319  0.6849 -0.0981 -0.4283
 8439TIP3    H146732   3.675   4.660  11.248  0.9235  0.1401 -0.7278
 8439TIP3    H246733   3.723   4.797  11.289 -0.0734  0.2023  0.2793
 8440TIP3   OH246734   5.316   3.769   5.576 -0.0815  0.1918 -0.4308
 8440TIP3    H146735   5.342   3.691   5.625 -0.7846 -0.9816 -1.8589
 8440TIP3    H246736   5.275   3.826   5.642  1.3670 -0.1549  0.8336
 8441TIP3   OH246737   0.367   3.075   4.482 -0.1017 -0.3173  0.3387
 8441TIP3    H146738   0.325   3.143   4.429  2.0280 -0.8463 -2.3068
 8441TIP3    H246739   0.314   2.997   4.467  0.1026 -0.2993 -0.5998
 8442TIP3   OH246740   0.710   2.346   2.729 -0.1196  0.0275 -0.0863
 8442TIP3    H146741   0.805   2.357   2.731  0.0884 -1.1927 -1.5162
 8442TIP3    H246742   0.675   2.435   2.740  1.2611  0.9814 -2.7195
 8443TIP3   OH246743   0.002   1.893  15.276 -0.3458 -0.1472 -0.8534
 8443TIP3    H146744  -0.090   1.919  15.281 -0.9597 -2.2834  1.2950
 8443TIP3    H246745   0.022   1.893  15.183 -2.5044  0.4340 -1.3845
 8444TIP3   OH246746   4.411   1.175  15.590  0.5610  0.4498 -0.1143
 8444TIP3    H146747   4.494   1.210  15.621  0.1198  0.2070  1.4051
 8444TIP3    H246748   4.403   1.089  15.632 -0.1898  0.2249 -0.6877
 8445TIP3   OH246749   3.515   4.316   3.532 -0.2817 -0.7159  1.1579
 8445TIP3    H146750   3.528   4.411   3.531 -0.4353 -0.6949  1.0680
 8445TIP3    H246751   3.522   4.290   3.440 -0.7405 -0.7207  1.1222
 8446TIP3   OH246752   3.548   4.552  15.950 -0.0181  0.5361  0.2489
 8446TIP3    H146753   3.585   4.464  15.960 -0.1648  0.5759  1.2482
 8446TIP3    H246754   3.514   4.553  15.860  0.6409 -0.1697 -0.0247
 8447TIP3   OH246755   5.138   6.154   0.470 -0.0385  0.6218  0.1948
 8447TIP3    H146756   5.063   6.149   0.411 -1.6832 -0.0505  2.2159
 8447TIP3    H246757   5.173   6.065   0.473  0.0012  0.6392  0.2671
 8448TIP3   OH246758   2.806   0.039  15.513  0.3596  0.6191  0.2691
 8448TIP3    H146759   2.756   0.007  15.588 -0.2188  1.2931  0.1860
 8448TIP3    H246760   2.890   0.068  15.550  0.3056  0.3968  0.5625
 8449TIP3   OH246761   0.845   2.825  13.517  0.1921 -0.5562  0.2005
 8449TIP3    H146762   0.755   2.845  13.491  0.1776 -0.0042  0.6798
 8449TIP3    H246763   0.844   2.731  13.534 -0.2960 -0.5509  0.2106
 8450TIP3   OH246764   1.068   0.129  17.296 -0.2125 -0.5175  0.1454
 8450TIP3    H146765   0.978   0.122  17.264 -0.2048 -0.1005  0.0230
 8450TIP3    H246766   1.062   0.108  17.390 -0.5662  0.2624  0.3072
 8451TIP3   OH246767   2.055   1.190   3.042 -0.3120 -0.0415  0.2295
 8451TIP3    H146768   2.129   1.205   3.101 -0.8666 -1.3739  1.3198
 8451TIP3    H246769   2.095   1.180   2.955  0.4108  3.4830 -0.0196
 8452TIP3   OH246770   3.605   1.626  12.526 -0.0529 -0.3836  0.1977
 8452TIP3    H146771   3.612   1.533  12.502  0.2615 -0.6284  1.2272
 8452TIP3    H246772   3.511   1.641  12.532 -0.0952 -0.7532  0.4913
 8453TIP3   OH246773   0.853   3.202   2.552 -0.2662 -0.2565 -0.0638
 8453TIP3    H146774   0.781   3.246   2.598 -1.2645 -2.3915  0.5378
 8453TIP3    H246775   0.931   3.229   2.601 -0.8564  0.5830  0.4672
 8454TIP3   OH246776   2.896   2.100  11.564 -0.1738  0.3063 -0.5961
 8454TIP3    H146777   2.863   2.176  11.518  1.1174 -0.5753 -3.1455
 8454TIP3    H246778   2.992   2.110  11.563 -0.0612 -0.0699  1.4084
 8455TIP3   OH246779   5.631   3.433  12.871  0.2033 -0.4017 -0.0482
 8455TIP3    H146780   5.672   3.514  12.902 -3.4246  0.2153  4.2443
 8455TIP3    H246781   5.538   3.453  12.867 -0.6563 -3.8693 -0.8360
 8456TIP3   OH246782   5.723   6.635  12.426 -0.2256  0.3414 -0.0223
 8456TIP3    H146783   5.660   6.670  12.363  2.2961  2.2201 -1.6903
 8456TIP3    H246784   5.707   6.687  12.505 -1.4420  0.0272 -0.0353
 8457TIP3   OH246785   5.212   6.580   5.028 -0.0359  0.0411  0.1432
 8457TIP3    H146786   5.130   6.606   5.071 -0.0891 -2.5001  1.8453
 8457TIP3    H246787   5.183   6.535   4.948 -0.3638 -1.0930  0.8763
 8458TIP3   OH246788   6.337   1.581  16.361  0.6786 -0.2209 -0.2623
 8458TIP3    H146789   6.405   1.573  16.295  0.8396 -0.8443 -0.0366
 8458TIP3    H246790   6.302   1.492  16.370 -1.0664  0.3233 -1.3097
 8459TIP3   OH246791   2.681   1.643   6.612  0.3095  0.1474 -0.4911
 8459TIP3    H146792   2.762   1.634   6.562  1.2295  0.0568  0.9737
 8459TIP3    H246793   2.662   1.737   6.608  0.2701  0.1177 -1.1494
 8460TIP3   OH246794   3.487   6.138  14.642 -0.1647 -0.1476  0.1730
 8460TIP3    H146795   3.442   6.152  14.558  0.8575  1.2178 -0.1786
 8460TIP3    H246796   3.417   6.125  14.705 -0.9844 -0.1102 -0.7077
 8461TIP3   OH246797   1.712   1.597   1.144 -0.1293  0.2432  0.0779
 8461TIP3    H146798   1.661   1.533   1.192  1.7141 -0.4394  1.2332
 8461TIP3    H246799   1.753   1.548   1.073  1.5293 -0.0122  1.1448
 8462TIP3   OH246800   2.682   3.335  12.437 -0.2743  0.5975  0.0908
 8462TIP3    H146801   2.617   3.266  12.448  0.6795 -0.8099 -2.2653
 8462TIP3    H246802   2.632   3.412  12.409 -0.9620 -0.9277 -3.4647
 8463TIP3   OH246803   5.237   0.781   1.172  0.2491 -0.5207 -0.3538
 8463TIP3    H146804   5.316   0.773   1.118  0.6352 -0.6169  0.2020
 8463TIP3    H246805   5.224   0.692   1.207  1.3016 -0.0389  1.4418
 8464TIP3   OH246806   5.717   3.384   6.457 -1.0815  0.0419 -0.1986
 8464TIP3    H146807   5.752   3.359   6.372 -0.6396 -1.3430  0.3624
 8464TIP3    H246808   5.734   3.478   6.464 -0.5306  0.0391 -1.3491
 8465TIP3   OH246809   6.036   6.340   0.676 -0.6276 -0.2068  0.0732
 8465TIP3    H146810   5.959   6.296   0.712 -0.5237  0.0681  0.6372
 8465TIP3    H246811   6.002   6.424   0.643 -0.4756  0.1493  0.8181
 8466TIP3   OH246812   4.608   4.936  14.751 -0.2256 -0.1075 -0.1974
 8466TIP3    H146813   4.588   4.917  14.843 -0.2822 -0.1406 -0.2164
 8466TIP3    H246814   4.605   4.850  14.709  3.2762 -0.6880  0.3927
 8467TIP3   OH246815   0.490   0.624  11.282  0.2917 -0.5536  0.3083
 8467TIP3    H146816   0.544   0.562  11.329 -0.4590 -0.7093  0.9855
 8467TIP3    H246817   0.411   0.633  11.335  0.3919  1.0061  0.2527
 8468TIP3   OH246818   3.031   3.502   2.417 -0.0361  0.5460  0.0838
 8468TIP3    H146819   3.040   3.440   2.344 -0.1096  2.8496 -2.0044
 8468TIP3    H246820   3.069   3.456   2.492 -0.7903 -2.2945 -1.1358
 8469TIP3   OH246821   1.400   3.626  15.130 -0.3161 -0.1871 -0.0338
 8469TIP3    H146822   1.449   3.575  15.194 -0.6528  0.4767  0.7680
 8469TIP3    H246823   1.397   3.571  15.052 -1.8940 -2.0306  1.2383
 8470TIP3   OH246824   1.363   4.306  11.550  0.6223  0.6078  0.3513
 8470TIP3    H146825   1.291   4.369  11.554 -1.9995 -2.2076  3.4655
 8470TIP3    H246826   1.397   4.303  11.640  3.8009  0.7738 -0.7232
 8471TIP3   OH246827   3.590   4.335  12.838  0.3416 -0.4096 -0.8863
 8471TIP3    H146828   3.586   4.429  12.858  0.0554 -0.4577 -0.7108
 8471TIP3    H246829   3.662   4.303  12.893 -1.6672 -0.8986  1.6381
 8472TIP3   OH246830   3.778   5.700   5.404 -0.7455  0.3489 -0.2157
 8472TIP3    H146831   3.758   5.706   5.497  1.6414  0.2294  0.3484
 8472TIP3    H246832   3.725   5.770   5.364 -1.6164  0.5547  1.2437
 8473TIP3   OH246833   1.154   2.573  14.913 -0.1433 -0.8798 -0.2037
 8473TIP3    H146834   1.225   2.591  14.852 -0.9856  1.1836 -0.6903
 8473TIP3    H246835   1.091   2.644  14.897 -0.5291 -0.4047  2.8666
 8474TIP3   OH246836   3.296   6.234   2.472 -0.2731  0.0072  0.1445
 8474TIP3    H146837   3.209   6.274   2.477 -0.2837  0.0634 -0.3812
 8474TIP3    H246838   3.319   6.214   2.562 -0.0996  1.5559  0.4762
 8475TIP3   OH246839   6.526   2.939  13.462 -0.2834  0.3712 -0.0344
 8475TIP3    H146840   6.576   2.875  13.512 -0.8871 -0.4343 -0.4482
 8475TIP3    H246841   6.440   2.899  13.449 -0.6615  1.2460 -0.3279
 8476TIP3   OH246842   2.455   0.070  12.156 -0.1423 -0.0950  0.0139
 8476TIP3    H146843   2.412  -0.010  12.189  0.7993 -0.1432  1.1801
 8476TIP3    H246844   2.469   0.052  12.063  1.0287 -1.7728  0.4606
 8477TIP3   OH246845   1.532   5.114   4.118  0.3826 -0.0255  0.3897
 8477TIP3    H146846   1.514   5.184   4.181  0.4463  0.9305 -0.6295
 8477TIP3    H246847   1.567   5.043   4.171  0.7513  0.8763  1.3972
 8478TIP3   OH246848   0.949   3.867  13.059  0.7051  0.0491  0.5858
 8478TIP3    H146849   0.869   3.902  13.097  1.2648  1.7001  0.3099
 8478TIP3    H246850   0.975   3.932  12.994  1.0788 -1.5382 -0.9209
 8479TIP3   OH246851   1.111   3.163  10.552  0.3878  0.0905 -0.5812
 8479TIP3    H146852   1.184   3.124  10.600  1.6178  0.5918 -1.9355
 8479TIP3    H246853   1.122   3.257  10.564  0.0599  0.1757 -0.9126
 8480TIP3   OH246854   6.200   5.175  15.340 -0.2909 -0.5189 -0.3623
 8480TIP3    H146855   6.126   5.192  15.398 -0.3690 -2.3124  0.1036
 8480TIP3    H246856   6.165   5.117  15.273  0.2389  0.1387 -1.2334
 8481TIP3   OH246857   3.560   2.448  10.615  0.4055  0.7977  0.1317
 8481TIP3    H146858   3.595   2.437  10.704  1.1041 -2.8458 -0.4219
 8481TIP3    H246859   3.491   2.514  10.625 -0.7489 -0.6613  3.8065
 8482TIP3   OH246860   0.822   2.746  13.095  0.1896  0.0541 -0.0592
 8482TIP3    H146861   0.912   2.777  13.084  0.0280  0.4781 -0.2209
 8482TIP3    H246862   0.769   2.826  13.094 -0.4980 -0.3410 -3.0386
 8483TIP3   OH246863   3.372   2.178  10.663 -0.8228 -0.2104 -0.4730
 8483TIP3    H146864   3.462   2.144  10.658 -1.4186 -2.1122  0.5966
 8483TIP3    H246865   3.369   2.247  10.597  1.2235 -0.5697 -1.0255
 8484TIP3   OH246866   1.859   0.825   0.832 -0.4492 -0.5703 -0.9762
 8484TIP3    H146867   1.909   0.758   0.785 -2.4965 -2.7216 -0.2746
 8484TIP3    H246868   1.805   0.866   0.764 -0.3976 -0.7532 -1.1289
 8485TIP3   OH246869   5.017   4.014  15.265 -0.3657 -0.5727  0.1360
 8485TIP3    H146870   5.084   3.988  15.328  0.3603  0.2355 -0.2878
 8485TIP3    H246871   4.951   4.060  15.318  0.0695 -0.2012  0.3564
 8486TIP3   OH246872   0.391   4.153   3.722  0.0972  0.0785  0.7155
 8486TIP3    H146873   0.323   4.132   3.657 -0.5418  1.4252  0.9191
 8486TIP3    H246874   0.467   4.179   3.669 -0.7885  2.3288  0.4388
 8487TIP3   OH246875   5.001   6.591  14.955  0.0360 -0.3189  0.5136
 8487TIP3    H146876   5.028   6.632  14.872 -0.0058 -0.8869  0.2189
 8487TIP3    H246877   4.908   6.613  14.962  0.1002 -0.0446  0.5464
 8488TIP3   OH246878   0.112   4.305   4.188  0.1050  0.4263 -0.7774
 8488TIP3    H146879   0.206   4.307   4.169  0.4502  1.3431  0.8302
 8488TIP3    H246880   0.087   4.397   4.198 -0.8531  0.1679 -0.6554
 8489TIP3   OH246881   3.198   1.249  14.965  0.4343  0.6115  0.0431
 8489TIP3    H146882   3.144   1.175  14.938 -0.7908  1.3042  0.5198
 8489TIP3    H246883   3.200   1.245  15.060  0.8735  0.8401  0.0468
 8490TIP3   OH246884   1.694   0.861   2.769 -0.4160  0.0435 -0.1988
 8490TIP3    H146885   1.607   0.857   2.808 -1.1446 -0.7040 -1.8035
 8490TIP3    H246886   1.708   0.954   2.751 -0.4769  0.2771  0.8909
 8491TIP3   OH246887   2.182   1.995   0.420  0.7497  0.2656  0.2767
 8491TIP3    H146888   2.120   2.007   0.348  1.0820 -0.2510 -0.1119
 8491TIP3    H246889   2.260   2.043   0.392  1.5751 -1.5042 -0.6300
 8492TIP3   OH246890   3.534   0.360  15.231 -0.4542  0.2385  0.2028
 8492TIP3    H146891   3.465   0.297  15.251  0.4718 -0.1634  2.4570
 8492TIP3    H246892   3.615   0.317  15.259  0.4080  1.7028  0.0622
 8493TIP3   OH246893   6.561   6.721   3.340 -0.6241  0.2716  0.1815
 8493TIP3    H146894   6.614   6.690   3.267 -0.0333  1.9657 -0.1675
 8493TIP3    H246895   6.471   6.710   3.311 -0.4857 -1.7015  0.3742
 8494TIP3   OH246896   4.336   4.283  15.345 -0.0974 -0.2676 -0.0485
 8494TIP3    H146897   4.299   4.372  15.349 -0.8794 -0.4706 -1.9026
 8494TIP3    H246898   4.428   4.297  15.322 -0.6276  0.0489 -2.1648
 8495TIP3   OH246899   0.503   0.861   1.252  0.2755  0.1412 -0.2175
 8495TIP3    H146900   0.518   0.942   1.300  1.7488 -0.5668  0.5792
 8495TIP3    H246901   0.566   0.864   1.179  1.1348 -0.7639  0.4630
 8496TIP3   OH246902   1.315   2.018  12.553 -0.2374 -0.1006 -0.3267
 8496TIP3    H146903   1.234   2.036  12.506 -1.1292  1.5624  1.6672
 8496TIP3    H246904   1.322   2.089  12.618  1.1770 -1.8978  1.6449
 8497TIP3   OH246905   2.450   2.510   3.347 -0.2009  0.6117 -0.2736
 8497TIP3    H146906   2.502   2.456   3.407 -0.4731 -0.5197 -1.0192
 8497TIP3    H246907   2.386   2.449   3.311 -0.6900  1.5128 -0.9492
 8498TIP3   OH246908   1.391   4.406  15.509 -0.1951  0.0065 -0.3488
 8498TIP3    H146909   1.477   4.431  15.542 -1.7019  2.1380  2.4088
 8498TIP3    H246910   1.369   4.327  15.558  0.0668 -0.3954 -0.8709
 8499TIP3   OH246911   5.842   3.109   0.678  0.2105 -0.4379 -0.0415
 8499TIP3    H146912   5.885   3.058   0.610  0.8321 -0.5711  0.4445
 8499TIP3    H246913   5.901   3.183   0.694 -1.3059  1.2657 -1.7076
 8500TIP3   OH246914   0.800   6.273   4.745 -0.1271 -0.0322 -0.0622
 8500TIP3    H146915   0.821   6.284   4.652 -1.1462 -2.3006 -0.6283
 8500TIP3    H246916   0.863   6.208   4.777 -0.8521 -0.5485  0.3639
 8501TIP3   OH246917   6.587   6.205  13.932  0.0305 -0.3177  0.3331
 8501TIP3    H146918   6.493   6.219  13.938  0.2298  0.8729  1.2131
 8501TIP3    H246919   6.602   6.120  13.973 -0.3667  0.9100  3.3275
 8502TIP3   OH246920   1.678   0.263  14.126 -0.1829 -0.0471 -0.2475
 8502TIP3    H146921   1.605   0.212  14.161 -0.1427  1.6524  2.7198
 8502TIP3    H246922   1.752   0.203  14.125 -0.4203 -0.4446  1.9218
 8503TIP3   OH246923   5.889   6.387   2.955  0.0323  0.2788  0.3012
 8503TIP3    H146924   5.950   6.314   2.961  0.0399  0.1611 -0.9373
 8503TIP3    H246925   5.809   6.356   2.999  0.6291  0.2004  1.3602
 8504TIP3   OH246926   5.238   3.188   3.702 -0.4309  0.2828  0.1932
 8504TIP3    H146927   5.240   3.205   3.796  1.4818 -0.4703  0.3423
 8504TIP3    H246928   5.159   3.136   3.689 -1.1171  1.0332  1.2576
 8505TIP3   OH246929   5.455   4.837  13.901 -0.0376  0.1757 -0.3600
 8505TIP3    H146930   5.518   4.788  13.954 -2.2835 -1.0690  1.3474
 8505TIP3    H246931   5.509   4.891  13.844  2.5771 -2.1100 -0.2764
 8506TIP3   OH246932   2.160   6.494   6.466 -0.3241  0.2243  0.0721
 8506TIP3    H146933   2.130   6.585   6.467 -0.0744  0.3107  0.9496
 8506TIP3    H246934   2.097   6.447   6.521 -0.5038 -0.1579 -0.4507
 8507TIP3   OH246935   6.698   5.779   4.507 -0.1822 -0.5436  0.1074
 8507TIP3    H146936   6.653   5.840   4.566 -0.9445  0.9099 -1.8368
 8507TIP3    H246937   6.637   5.707   4.495 -1.0096  0.2540 -0.6280
 8508TIP3   OH246938   0.435   3.632  15.080  0.3016  0.1056 -0.0894
 8508TIP3    H146939   0.479   3.548  15.091 -1.6476 -0.9109  0.4856
 8508TIP3    H246940   0.445   3.653  14.987 -1.5532 -2.2149 -0.9117
 8509TIP3   OH246941   0.229   1.949   5.555  0.3507  0.3877 -0.3484
 8509TIP3    H146942   0.225   1.948   5.459  1.3074  0.0894 -0.3982
 8509TIP3    H246943   0.175   1.875   5.582 -0.6896  1.0421 -0.6154
 8510TIP3   OH246944   3.928   2.196   5.165 -0.0997 -0.3631 -0.2677
 8510TIP3    H146945   3.996   2.129   5.165 -1.0619 -1.3601 -0.5886
 8510TIP3    H246946   3.905   2.208   5.257  0.8204  0.3201 -0.1146
 8511TIP3   OH246947   3.975   6.510   5.301 -0.4470 -0.3314 -0.1551
 8511TIP3    H146948   3.898   6.538   5.252  0.2738  1.5544 -0.3080
 8511TIP3    H246949   4.049   6.524   5.242  0.2125 -0.2431  0.6549
 8512TIP3   OH246950   0.475   3.609   5.538 -0.0366 -0.4843 -0.8823
 8512TIP3    H146951   0.570   3.601   5.530 -0.2295 -2.5491 -1.6959
 8512TIP3    H246952   0.443   3.519   5.534 -2.1146  0.2370 -1.8204
 8513TIP3   OH246953   4.088   6.274  11.312 -0.0777  0.0285 -0.0561
 8513TIP3    H146954   4.137   6.356  11.323 -1.4423  0.9357 -0.3657
 8513TIP3    H246955   4.126   6.234  11.235 -0.8277  1.5308 -1.2775
 8514TIP3   OH246956   1.591   4.349   1.890  0.1373  0.1336 -0.1109
 8514TIP3    H146957   1.572   4.316   1.978  0.3716  1.2772  0.3781
 8514TIP3    H246958   1.566   4.276   1.832 -0.7670 -0.3467  0.8375
 8515TIP3   OH246959   2.932   2.252  15.850  0.0775 -0.2958 -0.4218
 8515TIP3    H146960   2.925   2.337  15.893  2.3024  0.2804 -1.0362
 8515TIP3    H246961   2.969   2.194  15.917  1.3014  0.0009 -0.8092
 8516TIP3   OH246962   0.521   0.102  11.565 -0.0809  0.1417 -0.0305
 8516TIP3    H146963   0.613   0.124  11.547 -0.3791  0.3429 -1.4014
 8516TIP3    H246964   0.477   0.187  11.566 -0.6614 -0.0905 -1.9322
 8517TIP3   OH246965   4.549   0.947   3.393  0.3068  0.1236  0.1229
 8517TIP3    H146966   4.643   0.963   3.386  0.5030 -0.5546  1.0306
 8517TIP3    H246967   4.514   1.026   3.434  0.3569  0.6970 -0.9149
 8518TIP3   OH246968   0.328   4.028  15.118 -0.5330  0.1013 -0.4036
 8518TIP3    H146969   0.288   3.946  15.088 -1.2494  0.8211 -1.4877
 8518TIP3    H246970   0.310   4.030  15.212  0.6269 -1.5911 -0.0942
 8519TIP3   OH246971   5.033   0.996   0.171 -0.2155 -0.3362 -0.1607
 8519TIP3    H146972   5.011   1.019   0.261 -1.5638  0.3162 -0.6333
 8519TIP3    H246973   4.970   0.928   0.148 -0.3628  0.0266 -0.8488
 8520TIP3   OH246974   3.768   6.428  13.436 -0.3684  0.3297  0.7280
 8520TIP3    H146975   3.770   6.349  13.382  0.5017  0.6939  0.2130
 8520TIP3    H246976   3.696   6.480  13.400  0.5099  0.7933 -0.4411
 8521TIP3   OH246977   2.325   6.737  16.231  0.5830  0.0326 -0.1336
 8521TIP3    H146978   2.240   6.781  16.232 -0.4311 -1.8196  0.1484
 8521TIP3    H246979   2.335   6.704  16.320  1.7247  0.4252 -0.1071
 8522TIP3   OH246980   3.683   6.376   3.901 -0.5481  0.2536  0.0113
 8522TIP3    H146981   3.590   6.374   3.876 -1.0745  1.5560  1.6739
 8522TIP3    H246982   3.682   6.381   3.997  1.3026 -1.7418  0.1998
 8523TIP3   OH246983   2.295   5.915   5.537  0.5615 -0.2458 -0.1230
 8523TIP3    H146984   2.356   5.916   5.611  1.5292 -1.7342 -0.8339
 8523TIP3    H246985   2.209   5.901   5.577  0.7637  1.1704  0.8490
 8524TIP3   OH246986   4.800   3.295  11.970  0.4198 -0.5366 -0.3455
 8524TIP3    H146987   4.757   3.222  11.926  1.3663 -1.2878 -0.0760
 8524TIP3    H246988   4.892   3.267  11.977  0.7430  0.5689  0.0015
 8525TIP3   OH246989   0.096   4.620  11.430  0.7058 -0.8985 -0.7603
 8525TIP3    H146990   0.081   4.528  11.411 -2.1038 -0.5959 -0.4817
 8525TIP3    H246991   0.059   4.633  11.517  2.5987  0.1803 -0.0528
 8526TIP3   OH246992   4.192   5.576  14.977 -0.3186  0.1026  0.0401
 8526TIP3    H146993   4.209   5.594  15.070  0.0884 -0.0633  0.0020
 8526TIP3    H246994   4.102   5.605  14.963  0.0018  1.2382  0.2003
 8527TIP3   OH246995   6.131   2.533  14.739  0.2311  0.1778 -0.0020
 8527TIP3    H146996   6.130   2.603  14.675 -0.9980  0.4173  0.2586
 8527TIP3    H246997   6.059   2.553  14.799 -1.2981 -2.1944 -0.8970
 8528TIP3   OH246998   6.330   3.575   2.457 -0.2859 -0.6757 -0.5826
 8528TIP3    H146999   6.238   3.555   2.440 -1.0572 -0.1871  2.4705
 8528TIP3    H247000   6.334   3.670   2.466 -0.0633 -0.8347  1.7205
 8529TIP3   OH247001   1.612   6.573   2.378  0.0723  0.2545  0.1762
 8529TIP3    H147002   1.552   6.554   2.306  2.5693 -0.3218 -1.9260
 8529TIP3    H247003   1.608   6.668   2.389  0.1237  0.4390 -1.2287
 8530TIP3   OH247004   4.017   0.872  13.074  0.1978  0.0499 -0.0577
 8530TIP3    H147005   3.989   0.823  12.997 -1.7166  0.4231  0.3346
 8530TIP3    H247006   4.054   0.953  13.039 -1.9228  0.8497 -0.6453
 8531TIP3   OH247007   3.897   3.764   1.872  0.0021  0.3427  0.4162
 8531TIP3    H147008   3.873   3.699   1.937  1.5589 -0.7446 -0.0389
 8531TIP3    H247009   3.833   3.752   1.801  0.0823 -0.4847  0.4752
 8532TIP3   OH247010   0.026   6.107  12.015 -0.0659  0.4269  0.1104
 8532TIP3    H147011   0.076   6.094  11.934 -1.9230 -0.3359 -0.9727
 8532TIP3    H247012   0.022   6.202  12.025  0.4247  0.5283 -0.5350
 8533TIP3   OH247013   2.056   1.838  12.195 -0.7056  0.2684  0.3365
 8533TIP3    H147014   2.028   1.930  12.197 -1.9018 -0.0191 -1.1077
 8533TIP3    H247015   2.116   1.833  12.120 -0.8179 -0.1547  0.2725
 8534TIP3   OH247016   4.174   6.238  16.856  0.7371 -0.2051  0.0805
 8534TIP3    H147017   4.149   6.305  16.792  0.7204 -0.2716  0.0163
 8534TIP3    H247018   4.137   6.157  16.820  0.7361 -0.2437  0.1705
 8535TIP3   OH247019   0.080   5.922  13.245  0.3229 -0.3397 -0.7903
 8535TIP3    H147020   0.009   5.892  13.301  0.5302 -0.8477 -0.7970
 8535TIP3    H247021   0.052   5.900  13.156  0.1654  0.1217 -0.8603
 8536TIP3   OH247022   4.052   0.474  13.927 -0.1919 -0.0508  0.0286
 8536TIP3    H147023   4.111   0.400  13.914 -0.3116 -0.7649  2.7924
 8536TIP3    H247024   4.105   0.538  13.975 -0.6165  0.9302 -0.7654
 8537TIP3   OH247025   2.809   2.133   4.879 -0.0387 -0.0185  0.3749
 8537TIP3    H147026   2.732   2.174   4.840  0.7604  0.7065 -0.4935
 8537TIP3    H247027   2.805   2.042   4.851  0.4224  0.4429 -1.2964
 8538TIP3   OH247028   4.256   3.249  16.331  0.6055  0.6769 -0.3558
 8538TIP3    H147029   4.351   3.242  16.333  0.5184 -0.8202  1.6675
 8538TIP3    H247030   4.239   3.343  16.342  1.8238  0.9592 -0.7447
 8539TIP3   OH247031   5.191   4.749  12.405 -0.4369  0.3821 -0.2995
 8539TIP3    H147032   5.180   4.810  12.332 -1.5571  0.0467 -0.4372
 8539TIP3    H247033   5.278   4.710  12.391  0.0375  1.4942 -0.5313
 8540TIP3   OH247034   2.369   3.404  13.321 -0.5577  0.3012 -0.1402
 8540TIP3    H147035   2.465   3.404  13.319 -0.5115  1.7994  0.3730
 8540TIP3    H247036   2.347   3.357  13.402 -0.1485  1.7444  0.8640
 8541TIP3   OH247037   4.671   0.671  12.440  0.3884 -0.0267 -0.2238
 8541TIP3    H147038   4.675   0.595  12.498 -1.6270 -0.3777 -0.4401
 8541TIP3    H247039   4.578   0.676  12.415 -0.2335  4.0828  1.9223
 8542TIP3   OH247040   6.207   4.659  11.233  0.1928  0.1696  0.1447
 8542TIP3    H147041   6.238   4.723  11.169  1.6952 -1.5181 -0.9154
 8542TIP3    H247042   6.111   4.664  11.227  0.2961  1.4007 -0.8531
 8543TIP3   OH247043   1.179   1.640   0.045 -0.1884  0.5150 -0.4491
 8543TIP3    H147044   1.217   1.696   0.112 -0.3313 -0.8919  0.8455
 8543TIP3    H247045   1.140   1.702  -0.018  0.1084  1.8600  0.6322
 8544TIP3   OH247046   5.627   1.713  16.852  0.3764 -0.1566  0.2253
 8544TIP3    H147047   5.547   1.662  16.864  0.8979 -1.3995 -1.2132
 8544TIP3    H247048   5.599   1.791  16.805 -0.1826  0.0633  0.9117
 8545TIP3   OH247049   4.638   0.846   2.677  0.3390 -0.0021  0.1223
 8545TIP3    H147050   4.662   0.886   2.760 -0.2898  1.5235 -0.3969
 8545TIP3    H247051   4.718   0.849   2.624  0.3773  0.2661  0.1973
 8546TIP3   OH247052   4.390   6.098  16.696 -0.3298 -0.5191  0.1998
 8546TIP3    H147053   4.346   6.059  16.621 -0.7528 -0.2418  0.3050
 8546TIP3    H247054   4.355   6.050  16.772 -1.1028  0.2823  0.3592
 8547TIP3   OH247055   1.962   1.157  15.869 -0.3062 -0.6083 -0.4385
 8547TIP3    H147056   2.038   1.211  15.894  0.2393 -1.4906 -0.1553
 8547TIP3    H247057   1.973   1.145  15.774  0.5072 -1.6092 -0.2361
 8548TIP3   OH247058   1.544   6.323   0.621  0.2025  0.0377  0.3009
 8548TIP3    H147059   1.470   6.317   0.681  0.8947  0.9383  1.2783
 8548TIP3    H247060   1.600   6.392   0.658 -0.0539  1.7015 -2.1408
 8549TIP3   OH247061   1.597   1.640   0.495  0.0810 -0.0056 -0.3053
 8549TIP3    H147062   1.582   1.595   0.578  0.3445 -0.5305 -0.5398
 8549TIP3    H247063   1.565   1.729   0.510 -0.2265 -0.2035  0.2365
 8550TIP3   OH247064   1.622   0.341  11.290 -0.3998 -0.1298  0.2690
 8550TIP3    H147065   1.548   0.399  11.311 -0.9739 -0.8445  0.2554
 8550TIP3    H247066   1.669   0.387  11.221 -0.4150  0.6750  0.7811
 8551TIP3   OH247067   6.692   2.991   0.998  0.6590 -0.3987 -0.4272
 8551TIP3    H147068   6.694   2.989   0.903  1.4466  2.9308 -0.6231
 8551TIP3    H247069   6.621   3.051   1.019  0.9188 -0.5760  1.0544
 8552TIP3   OH247070   3.616   3.005   1.641  0.2662 -0.2775  0.1195
 8552TIP3    H147071   3.617   2.971   1.730  1.0569 -1.5122 -0.3334
 8552TIP3    H247072   3.529   3.043   1.631 -0.5089 -1.7570  0.8396
 8553TIP3   OH247073   2.101   0.032   4.300 -0.8499 -0.8445 -0.2393
 8553TIP3    H147074   2.041   0.087   4.250 -0.0336  2.0411  1.7411
 8553TIP3    H247075   2.044  -0.017   4.360 -1.4114  0.4792  0.3438
 8554TIP3   OH247076   4.566   1.605   5.992  0.3400  0.1559 -0.2034
 8554TIP3    H147077   4.578   1.673   6.058 -0.0200 -1.4535  1.6139
 8554TIP3    H247078   4.653   1.567   5.981  0.1054 -0.6629  0.6269
 8555TIP3   OH247079   3.915   0.474   6.098  0.5830  0.1446  0.0315
 8555TIP3    H147080   3.821   0.488   6.100  0.8787  3.2551  3.7513
 8555TIP3    H247081   3.932   0.413   6.170  1.5732  3.2082  2.6211
 8556TIP3   OH247082   2.201   2.098   2.591  0.6584  0.1685  0.0198
 8556TIP3    H147083   2.151   2.076   2.513 -1.3189 -0.8473  1.4919
 8556TIP3    H247084   2.184   2.027   2.652  1.2245  1.4702  1.8064
 8557TIP3   OH247085   4.900   4.740   1.189  0.0753  0.0872 -0.4046
 8557TIP3    H147086   4.950   4.664   1.162  0.7529 -0.0277  1.0388
 8557TIP3    H247087   4.848   4.764   1.113  3.6076  1.3016 -2.6777
 8558TIP3   OH247088   2.003   2.659   4.551 -0.2477  0.1027  0.9724
 8558TIP3    H147089   2.000   2.754   4.567  0.6516  0.5259 -1.0299
 8558TIP3    H247090   1.938   2.645   4.482  1.2210 -0.3127 -0.3846
 8559TIP3   OH247091   3.451   4.964  12.665 -0.0773  0.6075  0.1545
 8559TIP3    H147092   3.421   4.873  12.676 -0.4546  0.6963 -0.0974
 8559TIP3    H247093   3.541   4.964  12.695  0.6239 -0.3164 -1.7545
 8560TIP3   OH247094   2.672   6.443   1.456  0.0281 -0.3041  0.5506
 8560TIP3    H147095   2.670   6.459   1.551 -1.7019 -1.0786  0.6891
 8560TIP3    H247096   2.754   6.397   1.441  1.3464  1.6367  1.3167
 8561TIP3   OH247097   3.927   6.581  17.243  0.3528  0.4441 -0.2921
 8561TIP3    H147098   3.995   6.516  17.258  0.8986  0.9924 -0.3228
 8561TIP3    H247099   3.945   6.650  17.307 -1.4726 -0.3686  1.1763
 8562TIP3   OH247100   2.150   1.224  14.146  0.2964  0.3709 -0.0512
 8562TIP3    H147101   2.238   1.244  14.177 -0.1014  1.1054  0.6455
 8562TIP3    H247102   2.093   1.283  14.196 -0.7345 -1.0727  0.5517
 8563TIP3   OH247103   6.498   5.963  12.972 -0.1867  0.3803 -0.4965
 8563TIP3    H147104   6.549   6.012  12.907  0.7751 -0.0969 -0.1203
 8563TIP3    H247105   6.449   5.899  12.920 -0.7332  1.1162 -0.9004
 8564TIP3   OH247106   6.235   0.784  17.027 -0.4152  0.6378 -0.3776
 8564TIP3    H147107   6.192   0.868  17.011 -0.8742  0.4461 -0.1840
 8564TIP3    H247108   6.195   0.752  17.108 -0.5609  0.0309 -0.6843
 8565TIP3   OH247109   5.444   6.408   1.452  0.1728 -0.3597  0.3406
 8565TIP3    H147110   5.454   6.384   1.360 -0.7725 -1.4280  0.5003
 8565TIP3    H247111   5.463   6.327   1.500  1.0546  0.2875  1.1124
 8566TIP3   OH247112   2.175   1.934  11.702  0.2417 -0.0619  0.1924
 8566TIP3    H147113   2.219   2.003  11.753 -2.8869  1.8136  0.5969
 8566TIP3    H247114   2.217   1.938  11.616  2.5298 -0.1638  1.2240
 8567TIP3   OH247115   0.430   1.361   1.946 -0.2789  0.9255 -0.3287
 8567TIP3    H147116   0.391   1.448   1.937  0.8203  1.4779  0.0390
 8567TIP3    H247117   0.523   1.378   1.957 -0.1451 -0.2618  0.5559
 8568TIP3   OH247118   5.364   0.122   4.328 -0.3316  0.1607  0.0725
 8568TIP3    H147119   5.438   0.151   4.380  1.1318  0.3650 -2.0019
 8568TIP3    H247120   5.311   0.069   4.388  0.5727  1.3991  2.0451
 8569TIP3   OH247121   3.863   2.639  11.018 -0.1608  0.3658 -1.1233
 8569TIP3    H147122   3.918   2.705  11.060 -0.8544 -0.0123  0.4569
 8569TIP3    H247123   3.776   2.653  11.056 -0.5849 -0.6705 -1.6804
 8570TIP3   OH247124   2.516   3.804   2.394  0.0232  0.0060  0.4850
 8570TIP3    H147125   2.469   3.880   2.426 -1.0658 -0.6041  0.3764
 8570TIP3    H247126   2.499   3.803   2.299 -2.1064 -1.7415  0.7960
 8571TIP3   OH247127   0.235   5.110  10.939 -0.3290 -0.0540 -0.6011
 8571TIP3    H147128   0.231   5.126  10.845 -0.9472 -0.8405 -0.7230
 8571TIP3    H247129   0.206   5.191  10.979 -3.2427 -0.6993 -1.1699
 8572TIP3   OH247130   0.155   0.582  12.250  0.5426 -0.3648 -0.3808
 8572TIP3    H147131   0.073   0.600  12.206 -0.8782 -0.1804  2.1295
 8572TIP3    H247132   0.188   0.669  12.276  0.8799 -0.5130 -0.3065
 8573TIP3   OH247133   4.553   3.990  13.554  0.8278 -0.2600  0.1412
 8573TIP3    H147134   4.586   3.900  13.554  0.0227 -0.5645 -0.7551
 8573TIP3    H247135   4.632   4.044  13.549  1.2883 -0.9375 -0.0214
 8574TIP3   OH247136   2.487   6.124   1.721 -0.2654 -0.3741  0.3986
 8574TIP3    H147137   2.455   6.204   1.761 -1.8122 -1.1555  0.7901
 8574TIP3    H247138   2.507   6.148   1.630  1.4613  0.9616  1.0758
 8575TIP3   OH247139   5.317   4.694  14.979 -0.3356 -0.5159 -0.0203
 8575TIP3    H147140   5.278   4.608  14.961 -1.1749 -0.0334 -0.5613
 8575TIP3    H247141   5.409   4.684  14.952 -0.8631 -0.6861 -1.9142
 8576TIP3   OH247142   3.265   3.690  11.670 -0.7444 -0.0625  0.0761
 8576TIP3    H147143   3.259   3.646  11.755  0.1987  1.1770  0.8297
 8576TIP3    H247144   3.175   3.715  11.650 -1.0885 -1.0766  0.3156
 8577TIP3   OH247145   5.259   1.111   2.586  0.1590  0.1573 -0.5234
 8577TIP3    H147146   5.327   1.048   2.562  0.7678  1.2255 -1.7408
 8577TIP3    H247147   5.191   1.058   2.629  0.9687 -1.1958 -0.8463
 8578TIP3   OH247148   3.775   3.695   0.267 -0.4704  0.0520 -0.2834
 8578TIP3    H147149   3.860   3.715   0.308 -0.8870 -0.7816  1.0622
 8578TIP3    H247150   3.796   3.637   0.195  0.1633  0.3662 -0.3596
 8579TIP3   OH247151   6.417   1.295   0.485 -0.1905 -0.1668 -1.0674
 8579TIP3    H147152   6.393   1.301   0.578 -0.7638  0.4854 -1.2458
 8579TIP3    H247153   6.475   1.370   0.471 -1.0406  0.4294 -1.4931
 8580TIP3   OH247154   6.357   4.939   5.339  0.2580  0.4636  0.3083
 8580TIP3    H147155   6.404   4.892   5.270  0.1047  2.8758 -1.5561
 8580TIP3    H247156   6.422   4.998   5.376 -0.3162  1.0539  0.3888
 8581TIP3   OH247157   4.982   4.633   3.005 -0.0509  0.2363 -0.3309
 8581TIP3    H147158   5.056   4.580   3.035 -0.4080 -0.5895 -0.8555
 8581TIP3    H247159   5.018   4.689   2.936  0.0919 -0.1570 -0.5797
 8582TIP3   OH247160   0.993   3.689   4.386 -0.0419  0.0946 -0.3060
 8582TIP3    H147161   1.088   3.695   4.372 -0.1165  0.6009 -0.6603
 8582TIP3    H247162   0.974   3.596   4.385  0.6897 -0.1172  1.4913
 8583TIP3   OH247163   2.636   1.766  15.874 -0.2512 -0.4079  0.5514
 8583TIP3    H147164   2.587   1.759  15.956 -1.1015  0.4417  0.1293
 8583TIP3    H247165   2.581   1.820  15.817  0.8640  0.0035 -0.1752
 8584TIP3   OH247166   1.873   0.241  11.157 -0.2276 -0.4606 -0.4002
 8584TIP3    H147167   1.862   0.269  11.067 -3.2115 -1.6772 -0.5392
 8584TIP3    H247168   1.847   0.149  11.157  0.3199 -0.6682  1.5768
 8585TIP3   OH247169   0.334   0.998  15.290 -0.2287  0.0870  0.8689
 8585TIP3    H147170   0.420   1.041  15.296  0.2157 -0.9183  2.1070
 8585TIP3    H247171   0.341   0.923  15.348 -1.2219 -1.2936 -0.7108
 8586TIP3   OH247172   3.378   2.511  13.061  0.2931 -0.4570 -0.3363
 8586TIP3    H147173   3.293   2.478  13.090 -1.0040  3.3103  0.6142
 8586TIP3    H247174   3.377   2.499  12.966 -1.9204  0.6981 -0.5032
 8587TIP3   OH247175   1.656   3.280  13.838  0.6304  0.0932  0.4185
 8587TIP3    H147176   1.619   3.244  13.919 -1.0640 -1.1162 -0.8515
 8587TIP3    H247177   1.665   3.204  13.780  1.4378  1.0153 -0.6962
 8588TIP3   OH247178   0.814   5.859  13.216  0.6054  0.2285 -0.5747
 8588TIP3    H147179   0.848   5.791  13.159 -2.1585 -1.6575 -0.1711
 8588TIP3    H247180   0.838   5.830  13.304 -0.8133 -0.4408 -0.3824
 8589TIP3   OH247181   2.329   0.980  15.389 -0.5676  0.1254 -0.5972
 8589TIP3    H147182   2.375   0.897  15.403  0.5195  0.6398 -1.0373
 8589TIP3    H247183   2.236   0.955  15.387 -0.2095 -1.2780 -1.9365
 8590TIP3   OH247184   5.608   1.116  14.906 -0.6317 -0.3505  0.7323
 8590TIP3    H147185   5.561   1.085  14.829 -0.3351  0.8682  0.0388
 8590TIP3    H247186   5.671   1.179  14.872 -0.7375  0.4845  2.0125
 8591TIP3   OH247187   4.080   1.545  13.886 -0.3567 -0.0830 -0.3577
 8591TIP3    H147188   4.056   1.454  13.873 -0.4136 -0.2342  0.7007
 8591TIP3    H247189   4.005   1.595  13.855 -1.1116 -0.4683  0.7977
 8592TIP3   OH247190   5.396   5.174   6.342 -0.0225  0.2295  0.5383
 8592TIP3    H147191   5.339   5.250   6.327  0.3291  0.3793 -0.0595
 8592TIP3    H247192   5.475   5.212   6.381  0.0626  0.1407  0.4505
 8593TIP3   OH247193   1.556   3.333  15.203  0.1041  0.2139 -0.0289
 8593TIP3    H147194   1.566   3.261  15.141 -0.6686 -0.1655  0.2709
 8593TIP3    H247195   1.622   3.316  15.270 -0.2186 -0.3560  0.1590
 8594TIP3   OH247196   1.673   2.310  16.753  0.3651 -0.3331  0.1107
 8594TIP3    H147197   1.735   2.303  16.681  1.4596  2.2736  0.7214
 8594TIP3    H247198   1.726   2.301  16.832 -0.1460  0.9631  0.6242
 8595TIP3   OH247199   6.722   6.303  13.219  0.0086 -0.4789 -0.8149
 8595TIP3    H147200   6.804   6.257  13.200  1.9856  2.1075  0.8511
 8595TIP3    H247201   6.656   6.233  13.220  2.3896 -2.9070 -0.8210
 8596TIP3   OH247202   6.081   5.143  12.445 -0.9003  0.1319 -0.0232
 8596TIP3    H147203   6.057   5.230  12.476  0.2615  0.2313  0.6420
 8596TIP3    H247204   6.009   5.087  12.473 -0.6099  0.4926  1.5531
 8597TIP3   OH247205   5.979   5.432  11.566  0.3546 -0.3274  0.4631
 8597TIP3    H147206   6.071   5.458  11.565  0.3528 -0.3243  0.3857
 8597TIP3    H247207   5.957   5.427  11.659  0.2363  0.3542  0.4780
 8598TIP3   OH247208   3.406   0.602   6.141 -0.1039  0.0422 -0.2772
 8598TIP3    H147209   3.440   0.586   6.229 -0.2524 -0.9350 -0.3931
 8598TIP3    H247210   3.337   0.668   6.153 -0.3333 -0.3190  0.3741
 8599TIP3   OH247211   3.898   1.724   4.089 -0.1617 -0.6715  0.5932
 8599TIP3    H147212   3.957   1.739   4.015 -2.6165  1.0288 -1.1697
 8599TIP3    H247213   3.844   1.650   4.061  1.0481 -2.2295  2.1990
 8600TIP3   OH247214   5.688   1.814   4.955  0.0823 -0.1771 -0.3559
 8600TIP3    H147215   5.779   1.795   4.933 -0.2745  1.8004 -4.4850
 8600TIP3    H247216   5.685   1.810   5.050  3.9174 -2.4930 -0.1441
 8601TIP3   OH247217   1.880   0.672   1.737  0.6989 -0.3408  0.4600
 8601TIP3    H147218   1.957   0.650   1.685 -0.5571 -2.5311 -0.5912
 8601TIP3    H247219   1.914   0.681   1.826  2.0745 -2.2135  0.1918
 8602TIP3   OH247220   4.210   2.551   4.836 -0.7356  0.3075  0.0541
 8602TIP3    H147221   4.210   2.496   4.915 -0.2798  0.6313  0.2803
 8602TIP3    H247222   4.203   2.488   4.764  0.9368 -0.1445  0.2459
 8603TIP3   OH247223   4.655   2.834  15.628 -0.1667  0.5069  0.1695
 8603TIP3    H147224   4.582   2.786  15.588  0.1504  1.0942 -1.1640
 8603TIP3    H247225   4.641   2.925  15.602  1.0137  0.6260 -0.0768
 8604TIP3   OH247226   2.151   1.452  11.972  0.1009 -0.4270  0.3582
 8604TIP3    H147227   2.224   1.404  12.012  0.9711 -1.8607 -2.7004
 8604TIP3    H247228   2.185   1.540  11.957 -0.3157  0.2260  2.7319
 8605TIP3   OH247229   1.610   1.180  13.955 -0.1086  0.2426 -0.5364
 8605TIP3    H147230   1.664   1.224  14.021  1.4683 -1.7877 -0.3615
 8605TIP3    H247231   1.649   1.206  13.871 -1.2466  1.7230 -0.6385
 8606TIP3   OH247232   3.990   2.058   5.438 -0.3943  0.2215 -0.1625
 8606TIP3    H147233   3.897   2.042   5.453  0.4701 -4.4372  2.1111
 8606TIP3    H247234   4.020   2.102   5.518 -0.4210  0.6119 -0.3655
 8607TIP3   OH247235   4.348   5.781   5.762  0.3495 -0.0645 -0.0502
 8607TIP3    H147236   4.304   5.746   5.684 -0.9692 -0.7356  0.9552
 8607TIP3    H247237   4.370   5.871   5.738  1.7818 -0.8349 -1.8846
 8608TIP3   OH247238   0.465   3.302   4.847  0.7048 -0.6228  0.2636
 8608TIP3    H147239   0.484   3.212   4.820  0.9207 -0.6822  0.6066
 8608TIP3    H247240   0.387   3.326   4.797  0.6405 -1.0039  0.1796
 8609TIP3   OH247241   3.823   0.558  11.612  0.2362 -0.2891  0.0068
 8609TIP3    H147242   3.755   0.624  11.600  0.9983  0.6274  0.5240
 8609TIP3    H247243   3.801   0.488  11.551 -1.5195 -0.3149  0.6328
 8610TIP3   OH247244   3.120   2.784   1.529  0.4963  0.4296 -0.5584
 8610TIP3    H147245   3.026   2.780   1.550  0.5426  1.5794 -0.0746
 8610TIP3    H247246   3.137   2.702   1.484 -0.2783 -0.7691  1.2232
 8611TIP3   OH247247   1.548   0.164   1.953  0.1862 -0.5349  0.0461
 8611TIP3    H147248   1.526   0.118   2.034  1.6604 -0.1213  0.7241
 8611TIP3    H247249   1.643   0.155   1.945  0.4068  1.5297 -0.3149
 8612TIP3   OH247250   6.602   2.049  17.021 -0.4127 -0.1939  0.2579
 8612TIP3    H147251   6.659   2.031  16.947  0.2520 -0.0287  0.7204
 8612TIP3    H247252   6.555   2.128  16.996  0.7862  0.6412  0.5437
 8613TIP3   OH247253   0.599   2.664   0.116 -0.2380 -0.5818 -0.5674
 8613TIP3    H147254   0.531   2.627   0.059  1.4512  0.6519 -3.6793
 8613TIP3    H247255   0.616   2.751   0.078  1.6251 -0.0159  1.3746
 8614TIP3   OH247256   2.518   6.074   4.870  0.3565 -0.0318 -0.3160
 8614TIP3    H147257   2.569   6.051   4.793 -0.7395 -1.4892 -0.6397
 8614TIP3    H247258   2.519   5.996   4.925 -0.1241  0.4790  0.4436
 8615TIP3   OH247259   1.272   0.332   0.895  0.0183  0.0759 -0.2241
 8615TIP3    H147260   1.188   0.371   0.919 -0.0494  1.0321 -1.8828
 8615TIP3    H247261   1.261   0.307   0.803  1.5366  0.2041 -0.4569
 8616TIP3   OH247262   3.279   6.341  16.385  0.5905 -0.4826  0.5778
 8616TIP3    H147263   3.205   6.284  16.364  0.5898 -0.1351 -0.4372
 8616TIP3    H247264   3.245   6.403  16.450 -0.5529  0.7676 -1.1304
 8617TIP3   OH247265   4.377   4.998  11.288 -0.1588  0.5541 -0.1293
 8617TIP3    H147266   4.299   4.954  11.321  0.2772 -0.2853 -0.1821
 8617TIP3    H247267   4.409   4.941  11.218  0.1316  1.2215 -0.5535
 8618TIP3   OH247268   6.329   5.394  13.857 -0.5698  0.3236 -0.3067
 8618TIP3    H147269   6.283   5.311  13.841  0.3280 -0.1135 -0.6768
 8618TIP3    H247270   6.296   5.424  13.941 -0.1232 -0.9613  0.3523
 8619TIP3   OH247271   4.084   2.192   0.335  0.4776 -0.4147 -0.0249
 8619TIP3    H147272   4.155   2.189   0.399  1.4139 -1.0277 -1.0465
 8619TIP3    H247273   4.064   2.101   0.317  1.6803 -0.3316 -2.1071
 8620TIP3   OH247274   3.004   3.517  11.618 -0.0429 -0.1734 -0.3540
 8620TIP3    H147275   2.968   3.477  11.539 -0.5942  0.0694 -0.2312
 8620TIP3    H247276   3.006   3.610  11.599 -0.5424 -0.0729  0.0564
 8621TIP3   OH247277   3.201   1.349  12.234  0.2244  0.9322 -0.0637
 8621TIP3    H147278   3.209   1.439  12.204 -1.0509  0.4054 -2.2086
 8621TIP3    H247279   3.127   1.314  12.185  0.8251 -1.3466  0.5395
 8622TIP3   OH247280   1.916   4.378  16.214 -0.3863 -0.5037  0.1980
 8622TIP3    H147281   1.932   4.288  16.241  0.5650 -0.2020  0.6976
 8622TIP3    H247282   1.972   4.430  16.272  0.4118  0.2894 -1.2248
 8623TIP3   OH247283   2.040   2.546  12.893 -0.1381 -0.2629 -0.4358
 8623TIP3    H147284   2.018   2.454  12.910  1.5275 -0.5838  0.1865
 8623TIP3    H247285   1.969   2.596  12.935 -0.6885 -1.2441 -0.1674
 8624TIP3   OH247286   5.439   1.314  16.892 -0.0097  0.0343  0.3194
 8624TIP3    H147287   5.487   1.274  16.819 -1.5504 -1.4033  0.0433
 8624TIP3    H247288   5.506   1.361  16.941  1.1594  0.6286 -1.7310
 8625TIP3   OH247289   5.400   3.441   1.540 -0.8856 -0.6122  0.1567
 8625TIP3    H147290   5.376   3.349   1.541 -1.7238 -0.4426 -1.1448
 8625TIP3    H247291   5.398   3.465   1.447  0.9941  0.2994  0.2909
 8626TIP3   OH247292   0.062   4.987   5.050 -0.0393  0.2659  0.5650
 8626TIP3    H147293   0.094   4.903   5.016  1.2232  1.0558 -0.2680
 8626TIP3    H247294  -0.033   4.976   5.054  0.1821 -1.5788  1.5377
 8627TIP3   OH247295   3.618   1.992   3.088 -0.3160 -0.3719 -0.5263
 8627TIP3    H147296   3.573   2.044   3.155 -0.1941 -1.1005  0.1454
 8627TIP3    H247297   3.711   2.007   3.104 -0.2880  0.7282 -1.5868
 8628TIP3   OH247298   3.529   1.517   0.825  0.2053  0.8636  0.1295
 8628TIP3    H147299   3.538   1.611   0.806 -0.1224  0.8300 -0.2142
 8628TIP3    H247300   3.575   1.505   0.908 -0.4550  1.4803  0.5955
 8629TIP3   OH247301   3.429   4.316   1.589  0.0165  0.6329  0.4611
 8629TIP3    H147302   3.457   4.256   1.658  1.5400  0.2293 -0.4528
 8629TIP3    H247303   3.441   4.403   1.626  0.9396  0.4245  0.6891
 8630TIP3   OH247304   5.511   4.826  15.639  0.1748  0.4316 -0.1181
 8630TIP3    H147305   5.557   4.742  15.628  0.1507  0.3807  0.1751
 8630TIP3    H247306   5.577   4.891  15.615  0.3534  0.3520  0.1571
 8631TIP3   OH247307   6.263   3.722   0.129  0.6296 -0.0094  0.1547
 8631TIP3    H147308   6.356   3.728   0.150 -0.0466  1.8862  3.1400
 8631TIP3    H247309   6.225   3.805   0.158 -2.1200 -0.9417 -0.3959
 8632TIP3   OH247310   4.534   3.240   2.940  0.1290  0.0764  0.7896
 8632TIP3    H147311   4.584   3.178   2.887 -0.2342  0.5720 -0.1461
 8632TIP3    H247312   4.540   3.205   3.029 -1.0886 -2.0209  0.1268
 8633TIP3   OH247313   5.616   4.352  12.397  0.1139 -0.3873 -0.2627
 8633TIP3    H147314   5.636   4.332  12.306 -0.9481 -0.0975 -0.5660
 8633TIP3    H247315   5.635   4.445  12.406 -1.6203  0.0427 -0.7233
 8634TIP3   OH247316   4.076   6.093  12.875  0.2223  0.0174 -0.8656
 8634TIP3    H147317   3.982   6.082  12.860 -0.0580  0.6628  0.2475
 8634TIP3    H247318   4.082   6.168  12.935  1.5633  1.1758 -2.3566
 8635TIP3   OH247319   6.617   1.480  16.429  0.1075  0.1209  0.1335
 8635TIP3    H147320   6.594   1.492  16.521 -0.1808 -0.4054  0.1349
 8635TIP3    H247321   6.708   1.509  16.423 -0.0327  0.6387  0.4755
 8636TIP3   OH247322   3.310   0.528   1.821  0.8385 -0.1249  0.0431
 8636TIP3    H147323   3.256   0.517   1.743 -0.0461 -0.8291  0.7380
 8636TIP3    H247324   3.398   0.504   1.792  1.1923  2.5493 -1.5342
 8637TIP3   OH247325   6.571   3.917  16.387  0.6373 -0.3544  0.5241
 8637TIP3    H147326   6.615   3.982  16.442  0.1484  0.5503 -0.1221
 8637TIP3    H247327   6.609   3.929  16.300  1.3190 -1.6909  0.6277
 8638TIP3   OH247328   5.681   0.114  16.064  0.0166  0.8085  0.3627
 8638TIP3    H147329   5.599   0.118  16.112 -2.2857 -0.2342 -3.1048
 8638TIP3    H247330   5.708   0.205  16.054 -1.5714  1.3052  0.3226
 8639TIP3   OH247331   0.669   1.304  14.908 -0.4294  0.5282 -0.3287
 8639TIP3    H147332   0.689   1.396  14.925 -1.3443  0.6817 -0.0616
 8639TIP3    H247333   0.746   1.271  14.862  0.9905  0.8086  1.7046
 8640TIP3   OH247334   0.612   1.208  11.931 -0.5015  0.6497  0.7650
 8640TIP3    H147335   0.521   1.190  11.955 -0.7421 -0.1298 -0.6555
 8640TIP3    H247336   0.607   1.256  11.848  0.3984 -0.4759  0.0286
 8641TIP3   OH247337   5.024   5.044   0.367 -0.1435 -0.5185 -0.5750
 8641TIP3    H147338   5.043   4.965   0.315  0.1218  0.1005 -1.4463
 8641TIP3    H247339   5.082   5.111   0.331  0.0171 -0.0550  0.5152
 8642TIP3   OH247340   4.873   6.476   5.251 -0.4529  0.6083  0.3205
 8642TIP3    H147341   4.840   6.395   5.213  1.5850  0.6756 -1.7999
 8642TIP3    H247342   4.902   6.451   5.339 -0.5771 -0.7818 -0.0133
 8643TIP3   OH247343   5.350   0.949   2.816 -0.0522  0.3666 -0.5923
 8643TIP3    H147344   5.411   0.936   2.743 -0.0415 -0.1581 -0.4956
 8643TIP3    H247345   5.406   0.975   2.890 -0.2056  2.3195 -1.1146
 8644TIP3   OH247346   1.620   2.246   5.177  0.2426  0.7668 -0.0995
 8644TIP3    H147347   1.662   2.275   5.096  0.7255  0.8409  0.1676
 8644TIP3    H247348   1.586   2.326   5.216 -2.2049  0.4551 -1.4144
 8645TIP3   OH247349   1.558   3.151   5.507 -0.3336  0.4847  0.3109
 8645TIP3    H147350   1.623   3.087   5.533 -0.0755  0.2501 -0.8277
 8645TIP3    H247351   1.474   3.110   5.527 -0.2450 -1.0641 -2.0668
 8646TIP3   OH247352   5.354   0.534  11.104 -0.3718 -0.1736 -0.3447
 8646TIP3    H147353   5.326   0.517  11.194 -0.2507 -0.4538 -0.3593
 8646TIP3    H247354   5.412   0.610  11.111  0.2640 -0.6700 -0.0738
 8647TIP3   OH247355   0.670   5.415  10.549 -0.0391  0.1066 -0.1802
 8647TIP3    H147356   0.642   5.394  10.638 -0.7752 -3.1940 -1.0577
 8647TIP3    H247357   0.765   5.405  10.551 -0.1441 -0.9026  0.0276
 8648TIP3   OH247358   5.825   1.679   1.251 -0.1299 -0.7363 -0.5206
 8648TIP3    H147359   5.757   1.665   1.317 -0.3008  1.0371 -0.2863
 8648TIP3    H247360   5.786   1.739   1.188 -0.0024 -2.4599 -2.3448
 8649TIP3   OH247361   6.665   6.073  15.942  0.1137  0.5714  0.4565
 8649TIP3    H147362   6.705   6.119  16.016  0.5422 -0.0980  0.6539
 8649TIP3    H247363   6.627   5.994  15.981  0.7877 -0.0474 -0.1082
 8650TIP3   OH247364   2.386   2.942   0.369  0.0720  0.4666  0.1255
 8650TIP3    H147365   2.472   2.931   0.327  0.5233  1.5251  0.7347
 8650TIP3    H247366   2.390   2.888   0.447  0.0492  0.2336 -0.0341
 8651TIP3   OH247367   0.016   2.830   5.674 -0.1769 -0.2526  0.4851
 8651TIP3    H147368   0.047   2.913   5.708  0.4300 -0.7445  1.1677
 8651TIP3    H247369  -0.031   2.789   5.747 -2.0413  0.2528 -0.3796
 8652TIP3   OH247370   1.337   4.075  13.006  0.3472 -0.1211 -0.0552
 8652TIP3    H147371   1.259   4.130  13.014 -0.8584 -1.4413 -1.8649
 8652TIP3    H247372   1.393   4.122  12.944  1.0114  0.7909  1.1886
 8653TIP3   OH247373   5.081   6.510  15.339  0.4050  0.7478 -0.0617
 8653TIP3    H147374   5.059   6.563  15.262  0.0503 -2.2173 -2.1601
 8653TIP3    H247375   5.141   6.443  15.306 -0.6271 -1.3272  1.9568
 8654TIP3   OH247376   5.773   2.526   3.149 -0.5141  0.3815  0.4268
 8654TIP3    H147377   5.736   2.606   3.112  0.9220  0.8233 -0.1323
 8654TIP3    H247378   5.698   2.480   3.187 -1.4618  1.6789  0.1933
 8655TIP3   OH247379   3.859   2.383  10.470  0.2443 -0.0245  0.1464
 8655TIP3    H147380   3.789   2.324  10.443  1.4571 -1.7383  0.5868
 8655TIP3    H247381   3.818   2.440  10.536 -0.9242 -0.4562 -0.1845
 8656TIP3   OH247382   0.080   5.037  13.156 -0.0996 -0.1904 -0.4234
 8656TIP3    H147383   0.061   5.007  13.245 -0.2109  0.3033 -0.2795
 8656TIP3    H247384   0.063   5.131  13.158 -1.3845 -0.3684 -1.3046
 8657TIP3   OH247385   3.663   2.664   6.559  0.1328  0.4069 -0.4588
 8657TIP3    H147386   3.624   2.588   6.603 -2.7488  2.3043  0.5544
 8657TIP3    H247387   3.718   2.705   6.625  2.0105 -0.9024 -1.1252
 8658TIP3   OH247388   2.880   1.427   5.596 -0.4175 -0.3267 -0.4080
 8658TIP3    H147389   2.960   1.432   5.649 -1.5374 -1.0390  1.4157
 8658TIP3    H247390   2.888   1.500   5.535  1.3841 -0.0772  0.0537
 8659TIP3   OH247391   4.054   5.091   3.436 -0.3682 -0.9114  0.1063
 8659TIP3    H147392   3.964   5.063   3.451 -0.6427  0.0114  0.2335
 8659TIP3    H247393   4.091   5.103   3.523  0.2239 -2.3113  0.0720
 8660TIP3   OH247394   3.877   2.019  11.031  0.0327  0.4066 -0.5124
 8660TIP3    H147395   3.872   2.078  11.105  0.5359  0.1220 -0.2456
 8660TIP3    H247396   3.787   2.013  10.998 -0.5580 -0.8888  1.1965
 8661TIP3   OH247397   2.874   5.739  15.061  0.3565 -0.2932  0.1147
 8661TIP3    H147398   2.948   5.687  15.030 -0.9430 -1.7095 -0.7327
 8661TIP3    H247399   2.913   5.801  15.123  2.2558 -0.8995 -0.4052
 8662TIP3   OH247400   2.154   6.078   5.355 -0.1785 -0.4046 -0.1033
 8662TIP3    H147401   2.117   6.140   5.418 -0.6407 -1.0339  0.2557
 8662TIP3    H247402   2.175   6.001   5.407 -1.3984 -1.2717 -0.8556
 8663TIP3   OH247403   5.061   5.695  13.443 -0.6655 -0.3653  0.6091
 8663TIP3    H147404   5.023   5.758  13.382  0.1654  2.5156  2.8198
 8663TIP3    H247405   5.154   5.691  13.419 -0.6653 -0.5611  0.6349
 8664TIP3   OH247406   2.261   2.706   4.572  0.2360 -0.9726 -0.1562
 8664TIP3    H147407   2.267   2.706   4.667  1.0150 -1.5324 -0.1980
 8664TIP3    H247408   2.175   2.668   4.554  0.0194 -0.7196  0.3214
 8665TIP3   OH247409   2.093   2.402   2.784 -0.3352  0.2322  0.0976
 8665TIP3    H147410   2.041   2.328   2.753  0.2679 -0.4545  0.7041
 8665TIP3    H247411   2.050   2.479   2.745 -0.3722 -0.4949 -1.3552
 8666TIP3   OH247412   0.048   3.535  12.612 -0.1075 -0.0161  0.0197
 8666TIP3    H147413   0.135   3.537  12.573 -0.5371  0.9745 -0.9593
 8666TIP3    H247414   0.028   3.627  12.631  0.4578 -0.4779  3.5469
 8667TIP3   OH247415   6.397   2.904  14.957  0.2664  0.4804  0.3110
 8667TIP3    H147416   6.477   2.934  14.914 -0.1707  1.2484  0.0118
 8667TIP3    H247417   6.394   2.810  14.940 -0.0575  0.8021 -1.6413
 8668TIP3   OH247418   1.084   0.320   3.713  0.1463  0.0254  0.4914
 8668TIP3    H147419   1.113   0.283   3.796 -0.9800 -1.6058  0.2043
 8668TIP3    H247420   0.993   0.291   3.704 -0.0352  0.9329 -0.8848
 8669TIP3   OH247421   0.800   6.581  10.641  0.6172 -0.3943  0.2512
 8669TIP3    H147422   0.849   6.615  10.565  0.5338 -0.7156  0.0511
 8669TIP3    H247423   0.737   6.650  10.661  0.1942 -0.5795 -0.3919
 8670TIP3   OH247424   4.550   4.562   0.009 -0.5358 -0.7458  0.0678
 8670TIP3    H147425   4.635   4.588   0.046  0.0907 -2.0069 -0.4171
 8670TIP3    H247426   4.572   4.514  -0.070 -1.7173 -1.1278 -0.0497
 8671TIP3   OH247427   6.173   4.897  14.770  0.1311  0.0185  0.3440
 8671TIP3    H147428   6.210   4.850  14.696 -2.6687 -0.7244 -0.7236
 8671TIP3    H247429   6.109   4.836  14.808 -0.8731  1.5699  1.3052
 8672TIP3   OH247430   4.740   4.692  17.008 -0.6061 -0.2719  0.1675
 8672TIP3    H147431   4.814   4.730  17.055 -0.1490 -2.5693  1.4744
 8672TIP3    H247432   4.705   4.764  16.956  1.7182  1.2379  0.5210
 8673TIP3   OH247433   4.804   0.477  15.248  0.2901 -0.0388 -0.4022
 8673TIP3    H147434   4.828   0.563  15.283 -0.2131 -0.2981  0.6433
 8673TIP3    H247435   4.709   0.481  15.241  0.2722 -0.4975 -0.3943
 8674TIP3   OH247436   1.508   1.322   3.869  0.4923  0.0985  0.2231
 8674TIP3    H147437   1.449   1.365   3.931  0.2381 -1.9281  1.5009
 8674TIP3    H247438   1.536   1.391   3.810 -0.8860  1.7073  1.3594
 8675TIP3   OH247439   3.570   5.861   0.990 -0.0053  0.0562  0.3494
 8675TIP3    H147440   3.622   5.940   0.976  1.0392 -0.7028 -0.1448
 8675TIP3    H247441   3.579   5.811   0.909  0.3104 -1.1162  1.0827
 8676TIP3   OH247442   3.474   2.390  13.538 -0.5809  0.4821  0.4841
 8676TIP3    H147443   3.565   2.390  13.510 -0.7650 -0.5005 -0.1267
 8676TIP3    H247444   3.445   2.481  13.524  0.2221  0.7448  0.4669
 8677TIP3   OH247445   1.034   2.486   2.144 -0.5629 -0.3060 -0.1694
 8677TIP3    H147446   0.940   2.494   2.131 -0.9605  0.0325  2.4956
 8677TIP3    H247447   1.066   2.576   2.145 -0.2786 -0.3985 -0.4584
 8678TIP3   OH247448   5.999   0.509  12.193 -0.6749  0.2857  0.4635
 8678TIP3    H147449   5.957   0.569  12.132  1.0794  0.2487 -0.8519
 8678TIP3    H247450   6.017   0.563  12.271  2.9940  2.3316 -1.5217
 8679TIP3   OH247451   5.053   6.353   2.308  0.1210  0.0684 -0.0263
 8679TIP3    H147452   5.019   6.264   2.320  0.1825 -0.0229 -0.5089
 8679TIP3    H247453   5.014   6.403   2.380 -1.2298  0.0135 -0.6840
 8680TIP3   OH247454   2.030   4.935  15.175  0.2137  0.0435 -0.0293
 8680TIP3    H147455   2.084   4.978  15.241 -0.3540  0.5046  0.1412
 8680TIP3    H247456   1.981   4.867  15.223 -0.3376  0.5013  0.0678
 8681TIP3   OH247457   1.790   5.922   4.044  0.0668 -0.0185  0.5550
 8681TIP3    H147458   1.737   6.001   4.052 -2.5301 -1.4788 -0.6553
 8681TIP3    H247459   1.753   5.862   4.109 -0.0229 -1.2013 -0.5444
 8682TIP3   OH247460   4.966   3.438  13.310 -0.1758  0.2396  0.1888
 8682TIP3    H147461   4.871   3.448  13.323 -0.1079  0.0261  0.8813
 8682TIP3    H247462   4.991   3.368  13.371  0.5045  0.6170  0.3498
 8683TIP3   OH247463   2.842   6.658   1.973  0.0930 -0.1128  0.1148
 8683TIP3    H147464   2.901   6.686   1.903 -1.2726  1.3622 -0.5150
 8683TIP3    H247465   2.838   6.563   1.963  0.9097 -0.0568 -1.0165
 8684TIP3   OH247466   5.967   2.803   6.014  0.0474  0.1721  0.1606
 8684TIP3    H147467   6.027   2.787   6.087  0.8498 -1.4845 -0.8398
 8684TIP3    H247468   5.880   2.804   6.056  0.3969 -1.7283  1.0473
 8685TIP3   OH247469   0.722   1.505  11.713  0.6696 -0.0269 -0.2565
 8685TIP3    H147470   0.743   1.481  11.803  1.4745 -0.4768 -0.5490
 8685TIP3    H247471   0.806   1.535  11.677  0.4086 -0.0977 -0.9313
 8686TIP3   OH247472   6.297   3.755  16.375 -0.0162 -0.0568 -0.0419
 8686TIP3    H147473   6.346   3.789  16.300 -0.0627  0.9385  0.3507
 8686TIP3    H247474   6.344   3.676  16.401  0.4216 -0.0127 -0.6742
 8687TIP3   OH247475   5.335   3.854   4.875  0.1754  1.1413 -0.2113
 8687TIP3    H147476   5.304   3.903   4.951  0.9602  1.6758 -0.2320
 8687TIP3    H247477   5.430   3.849   4.886  0.4122  2.0185 -1.6156
 8688TIP3   OH247478   6.368   5.470  12.704  0.0439  0.1349  0.2320
 8688TIP3    H147479   6.393   5.416  12.629 -0.8790  0.0170 -0.0019
 8688TIP3    H247480   6.311   5.538  12.667 -1.7341 -0.8657  1.0328
 8689TIP3   OH247481   2.348   1.524  11.695  0.0932 -0.6302  0.7316
 8689TIP3    H147482   2.261   1.519  11.656  0.5180  0.9982 -0.5462
 8689TIP3    H247483   2.403   1.470  11.638  0.1049 -0.8873  0.9844
 8690TIP3   OH247484   3.685   4.330  17.145  0.2911 -0.0173 -0.6013
 8690TIP3    H147485   3.618   4.343  17.077 -1.8732  0.3149  1.4442
 8690TIP3    H247486   3.673   4.404  17.204  1.0887 -1.0472  0.9078
 8691TIP3   OH247487   3.159   6.663  12.292 -0.2543  0.0184  0.2667
 8691TIP3    H147488   3.205   6.635  12.213 -2.3130 -1.1286 -0.5964
 8691TIP3    H247489   3.094   6.727  12.260 -2.6185 -2.0740  0.5770
 8692TIP3   OH247490   6.613   6.357   6.543 -0.3672  0.3735 -0.3026
 8692TIP3    H147491   6.664   6.384   6.620 -0.0315  1.0638 -0.7539
 8692TIP3    H247492   6.533   6.319   6.579  0.4454 -0.6949  0.4218
 8693TIP3   OH247493   2.897   5.642   6.102 -0.4575  0.1471 -0.1256
 8693TIP3    H147494   2.858   5.720   6.142 -0.9203 -0.0089 -0.2686
 8693TIP3    H247495   2.870   5.646   6.010 -3.0375 -1.7226  0.4382
 8694TIP3   OH247496   3.278   5.779   1.645  0.4232  0.1228 -0.6099
 8694TIP3    H147497   3.200   5.723   1.642  0.8683 -0.4730 -1.2677
 8694TIP3    H247498   3.278   5.825   1.561  0.9708 -0.1433 -0.7566
 8695TIP3   OH247499   0.559   5.117   3.849 -0.3737 -0.1645  0.5179
 8695TIP3    H147500   0.593   5.144   3.935 -1.9001  1.7038  0.5892
 8695TIP3    H247501   0.494   5.049   3.870 -0.4202 -0.0344  0.8083
 8696TIP3   OH247502   5.742   0.792  15.289 -0.3326  0.3053  0.0327
 8696TIP3    H147503   5.698   0.724  15.237 -0.9396  2.4272 -2.4676
 8696TIP3    H247504   5.825   0.807  15.244 -0.4918  1.6400  0.1558
 8697TIP3   OH247505   3.469   0.077   1.171  0.6556  0.2526 -0.2670
 8697TIP3    H147506   3.494   0.168   1.189  0.9669 -0.1532  1.5816
 8697TIP3    H247507   3.550   0.028   1.181 -0.0123 -0.5672  1.8181
 8698TIP3   OH247508   3.501   4.341  14.824  0.2941 -0.0372  0.3664
 8698TIP3    H147509   3.563   4.268  14.835  1.0906  0.5699  0.0258
 8698TIP3    H247510   3.515   4.396  14.902 -1.0651 -0.7734  1.1694
 8699TIP3   OH247511   1.474   6.593  16.604  0.2821  0.5115 -0.2103
 8699TIP3    H147512   1.438   6.558  16.686  0.3100  0.9610 -0.0002
 8699TIP3    H247513   1.425   6.674  16.589 -0.8679 -0.3821 -1.5118
 8700TIP3   OH247514   2.852   3.760  14.408 -0.5123 -0.4361 -0.4543
 8700TIP3    H147515   2.925   3.751  14.469 -0.6830 -1.4974 -0.3797
 8700TIP3    H247516   2.862   3.847  14.371 -1.1664  0.7939  2.0723
 8701TIP3   OH247517   5.021   2.086  13.247 -0.5204  0.1057  0.2905
 8701TIP3    H147518   5.089   2.105  13.182 -1.1976  0.1217 -0.4194
 8701TIP3    H247519   5.065   2.100  13.331  0.2289  0.5653 -0.1591
 8702TIP3   OH247520   1.639   0.685  12.353 -0.0263 -0.0674  0.1224
 8702TIP3    H147521   1.696   0.717  12.423  1.0988 -1.3985 -0.1359
 8702TIP3    H247522   1.570   0.751  12.346 -0.3636 -0.0696  2.7128
 8703TIP3   OH247523   2.384   3.897  16.370  0.6387 -0.2679 -0.1942
 8703TIP3    H147524   2.478   3.908  16.385  0.4651  0.5597  0.3626
 8703TIP3    H247525   2.345   3.977  16.405 -0.3842 -1.1505  0.7778
 8704TIP3   OH247526   0.531   0.044   5.495  0.3498 -0.1687  0.3785
 8704TIP3    H147527   0.535   0.067   5.402  0.5319  1.2718  0.7174
 8704TIP3    H247528   0.459   0.097   5.529 -1.5250 -2.6745  0.5537
 8705TIP3   OH247529   6.502   2.659   3.504  0.2146  0.1668  0.1570
 8705TIP3    H147530   6.534   2.739   3.546 -0.7795  1.4010 -1.3221
 8705TIP3    H247531   6.570   2.635   3.442  0.1739  0.3077  0.0582
 8706TIP3   OH247532   6.239   4.026  15.695  0.3846 -0.1161 -0.2172
 8706TIP3    H147533   6.267   3.991  15.610 -0.9353 -0.0298 -0.7122
 8706TIP3    H247534   6.253   3.953  15.756 -1.3146 -1.2100 -1.0429
 8707TIP3   OH247535   3.705   3.819  16.053 -0.5058  0.4938  0.0780
 8707TIP3    H147536   3.742   3.734  16.077  0.4538  1.3493  1.8612
 8707TIP3    H247537   3.649   3.800  15.978  1.0464 -1.3965 -0.6915
 8708TIP3   OH247538   2.725   5.216   0.098 -0.7729 -0.3573  0.8858
 8708TIP3    H147539   2.760   5.225   0.186 -0.3581  0.9781  0.6135
 8708TIP3    H247540   2.668   5.292   0.087  0.7008  0.6219 -0.6445
 8709TIP3   OH247541   4.362   1.679  12.684  0.1607  0.2807  0.1501
 8709TIP3    H147542   4.361   1.775  12.688 -1.2968  0.2688  0.8717
 8709TIP3    H247543   4.432   1.658  12.622 -0.3487  1.8412 -1.0195
 8710TIP3   OH247544   0.079   1.747   5.664  0.8333  0.0616  0.4722
 8710TIP3    H147545   0.139   1.675   5.644  1.9931  1.2264 -0.4387
 8710TIP3    H247546   0.020   1.711   5.730  1.8949 -1.4531  0.6597
 8711TIP3   OH247547   1.841   3.977  11.239 -0.2637  0.5066 -0.7656
 8711TIP3    H147548   1.749   4.000  11.227 -0.6146 -0.3188  0.2403
 8711TIP3    H247549   1.862   3.920  11.165 -1.0162 -0.5893 -0.1519
 8712TIP3   OH247550   2.520   3.014   6.025 -0.0963 -0.3156  0.3423
 8712TIP3    H147551   2.548   3.098   5.989  0.4598 -0.4857  0.3702
 8712TIP3    H247552   2.428   3.007   6.000 -0.8488  1.3859  2.4015
 8713TIP3   OH247553   6.289   5.508   3.398 -0.5606  0.1943 -0.2768
 8713TIP3    H147554   6.259   5.423   3.363  0.0466 -0.3856  0.5769
 8713TIP3    H247555   6.255   5.572   3.336 -1.4067 -0.6390 -0.7085
 8714TIP3   OH247556   2.526   2.556   1.822  0.0379  0.3660  0.2799
 8714TIP3    H147557   2.590   2.611   1.867 -0.8127  3.7077 -2.1620
 8714TIP3    H247558   2.576   2.512   1.753  0.4633 -0.9243  1.3637
 8715TIP3   OH247559   5.390   6.058   5.251 -0.2932 -0.1488 -0.1470
 8715TIP3    H147560   5.429   6.123   5.309  0.7342 -2.0322  1.4070
 8715TIP3    H247561   5.400   5.975   5.298  0.2663 -1.7425 -2.8879
 8716TIP3   OH247562   0.821   0.057  12.459  0.7372  0.1619  0.2979
 8716TIP3    H147563   0.812   0.043  12.553 -3.4293  1.8189  0.3593
 8716TIP3    H247564   0.832   0.152  12.449  0.6775  0.0645 -0.8690
 8717TIP3   OH247565   2.007   1.937  17.125 -0.2718  0.5829 -0.2749
 8717TIP3    H147566   2.045   2.008  17.073  1.6592 -0.9773 -1.1713
 8717TIP3    H247567   2.009   1.861  17.065 -0.4174 -0.6618  1.2441
 8718TIP3   OH247568   3.233   1.947  15.314 -0.4484  0.2400 -0.5009
 8718TIP3    H147569   3.149   1.969  15.274 -0.3660  0.4620 -0.5514
 8718TIP3    H247570   3.271   1.882  15.255 -1.4887 -1.4279  0.5726
 8719TIP3   OH247571   3.091   3.566   5.504  0.7767 -0.1155  0.3606
 8719TIP3    H147572   3.123   3.648   5.542  0.0428  1.3815 -2.0015
 8719TIP3    H247573   3.153   3.548   5.433  0.3778 -1.0955  0.2508
 8720TIP3   OH247574   3.866   4.937  16.624  0.0367  0.0606 -0.6312
 8720TIP3    H147575   3.790   4.912  16.676  0.8822 -2.2549 -0.4181
 8720TIP3    H247576   3.938   4.944  16.687  0.6681 -0.9190 -1.2178
 8721TIP3   OH247577   0.071   5.140  14.674 -0.6287  0.3394  0.3472
 8721TIP3    H147578   0.112   5.100  14.750  0.3967 -0.7831 -0.7382
 8721TIP3    H247579  -0.010   5.092  14.661 -1.2950  1.1826  1.2797
 8722TIP3   OH247580   5.687   0.271  13.806  0.0142 -0.5309 -0.7646
 8722TIP3    H147581   5.779   0.285  13.828 -0.4269 -0.1343  0.9907
 8722TIP3    H247582   5.681   0.178  13.785  0.9042 -0.4559 -1.3866
 8723TIP3   OH247583   2.552   5.212   1.796 -0.1964 -0.0778  0.5241
 8723TIP3    H147584   2.548   5.131   1.746 -0.0219  1.7408 -2.6852
 8723TIP3    H247585   2.460   5.237   1.808 -0.2240  0.3877 -0.5616
 8724TIP3   OH247586   3.095   4.293   4.199  0.2252  0.8942  0.3309
 8724TIP3    H147587   3.087   4.382   4.233  0.9780  1.5818 -1.1793
 8724TIP3    H247588   3.047   4.295   4.116  0.2203 -0.1252  0.2977
 8725TIP3   OH247589   1.867   0.103  12.843 -0.3220  0.3705 -0.5732
 8725TIP3    H147590   1.780   0.094  12.803 -1.3831 -0.7350  1.7793
 8725TIP3    H247591   1.905   0.016  12.836 -0.5108  0.1737  0.7371
 8726TIP3   OH247592   3.808   3.246   1.594 -0.0266 -0.5936 -0.2022
 8726TIP3    H147593   3.778   3.229   1.683  1.8966 -0.8734  0.4335
 8726TIP3    H247594   3.790   3.164   1.547  0.2416 -0.9612  0.3173
 8727TIP3   OH247595   1.685   4.673   4.644 -0.7033 -0.0555 -0.1998
 8727TIP3    H147596   1.671   4.601   4.705 -0.7118 -0.1305 -0.2911
 8727TIP3    H247597   1.598   4.692   4.609 -0.9456  0.9491  0.8963
 8728TIP3   OH247598   5.858   4.620   2.405  0.4048  0.2974 -0.1887
 8728TIP3    H147599   5.888   4.701   2.364  0.6621 -0.2088 -1.0224
 8728TIP3    H247600   5.764   4.632   2.416  0.3633  0.5204 -0.7580
 8729TIP3   OH247601   4.858   1.769   6.366  0.1309 -0.3893  0.0016
 8729TIP3    H147602   4.932   1.714   6.393  1.3055 -0.0109 -2.1618
 8729TIP3    H247603   4.895   1.826   6.298 -1.9277  0.5156 -0.4222
 8730TIP3   OH247604   3.884   2.810  15.513 -0.1398  0.4073 -1.0363
 8730TIP3    H147605   3.868   2.779  15.424 -1.4000  0.1152 -0.7291
 8730TIP3    H247606   3.930   2.738  15.556 -0.8431 -0.0538 -1.0409
 8731TIP3   OH247607   6.219   0.926  13.051  0.7702  0.2633  0.0464
 8731TIP3    H147608   6.129   0.927  13.084  0.6498  1.0928 -0.3051
 8731TIP3    H247609   6.210   0.921  12.956  1.1180 -0.9983  0.0512
 8732TIP3   OH247610   2.059   4.093   0.355  0.2341  0.6867 -0.1272
 8732TIP3    H147611   2.075   4.132   0.268  2.3599  0.5308  0.1380
 8732TIP3    H247612   2.109   4.012   0.354 -0.0203  0.5041  1.1255
 8733TIP3   OH247613   4.685   5.795   5.157  0.7343  0.0756 -0.1345
 8733TIP3    H147614   4.683   5.746   5.239  1.0145  1.1993  0.5692
 8733TIP3    H247615   4.676   5.886   5.184 -1.6346  0.3423 -1.5217
 8734TIP3   OH247616   1.849   6.406   3.414 -0.5704 -0.1543 -0.4130
 8734TIP3    H147617   1.888   6.473   3.470 -3.0799  1.4225 -0.4155
 8734TIP3    H247618   1.839   6.450   3.329 -2.7711 -0.2564 -0.2615
 8735TIP3   OH247619   3.968   4.314  13.365 -0.1722  0.0776  0.0688
 8735TIP3    H147620   3.945   4.395  13.319 -2.6406  0.0535  1.0915
 8735TIP3    H247621   3.975   4.341  13.457 -0.5199 -0.7856  0.3527
 8736TIP3   OH247622   4.627   5.122   3.132  0.1933  0.0162 -0.0706
 8736TIP3    H147623   4.659   5.055   3.071  0.2160 -0.2072  0.1857
 8736TIP3    H247624   4.589   5.073   3.205 -0.7514  0.2747 -0.3698
 8737TIP3   OH247625   5.625   4.980  16.303 -0.1816  0.1646 -0.7220
 8737TIP3    H147626   5.669   4.905  16.262 -0.1834 -0.0433 -0.3488
 8737TIP3    H247627   5.660   5.056  16.257  0.8908  0.0384 -0.1525
 8738TIP3   OH247628   2.589   0.473  15.083  0.2370 -0.2556 -0.0060
 8738TIP3    H147629   2.603   0.412  15.011  0.0169 -0.9595  0.5309
 8738TIP3    H247630   2.502   0.509  15.068 -0.1149 -0.9513  0.2888
 8739TIP3   OH247631   5.506   4.781  16.447  0.3605  0.0451 -0.3245
 8739TIP3    H147632   5.533   4.854  16.391 -1.0468  0.6722 -0.2247
 8739TIP3    H247633   5.453   4.822  16.515 -1.5180 -1.1755 -0.9684
 8740TIP3   OH247634   1.173   5.807   2.973 -0.0223 -0.3859 -0.4936
 8740TIP3    H147635   1.108   5.788   3.040 -0.3114  0.3837 -0.5489
 8740TIP3    H247636   1.248   5.752   2.997  1.1961  2.2888  2.4622
 8741TIP3   OH247637   2.267   4.133  16.185 -0.1405 -0.0665 -0.0165
 8741TIP3    H147638   2.174   4.112  16.190 -0.2235  0.3015  0.0274
 8741TIP3    H247639   2.270   4.221  16.147  0.1601  0.1757  0.5492
 8742TIP3   OH247640   0.023   2.133   0.762 -0.2149 -0.4469 -0.7384
 8742TIP3    H147641   0.018   2.170   0.674 -0.5863 -1.3712 -1.1170
 8742TIP3    H247642   0.017   2.038   0.749 -1.4625 -0.5537  0.3551
 8743TIP3   OH247643   3.653   5.652   4.539  0.3625  0.3206  0.0409
 8743TIP3    H147644   3.627   5.739   4.568 -2.0933 -0.3372  0.0271
 8743TIP3    H247645   3.679   5.607   4.619 -1.5830  0.0755  0.5842
 8744TIP3   OH247646   3.532   1.072  14.064  0.3557 -0.3008 -0.2586
 8744TIP3    H147647   3.598   1.097  13.999  1.2624 -0.8791  0.4155
 8744TIP3    H247648   3.582   1.053  14.144 -0.7195  0.3146  0.6009
 8745TIP3   OH247649   5.567   1.624  11.700  0.2395  0.1251 -0.5410
 8745TIP3    H147650   5.582   1.718  11.699 -1.3016  0.4243 -3.0983
 8745TIP3    H247651   5.623   1.589  11.631 -1.1229 -0.4441 -1.3987
 8746TIP3   OH247652   0.774   2.010   0.959  0.0995  0.1602 -0.1160
 8746TIP3    H147653   0.832   1.969   1.023  0.2765  0.3525 -0.1519
 8746TIP3    H247654   0.797   2.103   0.962 -3.0114  1.0265  2.9224
 8747TIP3   OH247655   4.403   3.874   3.989 -0.1450 -0.1989 -0.3286
 8747TIP3    H147656   4.382   3.967   3.997 -1.1765 -0.4216 -0.3680
 8747TIP3    H247657   4.333   3.829   4.035  0.2005 -0.9782 -0.5432
 8748TIP3   OH247658   1.123   1.268   1.537 -0.0072 -0.0931  0.0650
 8748TIP3    H147659   1.185   1.198   1.556  1.3060  0.8874 -0.4362
 8748TIP3    H247660   1.050   1.225   1.492  1.1932 -1.0227 -1.0537
 8749TIP3   OH247661   3.449   5.133   2.055 -0.2669 -0.6504  0.7504
 8749TIP3    H147662   3.386   5.110   2.123  0.3777  0.3066  1.6970
 8749TIP3    H247663   3.487   5.216   2.084 -2.1891  1.4976 -2.2733
 8750TIP3   OH247664   0.586   3.700   3.867 -0.1829 -1.0575  0.0966
 8750TIP3    H147665   0.502   3.722   3.826 -0.4129  0.3339  1.2376
 8750TIP3    H247666   0.651   3.738   3.809 -0.5002  0.7343  0.8574
 8751TIP3   OH247667   4.941   1.825  11.599 -0.4438  0.5325 -0.2290
 8751TIP3    H147668   4.865   1.770  11.582 -1.3092  1.0944  1.5499
 8751TIP3    H247669   4.916   1.879  11.675  0.7619  2.6077 -1.2030
 8752TIP3   OH247670   2.214   4.507   3.877 -0.8840 -0.2559  0.1138
 8752TIP3    H147671   2.279   4.572   3.903  0.4878 -1.2864 -0.5746
 8752TIP3    H247672   2.130   4.551   3.886 -0.0038  1.6147 -0.3610
 8753TIP3   OH247673   5.123   6.544  13.922  0.0015 -0.5470 -0.2695
 8753TIP3    H147674   5.150   6.511  13.836  0.6590  0.3068 -0.4159
 8753TIP3    H247675   5.140   6.638  13.917 -1.4983 -0.2288  0.2396
 8754TIP3   OH247676   0.759   3.254  14.839  0.1199  0.5761  0.2243
 8754TIP3    H147677   0.855   3.263  14.843  0.1671  0.0810  0.2004
 8754TIP3    H247678   0.737   3.207  14.919 -0.0838  0.4932  0.1177
 8755TIP3   OH247679   6.090   2.937  14.252 -0.0841 -0.6507  0.2530
 8755TIP3    H147680   5.998   2.953  14.272  0.1710 -0.5544  1.3696
 8755TIP3    H247681   6.114   3.010  14.195 -1.1437 -1.6024 -1.5195
 8756TIP3   OH247682   2.026   2.181   3.724  0.0152  0.0836  0.3462
 8756TIP3    H147683   2.059   2.270   3.730  1.9525 -0.6313  0.9375
 8756TIP3    H247684   2.040   2.144   3.811 -2.9650 -0.1247  0.8497
 8757TIP3   OH247685   3.886   6.359  14.130 -0.6756  0.5452 -0.1021
 8757TIP3    H147686   3.887   6.269  14.097 -2.8153  0.1856  0.6632
 8757TIP3    H247687   3.965   6.366  14.184 -0.9314 -1.1444  0.5228
 8758TIP3   OH247688   4.009   4.237   3.331 -0.1059 -0.2381  0.5434
 8758TIP3    H147689   4.032   4.218   3.422  0.6736  0.2705  0.4656
 8758TIP3    H247690   4.004   4.333   3.327 -1.3085 -0.2953  0.3175
 8759TIP3   OH247691   2.916   0.988  15.228 -0.2146 -0.6696 -0.3248
 8759TIP3    H147692   2.851   1.003  15.297 -1.8144  2.0478 -2.2489
 8759TIP3    H247693   2.907   1.063  15.169  0.6318 -3.0787 -3.8478
 8760TIP3   OH247694   6.130   4.626  13.294  0.4152 -0.2217 -0.5946
 8760TIP3    H147695   6.202   4.686  13.274  0.3623 -0.3418 -1.1617
 8760TIP3    H247696   6.133   4.616  13.389 -0.1272  1.3584 -0.3867
 8761TIP3   OH247697   3.168   4.222   2.866  0.1357  0.1050  0.6582
 8761TIP3    H147698   3.117   4.264   2.935  0.4179 -1.7248  2.0602
 8761TIP3    H247699   3.105   4.171   2.816  0.1641  0.1559  0.5702
 8762TIP3   OH247700   1.195   2.562  14.242  0.4942 -0.4765  0.2044
 8762TIP3    H147701   1.244   2.500  14.188  0.0676  0.7728 -1.7271
 8762TIP3    H247702   1.261   2.621  14.278  0.7203 -0.9319  0.5452
 8763TIP3   OH247703   0.200   3.684   3.459  0.5757  0.0646  0.3606
 8763TIP3    H147704   0.222   3.591   3.469  0.4817  0.2127  2.2121
 8763TIP3    H247705   0.209   3.700   3.365 -1.2736 -2.2859 -0.3098
 8764TIP3   OH247706   5.418   0.494   2.754  0.1894  0.2409  0.6968
 8764TIP3    H147707   5.403   0.578   2.797  1.1441 -0.4579  2.5439
 8764TIP3    H247708   5.341   0.441   2.776  0.2530  0.1748  0.7628
 8765TIP3   OH247709   0.851   5.419  15.649  0.3681  0.5438  0.0310
 8765TIP3    H147710   0.778   5.448  15.705  0.7484  0.6821  0.4630
 8765TIP3    H247711   0.820   5.336  15.612 -0.2286  0.8740 -0.2274
 8766TIP3   OH247712   0.490   6.060  13.695 -0.3387  0.0819 -0.2995
 8766TIP3    H147713   0.492   5.966  13.676 -0.2738 -0.5533  2.4266
 8766TIP3    H247714   0.416   6.070  13.756  1.1028  1.3365  1.3564
 8767TIP3   OH247715   2.919   2.753   5.548 -0.1409 -0.5718 -0.5295
 8767TIP3    H147716   2.904   2.734   5.641  0.5132 -0.4123 -0.3866
 8767TIP3    H247717   2.902   2.670   5.504 -0.4445 -0.6526 -0.2677
 8768TIP3   OH247718   2.409   2.727  15.055  0.1938 -0.4184 -0.0730
 8768TIP3    H147719   2.404   2.768  15.141  1.4966  0.2621 -0.2984
 8768TIP3    H247720   2.364   2.788  14.996 -3.1233 -2.1280  0.4772
 8769TIP3   OH247721   2.326   5.646   4.759 -0.0614  0.8238 -0.5190
 8769TIP3    H147722   2.335   5.735   4.723  0.4084  0.2185 -1.9669
 8769TIP3    H247723   2.291   5.594   4.687 -0.8515 -0.0710  0.4804
 8770TIP3   OH247724   4.176   2.462  16.739  0.2316  0.1873  0.2130
 8770TIP3    H147725   4.111   2.396  16.764 -0.6303  1.0168  0.2317
 8770TIP3    H247726   4.172   2.527  16.809  0.3165  0.7751 -0.3208
 8771TIP3   OH247727   1.627   0.108  16.944  0.0517  0.1902 -0.0355
 8771TIP3    H147728   1.710   0.092  16.899  0.8079  1.2050  0.9328
 8771TIP3    H247729   1.646   0.094  17.036 -0.1637  2.7234  0.4918
 8772TIP3   OH247730   3.741   4.912   1.437  0.0716 -0.8149 -0.1964
 8772TIP3    H147731   3.775   4.963   1.363  0.4070  0.0731  0.5467
 8772TIP3    H247732   3.655   4.882   1.407 -0.6134  1.1013 -0.3142
 8773TIP3   OH247733   5.965   4.331   0.451  0.2277  0.3132  0.0661
 8773TIP3    H147734   6.034   4.392   0.476  1.1397 -1.2194  1.4821
 8773TIP3    H247735   5.945   4.282   0.531 -1.0991 -0.6325 -0.7991
 8774TIP3   OH247736   5.903   1.030  16.136  0.7091  0.0946 -0.0488
 8774TIP3    H147737   5.902   1.022  16.231  0.5217  1.5249  0.0986
 8774TIP3    H247738   5.900   1.125  16.120 -2.6802 -0.1099 -1.5170
 8775TIP3   OH247739   0.500   3.473   1.350  0.3960  0.4866  0.1714
 8775TIP3    H147740   0.480   3.497   1.259  0.4408  1.4037  0.4017
 8775TIP3    H247741   0.423   3.498   1.400  0.8128  1.0160  0.5575
 8776TIP3   OH247742   5.205   1.286  12.094  0.7565 -0.4112 -0.2591
 8776TIP3    H147743   5.162   1.214  12.141 -0.2072 -0.1187 -0.6662
 8776TIP3    H247744   5.179   1.364  12.142  0.6341 -0.2082 -0.6542
 8777TIP3   OH247745   0.755   3.774   3.164  0.1126 -0.4719 -0.0007
 8777TIP3    H147746   0.834   3.824   3.142  0.6188 -1.3165 -0.1314
 8777TIP3    H247747   0.735   3.799   3.254 -0.9105  1.6117 -0.7219
 8778TIP3   OH247748   5.114   0.022   3.495  0.4791  0.3722  0.1090
 8778TIP3    H147749   5.111   0.083   3.569 -1.8643 -0.9772  1.2077
 8778TIP3    H247750   5.061   0.064   3.427 -0.1587  0.0901  0.4321
 8779TIP3   OH247751   4.429   4.663   3.247  0.3857  0.0650  0.1206
 8779TIP3    H147752   4.466   4.586   3.203 -0.9799  0.0971 -1.1600
 8779TIP3    H247753   4.340   4.670   3.213  0.2066  1.7407  0.8362
 8780TIP3   OH247754   4.012   4.406  14.123  0.5845  0.1354 -0.7959
 8780TIP3    H147755   4.095   4.399  14.074  0.3636 -0.2824 -1.1220
 8780TIP3    H247756   4.029   4.472  14.190  1.2678 -0.1345 -0.6953
 8781TIP3   OH247757   2.720   1.847   0.212 -0.2759 -0.2666  0.0121
 8781TIP3    H147758   2.629   1.836   0.187 -0.4133  0.5622  0.1222
 8781TIP3    H247759   2.720   1.920   0.274  0.4818 -0.1124 -0.1542
 8782TIP3   OH247760   6.603   2.724  16.508 -0.3006  0.1656 -0.0315
 8782TIP3    H147761   6.522   2.675  16.496 -0.9184  0.1470  3.2687
 8782TIP3    H247762   6.577   2.816  16.500 -1.3233  0.3075  3.3070
 8783TIP3   OH247763   0.235   6.366   2.212  0.0700 -0.0481 -0.9393
 8783TIP3    H147764   0.204   6.304   2.278  1.6907  1.4970  1.4324
 8783TIP3    H247765   0.328   6.345   2.202 -0.0987 -0.0912 -2.6194
 8784TIP3   OH247766   5.231   4.258   0.782 -0.2369  0.3956 -0.3810
 8784TIP3    H147767   5.230   4.173   0.827 -0.8165 -0.2250 -1.5299
 8784TIP3    H247768   5.287   4.244   0.706 -0.3248  1.0525 -0.5712
 8785TIP3   OH247769   0.043   5.398  14.778 -0.0425 -0.1245  0.6220
 8785TIP3    H147770   0.054   5.311  14.742 -0.9892 -0.8690  2.0092
 8785TIP3    H247771   0.132   5.433  14.786  0.2092  0.0108 -2.1180
 8786TIP3   OH247772   1.488   5.355   3.761  0.6245 -0.5046 -0.8922
 8786TIP3    H147773   1.572   5.333   3.720  0.8451 -2.4953  0.4805
 8786TIP3    H247774   1.426   5.362   3.689  1.6999 -0.3936 -1.8209
 8787TIP3   OH247775   4.341   1.964  15.799 -0.0529 -0.2585  0.3309
 8787TIP3    H147776   4.404   1.902  15.835 -0.1892 -1.4220 -1.3313
 8787TIP3    H247777   4.328   1.935  15.709 -3.4135 -0.4614  0.7623
 8788TIP3   OH247778   1.546   4.086  15.958  0.1546 -0.4510  0.2559
 8788TIP3    H147779   1.531   4.057  15.868 -0.2480  0.7315 -0.0809
 8788TIP3    H247780   1.490   4.030  16.011 -2.4647  1.2057 -0.6038
 8789TIP3   OH247781   6.645   5.614   1.794  0.3516 -0.5356  0.0279
 8789TIP3    H147782   6.582   5.631   1.864  0.9928  1.6433  0.1468
 8789TIP3    H247783   6.592   5.582   1.721 -0.6371 -0.5540  0.7392
 8790TIP3   OH247784   6.134   3.099  16.751 -0.5210  0.5908 -0.4957
 8790TIP3    H147785   6.221   3.127  16.779  0.7979 -2.9442 -0.6354
 8790TIP3    H247786   6.104   3.170  16.694  2.2010  2.0142 -0.3275
 8791TIP3   OH247787   3.768   6.286  11.559 -0.1268 -0.5092  0.4417
 8791TIP3    H147788   3.777   6.236  11.478  0.9156  0.0429  0.2006
 8791TIP3    H247789   3.815   6.235  11.625  1.8347  0.6109 -0.0284
 8792TIP3   OH247790   1.492   2.329   2.578 -0.1917 -0.4514 -0.0181
 8792TIP3    H147791   1.554   2.272   2.534  0.0741 -0.6263  0.5800
 8792TIP3    H247792   1.497   2.412   2.530  1.1219 -0.1898  0.5413
 8793TIP3   OH247793   0.648   3.843  14.031  0.6706  0.1946 -0.1333
 8793TIP3    H147794   0.635   3.881  14.118 -1.1117 -1.1892  0.2528
 8793TIP3    H247795   0.622   3.752  14.041  2.8383 -0.6515 -1.5405
 8794TIP3   OH247796   6.306   2.994   3.183 -0.7137 -0.2452  0.1815
 8794TIP3    H147797   6.392   2.965   3.153 -0.8319 -0.0746 -0.3453
 8794TIP3    H247798   6.284   2.935   3.255 -0.1889 -0.3317  0.2742
 8795TIP3   OH247799   4.226   1.055  15.863  0.0172  0.4827  0.1974
 8795TIP3    H147800   4.269   1.079  15.945 -0.7159  0.6971  0.5319
 8795TIP3    H247801   4.289   0.998  15.818  0.6455  0.8067  0.6569
 8796TIP3   OH247802   6.544   2.206   3.373  0.2405 -0.4651 -0.0284
 8796TIP3    H147803   6.511   2.117   3.361  1.5453 -1.1233  0.9116
 8796TIP3    H247804   6.631   2.205   3.333 -0.0518  0.6489 -0.7443
 8797TIP3   OH247805   6.107   4.567  15.686 -0.0442 -0.0835  1.2316
 8797TIP3    H147806   6.049   4.540  15.614 -0.1731  2.3867  0.3185
 8797TIP3    H247807   6.161   4.490  15.704 -0.7574 -1.1146 -0.7643
 8798TIP3   OH247808   3.317   2.213   0.730 -0.5976  0.1956 -0.4411
 8798TIP3    H147809   3.385   2.151   0.757  0.2401  1.2429 -0.0569
 8798TIP3    H247810   3.331   2.224   0.636  0.2591  0.9608 -0.2374
 8799TIP3   OH247811   0.716   3.612  16.544 -0.6021  0.2697 -0.0398
 8799TIP3    H147812   0.684   3.525  16.518 -0.0060  0.0180  0.0533
 8799TIP3    H247813   0.799   3.622  16.498  0.1649  0.0716  1.2577
 8800TIP3   OH247814   1.480   1.882   3.701 -0.4929  0.2729  0.1244
 8800TIP3    H147815   1.575   1.886   3.690 -0.2228 -1.8448  1.0850
 8800TIP3    H247816   1.445   1.893   3.612  0.5625  1.8531 -0.1429
 8801TIP3   OH247817   5.148   4.329  15.767 -0.0227 -0.0767 -0.9426
 8801TIP3    H147818   5.170   4.334  15.860  0.0943  1.2112 -1.0289
 8801TIP3    H247819   5.231   4.307  15.724  0.1636  0.4013 -0.8376
 8802TIP3   OH247820   0.268   4.122   4.359  0.0866 -0.2382  0.3270
 8802TIP3    H147821   0.254   4.195   4.419  0.2422 -0.8236  1.1019
 8802TIP3    H247822   0.184   4.112   4.313 -0.2457 -0.1807  0.9082
 8803TIP3   OH247823   0.420   2.232  15.182  0.3696  0.0995 -0.3473
 8803TIP3    H147824   0.391   2.323  15.173 -0.8353  0.2637  3.3561
 8803TIP3    H247825   0.355   2.182  15.134 -0.2183  1.0993 -0.6353
 8804TIP3   OH247826   3.128   4.298   2.589 -0.4232 -0.1808 -0.3766
 8804TIP3    H147827   3.169   4.254   2.664  0.8861  2.4781  0.6014
 8804TIP3    H247828   3.058   4.351   2.627 -0.0622  0.8362 -1.0889
 8805TIP3   OH247829   5.984   2.055  14.998  0.3756  0.1462 -0.4929
 8805TIP3    H147830   5.896   2.078  15.027  1.6282  3.7120  0.9997
 8805TIP3    H247831   5.993   1.962  15.022 -1.4686  0.7840  3.5607
 8806TIP3   OH247832   3.518   0.805  13.981 -0.5456  0.1198 -0.4341
 8806TIP3    H147833   3.520   0.793  13.886  0.5599 -0.0392 -0.4069
 8806TIP3    H247834   3.495   0.897  13.993 -1.0705  0.0473 -0.8472
 8807TIP3   OH247835   4.717   3.799   0.706  0.1296  0.5318 -0.3780
 8807TIP3    H147836   4.762   3.719   0.681  1.0522  0.9137  0.0137
 8807TIP3    H247837   4.637   3.769   0.749 -0.2270 -0.1472 -1.4837
 8808TIP3   OH247838   0.874   1.236  12.603 -0.0516  0.8081 -0.1726
 8808TIP3    H147839   0.902   1.298  12.671  0.3437  0.2709  0.1598
 8808TIP3    H247840   0.955   1.203  12.565 -0.1946 -0.8671  0.9031
 8809TIP3   OH247841   5.553   6.614  11.487  0.5636  0.2691 -0.1338
 8809TIP3    H147842   5.486   6.592  11.552  0.3251  0.6787 -0.2378
 8809TIP3    H247843   5.623   6.654  11.538  0.4062  0.5268 -0.1181
 8810TIP3   OH247844   2.704   3.765   3.673 -0.0591  0.6986  0.6330
 8810TIP3    H147845   2.659   3.786   3.591  1.5215  2.4790  0.1444
 8810TIP3    H247846   2.688   3.842   3.729 -0.2526 -0.0413  1.6203
 8811TIP3   OH247847   6.531   3.381   2.095  0.2686 -0.3129  0.5984
 8811TIP3    H147848   6.596   3.442   2.130  1.1579 -1.9572  1.9503
 8811TIP3    H247849   6.582   3.321   2.040 -0.5175 -0.1583 -0.3200
 8812TIP3   OH247850   1.688   5.412  11.234  0.2677 -0.3845 -0.5082
 8812TIP3    H147851   1.725   5.349  11.295 -1.0765 -0.4150  0.2957
 8812TIP3    H247852   1.595   5.392  11.231 -0.2497  1.7084 -0.0287
 8813TIP3   OH247853   4.448   1.986   2.492  0.4848  0.3273  0.0018
 8813TIP3    H147854   4.502   1.910   2.510 -1.1556 -0.3345  2.6449
 8813TIP3    H247855   4.506   2.061   2.505  1.4890 -0.3836 -0.2564
 8814TIP3   OH247856   3.379   6.034  15.388 -0.0256  0.2894  0.1541
 8814TIP3    H147857   3.389   6.113  15.335  1.8769  0.4111  0.6464
 8814TIP3    H247858   3.428   5.967  15.340 -1.9469 -0.7744 -0.4822
 8815TIP3   OH247859   0.399   5.522  14.993  0.0245  0.8573 -0.1742
 8815TIP3    H147860   0.456   5.460  15.038 -0.3288  0.0932 -0.7303
 8815TIP3    H247861   0.317   5.520  15.042  0.0256  0.9038 -0.1708
 8816TIP3   OH247862   4.491   6.184   5.941  0.1812  0.2007 -0.0687
 8816TIP3    H147863   4.474   6.160   6.032  1.2501 -0.5827 -0.0560
 8816TIP3    H247864   4.538   6.267   5.946  2.6959 -1.1629  0.2757
 8817TIP3   OH247865   6.722   5.181   4.342 -0.1765 -0.6706  0.5430
 8817TIP3    H147866   6.794   5.140   4.296 -1.9459 -0.6333 -2.5078
 8817TIP3    H247867   6.657   5.112   4.352 -1.4427  0.2889 -0.7415
 8818TIP3   OH247868   5.511   2.216   2.058 -0.6627 -0.0985  0.8378
 8818TIP3    H147869   5.477   2.274   2.126 -0.4509 -0.5534  1.3337
 8818TIP3    H247870   5.569   2.156   2.104  0.1165  0.0937  0.1347
 8819TIP3   OH247871   0.638   2.307  13.004  0.2517  0.5244  0.3479
 8819TIP3    H147872   0.719   2.341  13.044 -0.0615  0.2915  1.2069
 8819TIP3    H247873   0.590   2.386  12.978  0.5942  0.6749  0.1634
 8820TIP3   OH247874   4.909   2.920  11.751 -0.0481  0.1149 -0.1075
 8820TIP3    H147875   4.861   2.983  11.696  0.8063  0.7448 -0.1423
 8820TIP3    H247876   4.904   2.838  11.703 -1.9268 -0.0994  0.3404
 8821TIP3   OH247877   0.070   5.128  12.285  0.4308 -0.2399  0.0466
 8821TIP3    H147878   0.038   5.111  12.374 -1.2334  2.3761  0.0624
 8821TIP3    H247879   0.161   5.155  12.296 -0.2664  1.8382  1.2494
 8822TIP3   OH247880   5.070   0.069  12.478  0.1415 -0.4422  0.5484
 8822TIP3    H147881   5.060   0.071  12.573  1.0258 -0.6055  0.6526
 8822TIP3    H247882   5.035   0.154  12.449 -0.0588 -0.3589  1.0200
 8823TIP3   OH247883   5.733   6.629  17.253 -0.5763  0.6299  0.2245
 8823TIP3    H147884   5.642   6.646  17.277 -0.6301  0.9554 -0.1957
 8823TIP3    H247885   5.784   6.661  17.328 -0.7749  1.0412  0.1899
 8824TIP3   OH247886   0.470   5.442  13.041  0.6800 -0.4142 -0.4159
 8824TIP3    H147887   0.539   5.418  13.102  1.1562  0.2584 -0.6823
 8824TIP3    H247888   0.394   5.459  13.096  0.2576 -2.6215 -0.2072
 8825TIP3   OH247889   3.306   1.537   5.577 -0.0668  0.1677  0.0536
 8825TIP3    H147890   3.296   1.585   5.495  1.1561  1.2443  0.4941
 8825TIP3    H247891   3.329   1.448   5.550  0.2619  0.4948 -0.7740
 8826TIP3   OH247892   1.120   6.223  12.281  1.2792  0.1098 -0.4870
 8826TIP3    H147893   1.072   6.182  12.209 -0.0555 -1.5385  1.2224
 8826TIP3    H247894   1.060   6.216  12.356  2.6062  1.7501  0.7932
 8827TIP3   OH247895   2.476   4.107  11.094  0.1213 -0.9787  0.1563
 8827TIP3    H147896   2.453   4.180  11.037  0.6293 -0.1481  0.9853
 8827TIP3    H247897   2.394   4.059  11.104 -0.3656 -0.1956  0.0482
 8828TIP3   OH247898   3.355   1.725  16.077 -0.3544 -0.2490 -0.1752
 8828TIP3    H147899   3.302   1.793  16.118  0.0985  1.2564 -1.9762
 8828TIP3    H247900   3.432   1.772  16.044 -0.5139 -1.4200 -2.3702
 8829TIP3   OH247901   6.244   3.274   3.291 -0.0126  0.5160 -0.0393
 8829TIP3    H147902   6.159   3.311   3.265  0.9809  1.8845 -1.5108
 8829TIP3    H247903   6.255   3.198   3.234  0.0847  0.7970 -0.4010
 8830TIP3   OH247904   4.628   2.329   1.813  0.4051  0.2451  0.0388
 8830TIP3    H147905   4.690   2.299   1.880 -0.2502  0.8768  0.9648
 8830TIP3    H247906   4.637   2.266   1.742  0.5529 -0.9232  1.0569
 8831TIP3   OH247907   2.791   0.432  11.242 -0.5548  0.3772  0.0211
 8831TIP3    H147908   2.702   0.449  11.211 -1.0984 -1.0705  0.7031
 8831TIP3    H247909   2.780   0.371  11.315  0.8179  2.1352  1.8234
 8832TIP3   OH247910   2.424   5.567  11.659 -0.2069  0.4530  0.0451
 8832TIP3    H147911   2.428   5.644  11.602 -2.0637  0.4602 -0.1578
 8832TIP3    H247912   2.339   5.527  11.638  0.0056 -0.7333  1.3113
 8833TIP3   OH247913   3.095   2.299   3.521 -0.3464  0.0078  0.0035
 8833TIP3    H147914   3.050   2.357   3.582 -1.9061  0.1464 -1.2342
 8833TIP3    H247915   3.026   2.262   3.466  0.9547 -0.3739 -1.4655
 8834TIP3   OH247916   2.365   1.100  10.620 -0.1807  0.0412 -0.2540
 8834TIP3    H147917   2.321   1.144  10.547  0.9651  3.1946  0.7638
 8834TIP3    H247918   2.457   1.099  10.596  0.2658  1.4535  1.1952
 8835TIP3   OH247919   4.051   3.153  14.570  0.3265  0.5367 -0.2194
 8835TIP3    H147920   4.140   3.169  14.539  1.1588 -1.5931  0.8915
 8835TIP3    H247921   4.005   3.117  14.494  1.1241 -0.6187 -0.1765
 8836TIP3   OH247922   4.813   1.470  10.819  0.3463 -0.6084  0.0357
 8836TIP3    H147923   4.878   1.438  10.756  1.6334 -0.0728  1.0309
 8836TIP3    H247924   4.779   1.550  10.780 -1.5116 -2.0863 -1.5920
 8837TIP3   OH247925   2.844   5.357  16.379 -0.6251  0.1363  0.3564
 8837TIP3    H147926   2.753   5.354  16.350 -0.5319 -1.2910  0.1683
 8837TIP3    H247927   2.888   5.410  16.312 -1.1233 -0.0268 -0.1108
 8838TIP3   OH247928   3.748   3.688  17.044  1.0684 -0.1687  0.2411
 8838TIP3    H147929   3.742   3.699  16.949  0.3092  0.9087  0.3998
 8838TIP3    H247930   3.714   3.600  17.061 -0.8316  0.4183 -0.2941
 8839TIP3   OH247931   0.589   2.133  14.179 -0.2582  0.8802 -0.7378
 8839TIP3    H147932   0.647   2.201  14.144 -1.9981  2.4575 -0.7166
 8839TIP3    H247933   0.501   2.171  14.174 -1.1407 -0.8083  0.6737
 8840TIP3   OH247934   4.912   2.716  13.291  0.1871 -0.4412  0.1941
 8840TIP3    H147935   4.964   2.660  13.349 -1.1160  0.0374  1.9482
 8840TIP3    H247936   4.855   2.656  13.244  0.3923 -0.7694  0.3642
 8841TIP3   OH247937   5.247   6.731   2.637  0.0617 -0.5615  0.4502
 8841TIP3    H147938   5.295   6.673   2.696  0.7354 -1.5601 -1.0276
 8841TIP3    H247939   5.306   6.744   2.563 -1.1458 -0.1401 -0.4735
 8842TIP3   OH247940   3.514   1.600  16.840 -0.1259 -0.2462 -0.0311
 8842TIP3    H147941   3.511   1.561  16.928 -0.7829 -1.7187 -0.6653
 8842TIP3    H247942   3.569   1.539  16.790 -0.0104  0.4212 -0.7315
 8843TIP3   OH247943   3.536   0.814   3.256 -0.3695  0.1196  0.2588
 8843TIP3    H147944   3.622   0.811   3.299 -0.1313  2.9554  0.1892
 8843TIP3    H247945   3.518   0.908   3.246 -1.5851 -0.3616 -3.4961
 8844TIP3   OH247946   5.305   2.848  13.759  0.1941  0.1380  0.1608
 8844TIP3    H147947   5.326   2.755  13.749 -0.1351  0.0356  0.4008
 8844TIP3    H247948   5.250   2.852  13.837 -0.0295  0.4972 -0.0123
 8845TIP3   OH247949   5.750   3.099   0.051 -0.2863 -0.3636 -0.5014
 8845TIP3    H147950   5.682   3.049   0.097 -0.3101 -1.5756 -1.7761
 8845TIP3    H247951   5.794   3.148   0.120 -0.5009 -1.8994  0.7922
 8846TIP3   OH247952   4.310   2.804  13.208  0.5048  0.1206  0.2516
 8846TIP3    H147953   4.380   2.783  13.269  0.4831 -1.2913 -0.1729
 8846TIP3    H247954   4.347   2.784  13.122 -0.4184 -0.7107  0.0270
 8847TIP3   OH247955   0.592   2.849   2.712  0.2719  0.1027 -0.0106
 8847TIP3    H147956   0.582   2.893   2.796 -1.2394  0.4762 -0.3406
 8847TIP3    H247957   0.524   2.889   2.657  0.2862 -1.1350 -0.9612
 8848TIP3   OH247958   0.839   4.572  12.286 -0.5844 -0.0311  0.3279
 8848TIP3    H147959   0.918   4.566  12.232 -1.1309  0.7222 -0.5886
 8848TIP3    H247960   0.862   4.633  12.355 -0.2492 -0.1037  0.2845
 8849TIP3   OH247961   1.264   4.916   2.026 -0.2402 -0.1902 -0.2207
 8849TIP3    H147962   1.339   4.974   2.042  1.2485 -2.6111  2.3796
 8849TIP3    H247963   1.187   4.972   2.042  1.0477  1.6481 -0.1607
 8850TIP3   OH247964   0.165   5.554  11.472  0.7199 -0.8049  0.6319
 8850TIP3    H147965   0.190   5.463  11.460 -0.8399 -0.9919 -2.0665
 8850TIP3    H247966   0.071   5.556  11.457  0.9138  1.4032 -0.9576
 8851TIP3   OH247967   5.327   3.442  13.520 -0.0926  0.3464 -0.0427
 8851TIP3    H147968   5.407   3.486  13.548 -0.1722  1.3062 -1.2533
 8851TIP3    H247969   5.343   3.418  13.429 -0.2769 -1.6459  0.4127
 8852TIP3   OH247970   5.315   2.683   0.139 -0.0655 -0.3159  0.5138
 8852TIP3    H147971   5.289   2.774   0.147 -0.5376 -0.4424  0.4620
 8852TIP3    H247972   5.411   2.685   0.134 -0.0947  0.1963  0.1489
 8853TIP3   OH247973   0.352   0.658  12.656 -0.2844  0.0656  0.1906
 8853TIP3    H147974   0.428   0.716  12.657  0.3026 -0.6464 -0.9302
 8853TIP3    H247975   0.289   0.702  12.598 -0.0905 -0.1091 -0.1545
 8854TIP3   OH247976   0.974   4.148  16.567  0.7570  0.0494  0.0921
 8854TIP3    H147977   0.908   4.158  16.498  1.0320 -3.7094 -0.9689
 8854TIP3    H247978   0.923   4.149  16.649  0.0303  1.5579 -0.3359
 8855TIP3   OH247979   3.342   0.775   2.560 -0.2008  0.2867 -0.3022
 8855TIP3    H147980   3.433   0.772   2.590 -0.5469  0.1443  0.7669
 8855TIP3    H247981   3.310   0.860   2.590 -0.1412  0.7636 -1.5500
 8856TIP3   OH247982   6.044   1.740  11.902  0.3360 -0.4282  0.1782
 8856TIP3    H147983   5.964   1.719  11.853  0.9160 -1.3697 -0.3802
 8856TIP3    H247984   6.012   1.766  11.989 -0.5966 -0.4268 -0.1487
 8857TIP3   OH247985   6.322   6.321  11.685  0.0624 -0.6101  0.3139
 8857TIP3    H147986   6.390   6.299  11.749  0.6782 -0.9882 -0.4524
 8857TIP3    H247987   6.338   6.413  11.664  0.3045 -0.6820  0.1784
 8858TIP3   OH247988   1.030   1.189  15.043  0.0390 -0.2971 -0.1292
 8858TIP3    H147989   1.069   1.266  15.003 -0.4408  0.3712  0.6615
 8858TIP3    H247990   1.020   1.127  14.970 -1.0656  0.9835 -1.1219
 8859TIP3   OH247991   0.899   1.468  11.945 -0.5820  0.4800 -0.5542
 8859TIP3    H147992   0.913   1.377  11.970 -0.4569  0.6412 -0.0186
 8859TIP3    H247993   0.971   1.489  11.886 -0.1597  0.4725 -0.0410
 8860TIP3   OH247994   0.984   2.433  12.896 -0.2884 -0.7715 -0.4857
 8860TIP3    H147995   0.960   2.444  12.988 -0.3261 -1.1453 -0.4516
 8860TIP3    H247996   0.937   2.504  12.851  0.5682  0.0666 -0.0861
 8861TIP3   OH247997   1.541   1.908  17.056  0.5110  0.2402  0.3555
 8861TIP3    H147998   1.486   1.986  17.061  0.4722  0.2262  0.1645
 8861TIP3    H247999   1.611   1.932  16.995  0.7300  0.2657  0.6146
 8862TIP3   OH248000   6.544   0.935  14.005 -0.0980 -0.0831  0.3618
 8862TIP3    H148001   6.519   1.027  14.000 -2.3047 -0.6916 -1.2408
 8862TIP3    H248002   6.607   0.924  13.933  0.4760  0.2212  0.8047
 8863TIP3   OH248003   2.259   6.488   4.972  0.5283 -0.0486 -0.6196
 8863TIP3    H148004   2.271   6.418   5.036  0.5898 -0.6542 -1.2811
 8863TIP3    H248005   2.185   6.539   5.006  1.4105  0.4563  0.6295
 8864TIP3   OH248006   4.459   4.166   4.116  0.8110  0.1774  0.9273
 8864TIP3    H148007   4.509   4.102   4.065 -3.5681 -0.0012 -4.0673
 8864TIP3    H248008   4.509   4.247   4.108  0.9269 -0.0555 -3.3640
 8865TIP3   OH248009   6.605   1.801   1.847 -0.4303 -0.3630  0.2911
 8865TIP3    H148010   6.655   1.831   1.771  1.3067 -0.9875  1.1407
 8865TIP3    H248011   6.547   1.875   1.868  2.5935  1.9409  1.3474
 8866TIP3   OH248012   2.730   5.942  12.300  0.1004  0.1716  0.7150
 8866TIP3    H148013   2.667   5.905  12.237  1.4834 -1.9327  0.4688
 8866TIP3    H248014   2.731   5.879  12.372  0.6343  1.0980  1.5295
 8867TIP3   OH248015   2.976   4.549   2.382  0.5628  0.5337 -0.1176
 8867TIP3    H148016   3.014   4.466   2.354 -0.0170  0.2779 -0.1517
 8867TIP3    H248017   2.915   4.573   2.313 -1.8615 -0.7541  1.4427
 8868TIP3   OH248018   2.289   2.160  12.094 -0.2009  0.3657  0.1875
 8868TIP3    H148019   2.315   2.119  12.012  0.2803  1.1598 -0.0679
 8868TIP3    H248020   2.372   2.182  12.137 -0.4050 -1.3349  1.5796
 8869TIP3   OH248021   0.382   5.837   5.561 -0.6067  0.4190  0.2139
 8869TIP3    H148022   0.331   5.872   5.488  1.0235 -2.6075 -2.6421
 8869TIP3    H248023   0.319   5.785   5.612 -0.9904 -1.0748 -1.6915
 8870TIP3   OH248024   0.277   2.141  11.508 -0.0895  0.4315 -0.0774
 8870TIP3    H148025   0.275   2.154  11.413  0.0919 -0.6926 -0.2417
 8870TIP3    H248026   0.369   2.154  11.532  0.1181 -0.5943 -0.2630
 8871TIP3   OH248027   1.611   5.412  17.133  0.5246 -0.1398 -0.1766
 8871TIP3    H148028   1.614   5.496  17.087  4.5766 -0.8447 -1.5904
 8871TIP3    H248029   1.617   5.435  17.225  0.9248  1.1479 -0.5050
 8872TIP3   OH248030   2.810   1.363  11.011  0.6443 -1.0258 -0.3337
 8872TIP3    H148031   2.737   1.424  11.008  1.1634 -0.3372  0.5022
 8872TIP3    H248032   2.888   1.419  11.018  1.2621 -1.7429 -1.2102
 8873TIP3   OH248033   3.312   4.018  16.267  0.9738 -0.2884  0.5091
 8873TIP3    H148034   3.319   3.924  16.247  2.2617 -0.3556  1.1911
 8873TIP3    H248035   3.296   4.059  16.182 -0.3477 -1.1774  0.3015
 8874TIP3   OH248036   3.672   2.137  12.225 -0.3064 -0.2656  0.2309
 8874TIP3    H148037   3.711   2.190  12.295 -0.7782  0.3266  0.0536
 8874TIP3    H248038   3.732   2.063  12.215 -0.1741 -0.2998  1.1823
 8875TIP3   OH248039   0.662   2.388   5.256 -0.7651  0.9313  0.1783
 8875TIP3    H148040   0.683   2.309   5.204  0.4496  1.0942  0.4057
 8875TIP3    H248041   0.588   2.427   5.210 -0.6310  0.2815 -0.6170
 8876TIP3   OH248042   5.457   6.222  17.170 -0.1844  0.0193 -0.7968
 8876TIP3    H148043   5.437   6.311  17.201  0.9149  0.0630 -0.1719
 8876TIP3    H248044   5.409   6.215  17.087  0.7784  1.7064 -1.5594
 8877TIP3   OH248045   4.638   0.817   5.900 -0.1420  0.2594  0.2774
 8877TIP3    H148046   4.730   0.839   5.911  0.1014 -0.6249  0.1279
 8877TIP3    H248047   4.591   0.875   5.960  0.6541 -0.5009  1.6691
 8878TIP3   OH248048   6.642   5.102  15.671 -0.8372 -0.1777 -0.1445
 8878TIP3    H148049   6.624   5.025  15.617  0.8983 -0.3778 -0.5048
 8878TIP3    H248050   6.699   5.068  15.741  0.6702  0.9204 -0.7993
 8879TIP3   OH248051   5.331   3.788  11.797 -0.0862  0.2778 -0.3603
 8879TIP3    H148052   5.345   3.738  11.877 -0.8403  1.4467  0.5418
 8879TIP3    H248053   5.417   3.822  11.774  0.1538 -0.1595 -0.1182
 8880TIP3   OH248054   0.172   3.678   6.643 -0.4848  0.7749  0.3255
 8880TIP3    H148055   0.216   3.595   6.623 -2.5427 -0.0536 -1.0219
 8880TIP3    H248056   0.215   3.742   6.587  1.1923  0.6969  1.4470
 8881TIP3   OH248057   6.496   2.925  11.043 -0.2204  0.2677 -0.0297
 8881TIP3    H148058   6.476   3.014  11.070 -0.7892  0.0492  0.2803
 8881TIP3    H248059   6.498   2.875  11.124 -0.2605 -0.0701 -0.2352
 8882TIP3   OH248060   4.353   0.470   5.049  0.1935 -0.1061 -0.3523
 8882TIP3    H148061   4.302   0.431   5.121 -0.1145  0.5847 -0.1917
 8882TIP3    H248062   4.444   0.446   5.069 -0.1282 -2.4395 -1.3108
 8883TIP3   OH248063   4.124   1.077  15.227  0.0333 -0.0170  0.1282
 8883TIP3    H148064   4.135   1.152  15.286 -0.9902  0.1458  0.1153
 8883TIP3    H248065   4.030   1.073  15.210  0.1518 -0.9439 -0.3502
 8884TIP3   OH248066   4.772   6.691   3.394  0.2644  0.0757 -0.1456
 8884TIP3    H148067   4.730   6.636   3.328 -0.6973  0.0831  0.4420
 8884TIP3    H248068   4.700   6.720   3.451  1.0227  0.3635  0.6934
 8885TIP3   OH248069   4.038   6.390   3.014 -0.0054  0.4365 -0.4700
 8885TIP3    H148070   4.098   6.456   3.051  1.1931 -2.0111  2.3630
 8885TIP3    H248071   3.976   6.373   3.085 -0.0219 -1.7286 -0.9602
 8886TIP3   OH248072   0.708   3.061   5.469 -0.2929  0.2629  0.3026
 8886TIP3    H148073   0.612   3.060   5.462 -0.2514  0.5095 -0.4829
 8886TIP3    H248074   0.734   3.142   5.424  0.2594  0.4141  0.8881
 8887TIP3   OH248075   2.041   6.485   2.515 -0.2467  0.1977 -0.0605
 8887TIP3    H148076   2.097   6.511   2.588  1.5716 -1.7855 -0.6501
 8887TIP3    H248077   1.971   6.434   2.555  0.8696 -1.0730  0.3289
 8888TIP3   OH248078   2.358   3.869  17.392 -0.7927  0.5120 -0.1469
 8888TIP3    H148079   2.344   3.892  17.484  2.0499 -0.5159  0.6228
 8888TIP3    H248080   2.369   3.954  17.349  1.4309  0.9799  1.1753
 8889TIP3   OH248081   5.194   3.216   0.532 -0.4855  0.4139  0.2382
 8889TIP3    H148082   5.129   3.285   0.547  1.3655  2.0876  1.0037
 8889TIP3    H248083   5.181   3.189   0.441 -0.7946  2.3012 -0.3048
 8890TIP3   OH248084   4.073   5.153   4.200 -0.1396 -0.5247 -0.3577
 8890TIP3    H148085   4.009   5.161   4.130 -0.5615  0.0557  0.0818
 8890TIP3    H248086   4.037   5.206   4.272  0.9755  0.0576 -0.2025
 8891TIP3   OH248087   2.630   4.263   3.609 -0.8885  0.5311 -0.2492
 8891TIP3    H148088   2.658   4.315   3.533  2.1413  1.6397  1.4344
 8891TIP3    H248089   2.637   4.172   3.580 -1.2803  0.9501 -1.7294
 8892TIP3   OH248090   6.552   0.601  12.360  0.0852 -0.1015  0.0070
 8892TIP3    H148091   6.616   0.620  12.292 -2.5145 -0.4364 -2.7586
 8892TIP3    H248092   6.545   0.506  12.361  0.5354 -0.1374  1.2429
 8893TIP3   OH248093   5.683   0.933   0.239  1.1004 -0.2473  0.1135
 8893TIP3    H148094   5.640   0.862   0.192 -2.4695  1.3550  0.6486
 8893TIP3    H248095   5.697   0.899   0.328  2.9080 -1.4491 -0.5786
 8894TIP3   OH248096   4.979   0.497  13.802 -0.3825  0.9237 -0.0396
 8894TIP3    H148097   5.054   0.529  13.852 -1.6225  0.6050  2.1400
 8894TIP3    H248098   4.948   0.421  13.851 -0.2236 -0.9542 -2.6578
 8895TIP3   OH248099   6.361   4.509   5.530 -0.0164 -0.1036  0.2283
 8895TIP3    H148100   6.454   4.509   5.555 -0.2995  1.2112  1.3459
 8895TIP3    H248101   6.316   4.474   5.606 -0.6130  0.9817  0.3768
 8896TIP3   OH248102   1.270   1.002  11.503  0.0759  0.5751 -0.3025
 8896TIP3    H148103   1.287   1.015  11.597 -1.7032 -0.6177  0.2393
 8896TIP3    H248104   1.176   0.984  11.498  0.6936 -3.2248 -1.8228
 8897TIP3   OH248105   5.332   1.108  10.798  0.0455  0.1183 -0.3572
 8897TIP3    H148106   5.269   1.114  10.725 -1.1327 -0.6951  0.5529
 8897TIP3    H248107   5.279   1.079  10.872  1.2705  0.7044  0.7771
 8898TIP3   OH248108   2.453   6.005   2.339 -0.4105 -0.3641  0.7501
 8898TIP3    H148109   2.545   5.985   2.322 -0.1394  0.7970  0.7934
 8898TIP3    H248110   2.446   6.100   2.328 -2.1258 -0.6787 -1.8361
 8899TIP3   OH248111   6.251   6.507   0.783 -0.0128 -0.2268  0.0361
 8899TIP3    H148112   6.222   6.449   0.713  0.3639 -0.2262 -0.1237
 8899TIP3    H248113   6.249   6.453   0.862  1.3383 -0.7597 -0.2814
 8900TIP3   OH248114   5.425   5.898  16.035  0.8495  0.7806  0.0514
 8900TIP3    H148115   5.336   5.924  16.015 -0.6593 -1.9798  2.4151
 8900TIP3    H248116   5.429   5.805  16.012  2.5782  0.4321  1.4688
 8901TIP3   OH248117   4.704   0.731   4.935  0.0234  0.9808 -0.0930
 8901TIP3    H148118   4.679   0.709   5.025  1.5701 -0.4402  0.0406
 8901TIP3    H248119   4.735   0.648   4.898 -0.8369  1.4706 -2.0546
 8902TIP3   OH248120   0.351   4.303   2.212  0.3535 -0.0460  0.0893
 8902TIP3    H148121   0.305   4.381   2.181 -0.3138 -0.4671  0.0062
 8902TIP3    H248122   0.432   4.302   2.162  0.5068  0.7509  0.2992
 8903TIP3   OH248123   1.222   5.715  12.558 -0.3889 -0.4772  0.7204
 8903TIP3    H148124   1.269   5.661  12.493 -1.3610 -1.5293  0.8603
 8903TIP3    H248125   1.292   5.755  12.610  0.4179  0.2413 -0.8380
 8904TIP3   OH248126   4.375   3.120   3.514 -0.7821  0.3613  0.3703
 8904TIP3    H148127   4.374   3.034   3.556 -1.0106  0.6857  1.0427
 8904TIP3    H248128   4.284   3.138   3.494 -0.6597  0.1397 -0.4302
 8905TIP3   OH248129   0.633   2.631   5.566  0.3833 -0.5825 -0.3332
 8905TIP3    H148130   0.713   2.681   5.550 -0.4650  0.7010 -0.7719
 8905TIP3    H248131   0.572   2.661   5.499 -1.2489  0.3046  1.4260
 8906TIP3   OH248132   3.993   3.255  16.498  0.0713 -0.3990 -0.0712
 8906TIP3    H148133   4.051   3.200  16.446  0.6519 -1.0684  1.2277
 8906TIP3    H248134   3.910   3.256  16.450  0.7137 -0.6437 -1.1989
 8907TIP3   OH248135   2.846   2.748   1.556 -0.4697 -0.4102 -0.4572
 8907TIP3    H148136   2.822   2.718   1.468  0.4059 -0.7647 -0.5860
 8907TIP3    H248137   2.800   2.687   1.614  1.7713 -2.4926 -0.7247
 8908TIP3   OH248138   2.452   0.729   5.010 -0.0959  0.2692 -0.1628
 8908TIP3    H148139   2.547   0.740   5.014 -0.0737  0.0378 -0.0304
 8908TIP3    H248140   2.426   0.712   5.101 -0.1002 -0.9830 -0.3917
 8909TIP3   OH248141   0.075   3.265  11.428 -0.2219 -0.4561  0.5403
 8909TIP3    H148142  -0.004   3.278  11.480 -0.8936 -1.3832 -0.2150
 8909TIP3    H248143   0.044   3.263  11.338  0.5524 -1.5488  0.2813
 8910TIP3   OH248144   4.317   6.398   4.078  0.6837  0.0612  0.2381
 8910TIP3    H148145   4.388   6.380   4.016 -0.2603 -0.9024 -0.6215
 8910TIP3    H248146   4.326   6.331   4.145  0.6377 -0.0198  0.1645
 8911TIP3   OH248147   5.532   4.098  17.394 -0.0779 -0.3223  0.0246
 8911TIP3    H148148   5.517   4.097  17.299 -3.4441  0.2218  0.4215
 8911TIP3    H248149   5.499   4.183  17.422 -1.3490 -1.3512  1.9028
 8912TIP3   OH248150   4.291   5.892   5.095 -0.2137  0.0846 -0.0324
 8912TIP3    H148151   4.262   5.981   5.114 -1.3138 -0.6471  2.2177
 8912TIP3    H248152   4.211   5.846   5.069  0.2215 -0.3850 -0.5707
 8913TIP3   OH248153   3.993   2.556  13.378 -0.2863  0.1429  0.6399
 8913TIP3    H148154   4.057   2.512  13.434 -1.0851 -1.8353  0.0873
 8913TIP3    H248155   3.909   2.519  13.403 -0.6842 -0.7354 -1.7139
 8914TIP3   OH248156   0.755   1.797   4.393 -0.0489 -0.5100 -0.4332
 8914TIP3    H148157   0.794   1.845   4.466 -0.6510 -0.5421 -0.0858
 8914TIP3    H248158   0.764   1.857   4.318 -0.0731 -0.1839 -0.1777
 8915TIP3   OH248159   5.294   6.456   3.557  0.0942 -0.1752  0.9830
 8915TIP3    H148160   5.264   6.397   3.627  1.5106 -0.5532  1.2927
 8915TIP3    H248161   5.381   6.483   3.585  0.3476  0.3128 -0.2570
 8916TIP3   OH248162   1.990   5.156   4.874  0.2026  0.1672  0.1618
 8916TIP3    H148163   2.050   5.137   4.801  0.2200 -0.3408  0.3082
 8916TIP3    H248164   1.962   5.070   4.905  0.0941  0.3858  0.6758
 8917TIP3   OH248165   4.409   0.534   4.465 -0.2170  0.1354  0.7043
 8917TIP3    H148166   4.438   0.521   4.556 -1.3021  1.5064  1.2799
 8917TIP3    H248167   4.323   0.493   4.461 -0.7039  1.1336  0.6542
 8918TIP3   OH248168   3.703   5.211   4.125  0.2007  0.2173  0.0287
 8918TIP3    H148169   3.776   5.174   4.075 -1.2397 -1.2604 -1.1046
 8918TIP3    H248170   3.689   5.149   4.196 -0.4519  0.0496 -0.2395
 8919TIP3   OH248171   5.933   0.664  16.043  0.2040  0.0934  0.2706
 8919TIP3    H148172   5.959   0.709  16.123  0.5001 -0.7486  0.6597
 8919TIP3    H248173   5.838   0.668  16.042  0.2284  3.0431 -1.0686
 8920TIP3   OH248174   6.337   5.260   0.639 -0.0624  0.3171 -0.8567
 8920TIP3    H148175   6.374   5.183   0.597  0.6003  0.8481 -1.2651
 8920TIP3    H248176   6.311   5.318   0.567  0.4459  0.9365 -0.5569
 8921TIP3   OH248177   1.841   5.537  16.097 -0.0568 -0.4321  0.0202
 8921TIP3    H148178   1.832   5.610  16.158 -1.0656 -1.7087  1.4527
 8921TIP3    H248179   1.922   5.555  16.050 -0.0366  1.3500  0.6735
 8922TIP3   OH248180   1.036   5.156  13.754 -0.1883  0.5640 -0.2638
 8922TIP3    H148181   1.077   5.234  13.715  0.7157  2.3633  3.7936
 8922TIP3    H248182   1.097   5.129  13.823 -2.7407 -0.7533  1.6406
 8923TIP3   OH248183   2.323   5.745  12.655  0.0639 -0.3274  0.0277
 8923TIP3    H148184   2.263   5.681  12.692  0.9652 -1.1049  0.1910
 8923TIP3    H248185   2.338   5.808  12.726 -0.5302 -0.1433 -0.0082
 8924TIP3   OH248186   6.479   2.989  15.455 -0.4665 -0.5098  0.2172
 8924TIP3    H148187   6.425   3.049  15.402  0.4690 -0.1931 -0.4082
 8924TIP3    H248188   6.472   3.023  15.544 -1.0640 -0.3006  0.0942
 8925TIP3   OH248189   4.612   3.156  14.448  0.2939  0.0978 -0.4431
 8925TIP3    H148190   4.588   3.235  14.498 -0.8257 -0.9957  0.8346
 8925TIP3    H248191   4.574   3.171  14.361  0.8656  1.3376 -0.5076
 8926TIP3   OH248192   5.124   1.383  12.994 -0.2156  0.4370 -0.2081
 8926TIP3    H148193   5.048   1.325  13.002  1.2361 -1.3954  1.4416
 8926TIP3    H248194   5.098   1.462  13.042 -0.9300 -0.3479  0.7507
 8927TIP3   OH248195   0.257   3.902  14.702 -0.0823 -0.0542  0.1615
 8927TIP3    H148196   0.307   3.915  14.621 -1.6459 -1.4007 -1.0960
 8927TIP3    H248197   0.195   3.975  14.704 -0.2519 -0.1892 -0.0448
 8928TIP3   OH248198   3.879   6.588  14.819 -0.3301  0.3206 -0.0400
 8928TIP3    H148199   3.894   6.574  14.912 -0.1547 -2.1856 -0.3578
 8928TIP3    H248200   3.964   6.614  14.784  0.3130 -1.4060  0.1277
 8929TIP3   OH248201   0.744   1.408   3.782 -0.2316  0.2721 -0.1745
 8929TIP3    H148202   0.688   1.481   3.806  1.0096  1.4257 -0.6452
 8929TIP3    H248203   0.833   1.444   3.783  0.5562 -1.5215  0.7368
 8930TIP3   OH248204   4.753   2.193   3.354 -0.2098 -0.2067  0.6472
 8930TIP3    H148205   4.761   2.213   3.261 -0.5362 -0.8933  0.4662
 8930TIP3    H248206   4.835   2.151   3.377 -0.7608 -1.5164  0.2782
 8931TIP3   OH248207   3.361   5.210   0.651  0.1297  0.5123 -0.4977
 8931TIP3    H148208   3.303   5.135   0.654 -1.2788  1.5574 -0.6265
 8931TIP3    H248209   3.418   5.201   0.727 -0.4147 -0.3631 -0.1918
 8932TIP3   OH248210   4.203   6.359  13.730 -0.2830 -0.1376  0.5489
 8932TIP3    H148211   4.165   6.445  13.751 -1.4437 -0.7699  1.1777
 8932TIP3    H248212   4.247   6.333  13.811  2.1211  0.8542 -0.3568
 8933TIP3   OH248213   5.901   2.065  14.040  1.1257  0.1943  0.3954
 8933TIP3    H148214   5.898   2.127  14.113  0.0266  1.3340 -0.5659
 8933TIP3    H248215   5.840   1.996  14.064 -0.6662  1.5093 -0.2259
 8934TIP3   OH248216   2.149   5.044  10.812  0.0957  0.9185  0.1292
 8934TIP3    H148217   2.194   4.964  10.786  2.7331  1.9639  1.0727
 8934TIP3    H248218   2.071   5.047  10.757 -0.3042 -2.4105  0.2910
 8935TIP3   OH248219   0.641   1.771  14.605 -0.1122  0.1631 -0.4864
 8935TIP3    H148220   0.708   1.740  14.665 -0.7401 -0.9468 -0.3469
 8935TIP3    H248221   0.679   1.850  14.566  1.3599 -0.5563 -0.5690
 8936TIP3   OH248222   2.035   4.018  15.473  0.0043  0.6684 -0.1108
 8936TIP3    H148223   1.941   4.009  15.486 -0.0402 -0.2112 -1.0058
 8936TIP3    H248224   2.044   4.066  15.391  0.3346 -0.8574 -0.9952
 8937TIP3   OH248225   5.884   4.813  14.143 -0.6364 -0.7354 -0.0587
 8937TIP3    H148226   5.802   4.854  14.172 -1.4813 -1.2446 -1.6243
 8937TIP3    H248227   5.893   4.839  14.051  1.1621 -0.4026  0.1810
 8938TIP3   OH248228   2.903   1.781   0.020  0.0390 -0.0384 -0.2804
 8938TIP3    H148229   2.827   1.799   0.075  0.6624 -0.1351  0.6258
 8938TIP3    H248230   2.977   1.776   0.081  0.7569 -0.0711 -1.1293
 8939TIP3   OH248231   2.123   5.702  12.124 -0.2432  0.1175 -0.6351
 8939TIP3    H148232   2.186   5.673  12.058  1.3699  0.8042  0.5397
 8939TIP3    H248233   2.039   5.702  12.078  0.4507 -1.5912 -2.0369
 8940TIP3   OH248234   6.749   4.268   6.316  0.1454 -0.1863 -0.7179
 8940TIP3    H148235   6.780   4.179   6.301  0.3533  0.0186 -1.5264
 8940TIP3    H248236   6.826   4.315   6.348 -0.4086 -0.7402  1.6090
 8941TIP3   OH248237   3.923   4.672   6.315  0.0320  0.7203  0.2816
 8941TIP3    H148238   3.840   4.690   6.361 -0.0445  0.0289  0.4199
 8941TIP3    H248239   3.990   4.686   6.381 -0.0211  0.5622  0.3685
 8942TIP3   OH248240   3.406   2.801   6.829  0.1694 -0.0666  0.1343
 8942TIP3    H148241   3.378   2.766   6.744 -0.7788  0.3826  0.2446
 8942TIP3    H248242   3.500   2.815   6.820  0.3618 -1.5417 -0.2949
 8943TIP3   OH248243   5.136   3.290   5.922  0.7170  0.2654 -0.2343
 8943TIP3    H148244   5.131   3.326   5.833  0.3723  2.0350  0.4614
 8943TIP3    H248245   5.068   3.223   5.924 -1.1447  2.0480 -0.5512
 8944TIP3   OH248246   6.023   0.682  15.716 -0.2149  0.0003  0.3897
 8944TIP3    H148247   5.937   0.668  15.755 -0.9981 -3.9728 -2.0840
 8944TIP3    H248248   6.005   0.732  15.636  0.5186  2.8525  1.8971
 8945TIP3   OH248249   5.055   6.231   2.011 -0.1382  0.0163 -0.5067
 8945TIP3    H148250   5.133   6.198   1.966 -0.2625 -0.2210 -0.5533
 8945TIP3    H248251   4.985   6.171   1.984 -0.2132 -0.1344  0.0155
 8946TIP3   OH248252   1.088   0.528  13.316 -0.0337  0.1265 -0.1300
 8946TIP3    H148253   1.017   0.590  13.335  0.1267  0.2397  0.1088
 8946TIP3    H248254   1.078   0.508  13.223  0.4440  1.1934 -0.4250
 8947TIP3   OH248255   5.243   5.998   2.726 -1.1545  0.5729 -0.0346
 8947TIP3    H148256   5.264   5.907   2.746 -1.0369  0.7005  0.4569
 8947TIP3    H248257   5.154   6.010   2.761 -0.2915  1.2861  2.1103
 8948TIP3   OH248258   3.289   4.898   4.439 -0.0459  0.1455 -0.7102
 8948TIP3    H148259   3.219   4.963   4.441  0.8581  1.1622 -1.1446
 8948TIP3    H248260   3.278   4.854   4.355 -1.6925 -1.4861  0.2836
 8949TIP3   OH248261   6.620   2.754  15.526  0.0845  0.3401  0.3044
 8949TIP3    H148262   6.580   2.763  15.613  0.2418  1.0575  0.3063
 8949TIP3    H248263   6.595   2.834  15.480 -3.2585 -1.5907 -1.6844
 8950TIP3   OH248264   1.588   4.122  15.364 -0.2140  0.0325  0.5677
 8950TIP3    H148265   1.548   4.181  15.300 -1.6499 -0.5207  0.9326
 8950TIP3    H248266   1.572   4.034  15.330 -0.0981 -0.2285  1.1735
 8951TIP3   OH248267   1.339   2.286  15.725  0.0241 -0.6460  0.3505
 8951TIP3    H148268   1.367   2.292  15.634 -1.8428  0.2926 -0.2271
 8951TIP3    H248269   1.344   2.192  15.746 -0.1822 -0.9668 -0.9525
 8952TIP3   OH248270   5.995   0.687  12.399 -0.1215 -0.6289 -0.3735
 8952TIP3    H148271   6.076   0.709  12.445 -0.5279 -1.2352  0.6837
 8952TIP3    H248272   5.943   0.767  12.401 -0.1035 -0.6262  0.1878
 8953TIP3   OH248273   4.199   1.669  15.046  0.2605  0.1116  1.0034
 8953TIP3    H148274   4.215   1.594  14.988 -0.6566  0.3617  0.4073
 8953TIP3    H248275   4.109   1.695  15.028  0.5438  1.3341  1.2511
 8954TIP3   OH248276   6.037   5.617   4.491 -0.0975  0.3023 -0.8157
 8954TIP3    H148277   6.087   5.653   4.417 -0.3717  0.2683 -1.0220
 8954TIP3    H248278   6.094   5.550   4.529  0.9132  1.7362  0.3048
 8955TIP3   OH248279   2.455   2.190  14.365  0.2992  0.3403  0.1053
 8955TIP3    H148280   2.373   2.139  14.370  0.4957 -0.0318 -0.3620
 8955TIP3    H248281   2.427   2.280  14.378  0.0467  0.0560  1.7747
 8956TIP3   OH248282   3.651   5.399   5.393  0.0435 -0.2724 -0.1042
 8956TIP3    H148283   3.676   5.353   5.313 -0.6169  0.0012 -0.4765
 8956TIP3    H248284   3.644   5.330   5.460  0.6481 -0.4923 -0.2680
 8957TIP3   OH248285   2.945   4.989   3.913 -0.0647  0.9146 -0.4385
 8957TIP3    H148286   2.975   4.918   3.970 -0.8054  0.4293 -0.6476
 8957TIP3    H248287   2.901   5.050   3.971 -0.0274  0.8648 -0.3582
 8958TIP3   OH248288   4.154   4.219  14.890  0.2398 -0.1055  0.2838
 8958TIP3    H148289   4.137   4.308  14.857 -0.6021  0.1795  1.4360
 8958TIP3    H248290   4.248   4.219  14.909  0.3437  0.3782 -0.1825
 8959TIP3   OH248291   0.353   4.868   1.473  0.4501 -0.1961  0.1531
 8959TIP3    H148292   0.342   4.782   1.434 -0.9751 -0.0097  0.0885
 8959TIP3    H248293   0.440   4.896   1.445  0.1956 -0.8278 -1.3988
 8960TIP3   OH248294   4.650   0.110  14.108 -1.0961 -0.0956 -0.2524
 8960TIP3    H148295   4.590   0.113  14.034 -0.9941 -0.2324 -0.3417
 8960TIP3    H248296   4.679   0.201  14.119 -0.7709 -0.1459 -0.6635
 8961TIP3   OH248297   4.087   3.291   1.468  0.0655 -0.3496  0.0683
 8961TIP3    H148298   4.024   3.245   1.523  0.9425 -0.2847  1.1732
 8961TIP3    H248299   4.104   3.231   1.395 -0.1426 -1.0033  0.5509
 8962TIP3   OH248300   6.064   1.109   2.085 -0.4186  0.3141  0.3364
 8962TIP3    H148301   6.015   1.034   2.050 -0.9567  0.7517  0.1522
 8962TIP3    H248302   6.013   1.185   2.060  0.6941  0.8342 -0.4456
 8963TIP3   OH248303   6.549   4.642   1.291  0.4316 -0.6679 -0.3973
 8963TIP3    H148304   6.538   4.555   1.253 -0.7580 -0.2376 -1.1104
 8963TIP3    H248305   6.532   4.630   1.385 -1.1405 -0.9861 -0.6922
 8964TIP3   OH248306   5.829   2.498  15.123 -0.6121 -0.4993 -0.8499
 8964TIP3    H148307   5.808   2.442  15.198  1.3018  1.4275  1.2752
 8964TIP3    H248308   5.767   2.571  15.130  0.8977  0.7333  0.1678
 8965TIP3   OH248309   0.724   3.375   1.521 -0.6328  0.3626  0.2519
 8965TIP3    H148310   0.725   3.451   1.578  0.4597  0.4364  0.1532
 8965TIP3    H248311   0.685   3.407   1.439 -0.0175  0.8687  0.1476
 8966TIP3   OH248312   4.868   6.731  16.178  0.3605  0.0840 -0.1316
 8966TIP3    H148313   4.892   6.674  16.252 -0.7098  2.4964  2.1976
 8966TIP3    H248314   4.784   6.697  16.149  0.1374 -0.0738  0.6582
 8967TIP3   OH248315   1.127   0.296  14.223 -0.4070 -0.2312  0.1073
 8967TIP3    H148316   1.187   0.222  14.208  0.2349  0.2503  0.2392
 8967TIP3    H248317   1.055   0.282  14.162 -0.9767 -1.6909  1.0726
 8968TIP3   OH248318   2.543   5.361  11.391 -0.4654  0.0879  0.4493
 8968TIP3    H148319   2.534   5.333  11.482 -0.4002 -0.7601  0.2072
 8968TIP3    H248320   2.471   5.317  11.345 -0.0717 -0.0729 -0.0275
 8969TIP3   OH248321   1.412   4.823   2.993 -0.3591  0.1050 -0.4123
 8969TIP3    H148322   1.349   4.796   3.058 -1.5040 -0.9860 -1.9002
 8969TIP3    H248323   1.421   4.747   2.935  2.5672  0.0890 -0.1072
 8970TIP3   OH248324   0.475   1.137   2.480 -0.3920 -0.1101  0.8219
 8970TIP3    H148325   0.402   1.185   2.519 -0.1125  0.2606  0.8940
 8970TIP3    H248326   0.509   1.083   2.552  0.7698  1.3342  1.4015
 8971TIP3   OH248327   0.032   4.334   2.356 -0.5105 -0.1091 -0.0863
 8971TIP3    H148328   0.029   4.315   2.450  1.1339  0.9155  0.2028
 8971TIP3    H248329   0.069   4.255   2.317  0.1530  0.0013  0.3098
 8972TIP3   OH248330   4.683   5.963   2.452  0.2931  0.7421 -0.2560
 8972TIP3    H148331   4.641   5.942   2.535 -0.3422  1.4556 -0.3945
 8972TIP3    H248332   4.772   5.927   2.461 -0.0693 -0.0289  0.3566
 8973TIP3   OH248333   6.435   2.337   1.403 -0.4496  0.0725 -0.0264
 8973TIP3    H148334   6.397   2.296   1.481  1.6328  0.6133  1.3697
 8973TIP3    H248335   6.417   2.430   1.414 -1.5379 -0.0019 -1.0451
 8974TIP3   OH248336   1.487   5.672   6.468  0.6080 -0.2309 -0.0273
 8974TIP3    H148337   1.413   5.730   6.479 -1.0472 -2.1687 -0.3058
 8974TIP3    H248338   1.558   5.713   6.517 -1.5318  0.0817  3.0803
 8975TIP3   OH248339   3.517   1.969  15.349  0.2897 -0.3675 -0.0565
 8975TIP3    H148340   3.422   1.977  15.339  0.2550  0.7086  0.9362
 8975TIP3    H248341   3.537   1.881  15.317 -1.0045 -0.5260 -0.4957
 8976TIP3   OH248342   2.509   6.635  16.775  0.1935  0.3970  0.1543
 8976TIP3    H148343   2.484   6.707  16.717  1.2789  2.3472  1.9682
 8976TIP3    H248344   2.428   6.611  16.821  0.1961  1.9758  1.0596
 8977TIP3   OH248345   4.035   3.611   2.334 -0.7152  0.2980 -0.1669
 8977TIP3    H148346   4.030   3.673   2.407 -1.4788 -0.5720  0.5447
 8977TIP3    H248347   4.039   3.667   2.256  1.8699  1.2783  0.5643
 8978TIP3   OH248348   2.293   3.424  15.436  0.1362  0.3223 -0.0779
 8978TIP3    H148349   2.213   3.427  15.489  0.2798 -1.0517  0.2583
 8978TIP3    H248350   2.303   3.513  15.403 -2.6316  0.1579 -1.7629
 8979TIP3   OH248351   6.750   0.605   1.653  0.0824 -0.0787  0.6757
 8979TIP3    H148352   6.807   0.558   1.714  0.9451  0.6917  0.4731
 8979TIP3    H248353   6.755   0.696   1.680 -0.5986  0.0834  0.2878
 8980TIP3   OH248354   3.667   6.707   3.247  0.1403 -0.0210  0.3199
 8980TIP3    H148355   3.605   6.778   3.233 -1.0099 -1.4709 -2.5970
 8980TIP3    H248356   3.747   6.751   3.276 -1.0210  2.2749  0.2730
 8981TIP3   OH248357   5.693   1.660  13.349  0.2550 -0.2706 -0.5457
 8981TIP3    H148358   5.758   1.614  13.296  0.2409  1.4306 -2.1059
 8981TIP3    H248359   5.625   1.686  13.287 -0.4447  0.5958  0.5431
 8982TIP3   OH248360   4.215   6.487  15.093  0.3010 -0.1362  0.0826
 8982TIP3    H148361   4.131   6.442  15.099  1.8993 -3.6040 -1.0534
 8982TIP3    H248362   4.233   6.516  15.182 -2.8128  2.4104  0.0598
 8983TIP3   OH248363   5.116   4.305   5.336 -0.4727 -0.3232  0.3165
 8983TIP3    H148364   5.071   4.390   5.331  0.9461  0.4048 -0.9638
 8983TIP3    H248365   5.130   4.290   5.429 -1.2436  0.5785  0.5888
 8984TIP3   OH248366   4.427   4.861  16.466  0.0738 -0.1307  0.0189
 8984TIP3    H148367   4.417   4.785  16.524 -0.0547 -0.6827 -0.7069
 8984TIP3    H248368   4.407   4.827  16.378  0.9255  0.5211 -0.4492
 8985TIP3   OH248369   0.314   5.658  15.413  0.4493 -0.1156 -0.2689
 8985TIP3    H148370   0.382   5.684  15.351  1.4841  0.0679  0.9134
 8985TIP3    H248371   0.320   5.563  15.416  1.8673 -0.0047  1.1442
 8986TIP3   OH248372   1.149   1.766   3.823  0.6700  0.1346 -0.1792
 8986TIP3    H148373   1.210   1.782   3.895  1.4742 -0.2968 -0.7502
 8986TIP3    H248374   1.205   1.750   3.747 -0.1660  0.8573 -0.9698
 8987TIP3   OH248375   4.602   6.327  13.965 -0.6881  0.3648  0.0733
 8987TIP3    H148376   4.568   6.406  13.925  1.0187  0.9921 -0.2450
 8987TIP3    H248377   4.698   6.336  13.959 -0.3803 -0.3593  2.6211
 8988TIP3   OH248378   0.047   4.992  12.533  0.0507  0.2689  0.0683
 8988TIP3    H148379   0.087   4.905  12.520 -4.6614 -2.3634  1.0231
 8988TIP3    H248380   0.090   5.026  12.611  0.4986 -2.3171  1.0735
 8989TIP3   OH248381   0.733   2.959   0.423 -0.4216 -0.0195  0.2466
 8989TIP3    H148382   0.758   2.909   0.345 -0.8491 -0.2249  0.2353
 8989TIP3    H248383   0.762   2.906   0.496 -1.6267 -0.7063  0.2470
 8990TIP3   OH248384   2.812   4.267  13.510  0.7581  0.3234 -0.1843
 8990TIP3    H148385   2.888   4.229  13.555  0.5756 -0.2664 -0.3568
 8990TIP3    H248386   2.800   4.353  13.551  1.3306  0.2964  0.0543
 8991TIP3   OH248387   2.413   3.520   5.303  0.0916  0.2283 -0.0640
 8991TIP3    H148388   2.464   3.593   5.269 -0.8764  1.3008  0.6764
 8991TIP3    H248389   2.348   3.562   5.360 -0.8248 -1.1786 -0.0358
 8992TIP3   OH248390   5.567   1.085   4.696 -0.5124  0.6590 -0.2591
 8992TIP3    H148391   5.651   1.114   4.661  0.0608 -1.2642 -0.5833
 8992TIP3    H248392   5.589   1.020   4.762 -1.7261  0.9251  0.4430
 8993TIP3   OH248393   1.994   1.877   4.252 -0.4715  0.7509  0.2304
 8993TIP3    H148394   1.937   1.820   4.201 -0.0735  0.8355 -0.3156
 8993TIP3    H248395   2.018   1.825   4.328  0.3778 -0.0466 -0.5626
 8994TIP3   OH248396   0.162   0.246   5.900 -0.1709 -0.1788 -0.3834
 8994TIP3    H148397   0.205   0.162   5.920 -0.7618 -0.9370 -2.0833
 8994TIP3    H248398   0.104   0.262   5.974  2.8082  0.8102  1.9413
 8995TIP3   OH248399   5.405   5.420  14.128  0.2883 -0.1719 -0.0435
 8995TIP3    H148400   5.335   5.484  14.136 -0.9618 -1.5018 -0.0305
 8995TIP3    H248401   5.398   5.386  14.039 -0.0503 -1.3666  0.4170
 8996TIP3   OH248402   2.887   1.204   1.646 -0.3161 -0.5077  0.2075
 8996TIP3    H148403   2.821   1.246   1.591 -0.3339  1.4054  1.5865
 8996TIP3    H248404   2.863   1.111   1.644 -2.1737 -0.0756 -0.5106
 8997TIP3   OH248405   1.739   0.762   3.923  0.0477  0.5774 -0.4628
 8997TIP3    H148406   1.744   0.763   4.018  1.1104  1.5881 -0.5022
 8997TIP3    H248407   1.698   0.678   3.901 -1.1020  0.7603  0.9029
 8998TIP3   OH248408   4.424   5.566  14.546 -0.8423 -0.6067 -0.2437
 8998TIP3    H148409   4.368   5.616  14.605 -0.7992 -1.1734  0.2954
 8998TIP3    H248410   4.444   5.625  14.474 -1.4478 -0.1258 -0.0153
 8999TIP3   OH248411   5.565   0.960  10.865 -0.1376  0.2829 -0.2302
 8999TIP3    H148412   5.478   0.999  10.855 -0.2224 -0.0664 -0.9053
 8999TIP3    H248413   5.613   0.985  10.787  0.2880  0.2530  0.0152
 9000TIP3   OH248414   5.636   2.141  16.567  0.5862 -0.4427  0.3040
 9000TIP3    H148415   5.576   2.206  16.531 -0.1064 -0.7347  0.9025
 9000TIP3    H248416   5.657   2.085  16.493 -0.1597 -0.5431  0.1542
 9001TIP3   OH248417   2.233   1.383  14.487  0.3669  0.1374  0.1540
 9001TIP3    H148418   2.185   1.440  14.427 -0.9989  0.4275  1.4418
 9001TIP3    H248419   2.165   1.345  14.544  1.0453 -3.6050 -1.2229
 9002TIP3   OH248420   4.274   3.493  14.502 -0.1946  0.4712 -1.0421
 9002TIP3    H148421   4.290   3.497  14.596  0.6905 -0.3214 -1.1393
 9002TIP3    H248422   4.205   3.428  14.492  0.2857 -0.0467 -0.9979
 9003TIP3   OH248423   0.543   5.835   1.260  0.0439  0.0918  0.3203
 9003TIP3    H148424   0.551   5.783   1.180 -0.3323 -0.8969  0.9078
 9003TIP3    H248425   0.633   5.847   1.290  0.1386 -0.1474  0.1341
 9004TIP3   OH248426   5.111   0.377  16.833  0.3793  0.0500 -0.2091
 9004TIP3    H148427   5.051   0.390  16.906  1.0310 -0.0887  0.3651
 9004TIP3    H248428   5.197   0.398  16.869  0.6056  0.9500 -1.2121
 9005TIP3   OH248429   6.022   2.683   4.575  0.1085 -0.1230  0.0028
 9005TIP3    H148430   5.960   2.659   4.507  1.3226  0.0957 -1.2304
 9005TIP3    H248431   6.072   2.603   4.592  0.3777  0.0426  0.0043
 9006TIP3   OH248432   2.453   5.277   4.385 -0.1560 -0.8427 -0.2553
 9006TIP3    H148433   2.445   5.299   4.293 -2.6901 -0.5670 -0.0454
 9006TIP3    H248434   2.415   5.189   4.392  2.1369 -1.8687  0.2183
 9007TIP3   OH248435   6.456   6.391   3.737 -0.1436 -0.0809 -0.0829
 9007TIP3    H148436   6.489   6.446   3.666 -1.0946  0.1800 -0.3436
 9007TIP3    H248437   6.462   6.446   3.815 -0.4154  0.1302 -0.2124
 9008TIP3   OH248438   0.571   2.543   2.510 -0.3601 -0.9193 -0.0584
 9008TIP3    H148439   0.655   2.555   2.465 -0.5174  0.3049 -0.0538
 9008TIP3    H248440   0.506   2.537   2.440 -0.5990  0.9394 -0.0382
 9009TIP3   OH248441   2.639   4.725  12.303  0.2214  0.1832  0.0820
 9009TIP3    H148442   2.574   4.756  12.240  0.7112  1.1984  0.0425
 9009TIP3    H248443   2.719   4.716  12.251  0.7711  1.5853  0.6479
 9010TIP3   OH248444   5.304   2.193   5.307  0.3173 -0.0764 -0.2869
 9010TIP3    H148445   5.361   2.131   5.353  0.4342  0.5841  0.4710
 9010TIP3    H248446   5.289   2.153   5.221 -0.6405 -1.8007  0.6226
 9011TIP3   OH248447   2.664   4.899  16.852 -0.1395  0.5860  0.0023
 9011TIP3    H148448   2.738   4.883  16.910  0.2389 -0.2335 -0.6883
 9011TIP3    H248449   2.588   4.868  16.901  0.0495  0.8116  0.4446
 9012TIP3   OH248450   3.079   2.814  12.236 -0.4512 -0.1909  0.1009
 9012TIP3    H148451   3.150   2.766  12.277 -1.2851  0.0006  1.8583
 9012TIP3    H248452   3.031   2.854  12.309 -0.5015  2.3322 -1.2021
 9013TIP3   OH248453   2.298   0.469   2.645 -0.0503  0.2362 -0.4049
 9013TIP3    H148454   2.294   0.412   2.568 -1.6171  0.6230 -0.6384
 9013TIP3    H248455   2.234   0.431   2.706  0.8070  0.2344  0.5145
 9014TIP3   OH248456   3.872   5.865  14.596  0.2788 -0.0432 -0.4861
 9014TIP3    H148457   3.837   5.808  14.665  0.4755 -0.7517 -0.9691
 9014TIP3    H248458   3.824   5.947  14.607 -1.3268 -0.8953 -0.9448
 9015TIP3   OH248459   0.817   2.598  12.295 -0.0509 -0.0215 -0.4413
 9015TIP3    H148460   0.900   2.592  12.343  0.5737 -1.2824 -1.6055
 9015TIP3    H248461   0.795   2.691  12.297  0.7674  0.1735  0.9011
 9016TIP3   OH248462   2.982   6.711   4.212 -0.9490 -0.0506 -0.6859
 9016TIP3    H148463   3.037   6.746   4.142  2.5740 -0.5256  1.6025
 9016TIP3    H248464   2.982   6.780   4.279 -0.8302 -1.1635  0.4917
 9017TIP3   OH248465   4.980   3.092   3.209 -0.4553  0.4205  0.2134
 9017TIP3    H148466   4.970   3.180   3.247  0.5620  0.5925  0.1188
 9017TIP3    H248467   4.988   3.107   3.115 -0.2436  0.2374  0.1997
 9018TIP3   OH248468   5.518   1.314  16.019 -0.4486  0.0419 -0.3889
 9018TIP3    H148469   5.426   1.325  16.043 -0.3252  1.0550 -0.3477
 9018TIP3    H248470   5.517   1.302  15.923 -0.4809  2.2403 -0.7042
 9019TIP3   OH248471   4.330   3.895   1.893  0.5821 -0.1226 -0.6501
 9019TIP3    H148472   4.390   3.960   1.857  0.0283 -0.4865 -2.3284
 9019TIP3    H248473   4.310   3.837   1.819  1.0550 -2.2182  0.8025
 9020TIP3   OH248474   6.482   5.289  13.216 -0.8445 -0.1757  0.6947
 9020TIP3    H148475   6.459   5.303  13.124 -0.2108 -2.1911  0.1705
 9020TIP3    H248476   6.541   5.361  13.237 -0.5654  0.0193 -0.6616
 9021TIP3   OH248477   3.490   6.299   3.016  0.2474  0.1435  0.2864
 9021TIP3    H148478   3.433   6.324   2.943  0.4112  0.8468  0.3901
 9021TIP3    H248479   3.578   6.311   2.982  0.3245  0.7347  0.6799
 9022TIP3   OH248480   0.416   4.358  16.249 -0.2054 -1.0052 -0.2843
 9022TIP3    H148481   0.482   4.383  16.314  1.0847 -2.4878 -0.9539
 9022TIP3    H248482   0.377   4.441  16.222  2.3338  0.1258 -0.8465
 9023TIP3   OH248483   1.836   1.777  11.449  0.1281 -0.4997 -0.4983
 9023TIP3    H148484   1.836   1.865  11.489 -0.7311 -0.6184 -0.2121
 9023TIP3    H248485   1.921   1.740  11.473  0.0439 -0.1693  0.3557
 9024TIP3   OH248486   2.744   1.583  13.270  0.0048  0.0517 -0.7631
 9024TIP3    H148487   2.659   1.569  13.230  0.5101 -1.3814 -1.4151
 9024TIP3    H248488   2.737   1.667  13.314 -1.3514  0.5241 -1.8309
 9025TIP3   OH248489   6.746   0.200   2.804  0.3459 -0.3158 -0.2295
 9025TIP3    H148490   6.755   0.216   2.710 -1.0597  3.0670  0.0774
 9025TIP3    H248491   6.660   0.235   2.827  0.2559 -1.8597  2.2310
 9026TIP3   OH248492   4.341   6.562  12.683  0.1490  0.0104  0.0160
 9026TIP3    H148493   4.408   6.501  12.712  0.9954  1.5021  1.3543
 9026TIP3    H248494   4.260   6.529  12.722  0.6479 -0.1435  0.9666
 9027TIP3   OH248495   2.793   6.704  11.755 -0.2687 -0.4813  0.0291
 9027TIP3    H148496   2.819   6.709  11.847  0.0405 -1.4108  0.0074
 9027TIP3    H248497   2.855   6.642  11.716 -0.1596  0.1866 -0.8935
 9028TIP3   OH248498   3.586   2.921   1.893  0.4140  0.1767 -0.2225
 9028TIP3    H148499   3.587   2.950   1.984  0.0565  1.4973 -0.6037
 9028TIP3    H248500   3.557   2.830   1.896  2.4347 -0.4792  1.1283
 9029TIP3   OH248501   6.300   0.403  16.907 -0.8078  0.2425  0.0436
 9029TIP3    H148502   6.370   0.416  16.972  0.7021 -1.6633 -1.0744
 9029TIP3    H248503   6.294   0.487  16.861  0.1620  0.7098  0.7352
 9030TIP3   OH248504   2.543   6.613  11.730  0.0315  0.1894  0.1678
 9030TIP3    H148505   2.544   6.517  11.737 -0.9330  0.0648 -1.1425
 9030TIP3    H248506   2.635   6.638  11.737  0.3017 -0.8352  0.4916
 9031TIP3   OH248507   5.861   4.495  15.109 -0.5901  0.2823  0.6756
 9031TIP3    H148508   5.904   4.443  15.040  0.6089  0.7722  1.0297
 9031TIP3    H248509   5.881   4.448  15.190 -0.9559  0.3749  0.8198
 9032TIP3   OH248510   2.249   6.016   2.082  0.3479  0.1085  0.0968
 9032TIP3    H148511   2.242   5.933   2.129  2.5504  0.9472  2.1165
 9032TIP3    H248512   2.231   6.083   2.148  1.1885  1.3018 -0.8284
 9033TIP3   OH248513   6.109   6.010  12.514  0.2174  0.1452  0.0389
 9033TIP3    H148514   6.193   6.014  12.561 -0.5281 -0.2700  1.4743
 9033TIP3    H248515   6.133   5.989  12.424  1.5220 -3.6376  1.0739
 9034TIP3   OH248516   0.401   2.481   1.373  0.1967 -0.2787  0.0861
 9034TIP3    H148517   0.317   2.477   1.329 -0.1179  0.2808  0.6191
 9034TIP3    H248518   0.435   2.392   1.368  0.1489 -0.2546 -1.2205
 9035TIP3   OH248519   1.876   6.264  14.040  0.2258 -0.5554 -0.3428
 9035TIP3    H148520   1.795   6.267  14.090  0.7253 -1.6928  0.5936
 9035TIP3    H248521   1.944   6.290  14.103  0.5615  0.8114 -1.2267
 9036TIP3   OH248522   4.075   3.622   6.032 -0.1514 -0.2449 -0.1022
 9036TIP3    H148523   4.152   3.619   5.975 -1.0456  1.9550 -1.5693
 9036TIP3    H248524   4.103   3.672   6.108  0.2645 -0.7496  0.0839
 9037TIP3   OH248525   4.064   2.607  11.662  0.0723 -0.5821  0.2969
 9037TIP3    H148526   4.095   2.693  11.636 -0.5613 -0.6399 -0.6940
 9037TIP3    H248527   3.971   2.606  11.638  0.1390 -1.6348  0.0137
 9038TIP3   OH248528   1.516   1.160   4.944  0.2944  0.0676  0.5785
 9038TIP3    H148529   1.428   1.196   4.957  0.0557 -0.1379 -0.4092
 9038TIP3    H248530   1.568   1.198   5.015 -0.5971  0.1542  1.2010
 9039TIP3   OH248531   2.287   2.856  14.024 -0.4209  0.5665  0.1769
 9039TIP3    H148532   2.350   2.830  13.957 -0.9123  1.4279 -0.6467
 9039TIP3    H248533   2.285   2.782  14.085  0.3830 -0.0371 -0.4998
 9040TIP3   OH248534   4.241   1.283   0.584  0.0279  0.0924 -0.0315
 9040TIP3    H148535   4.163   1.230   0.603 -1.3527  2.4851  1.5855
 9040TIP3    H248536   4.207   1.372   0.576  2.2038  0.8357 -2.7647
 9041TIP3   OH248537   4.807   0.654   2.428  0.1153 -0.5308  0.8940
 9041TIP3    H148538   4.752   0.729   2.405  0.1230 -0.8591 -0.2730
 9041TIP3    H248539   4.859   0.684   2.502 -0.7112  0.2219  1.1839
 9042TIP3   OH248540   4.641   5.972   5.561  0.0422  0.3470 -1.0339
 9042TIP3    H148541   4.561   5.977   5.614 -0.7145  0.8610 -2.1871
 9042TIP3    H248542   4.704   6.027   5.608  0.1342 -1.0067  0.5229
 9043TIP3   OH248543   1.808   1.324  15.274 -0.0739 -0.1524 -0.1575
 9043TIP3    H148544   1.854   1.260  15.328 -1.1046  0.2426  1.2647
 9043TIP3    H248545   1.858   1.404  15.282  1.7965 -0.9324 -2.7579
 9044TIP3   OH248546   0.911   4.152   1.154  0.2330 -0.2961  0.9342
 9044TIP3    H148547   0.893   4.079   1.095 -2.0280  0.8257  0.1355
 9044TIP3    H248548   0.967   4.115   1.222  0.9172 -2.2231 -0.5917
 9045TIP3   OH248549   1.333   3.703   0.342  0.1370  0.5119  0.0845
 9045TIP3    H148550   1.276   3.657   0.280 -0.9617  2.3293 -0.3099
 9045TIP3    H248551   1.320   3.796   0.322 -1.1673  1.2829  3.7701
 9046TIP3   OH248552   0.376   6.055  15.534 -0.2426 -0.1310  0.1785
 9046TIP3    H148553   0.352   5.976  15.582 -2.8127 -0.3546 -1.2642
 9046TIP3    H248554   0.427   6.023  15.459 -3.2190 -0.8757 -1.7163
 9047TIP3   OH248555   1.772   2.669  12.951 -0.3577  0.9506  0.6464
 9047TIP3    H148556   1.780   2.754  12.909 -0.9444  0.5011 -0.4097
 9047TIP3    H248557   1.827   2.675  13.029  0.9120  1.7366 -0.2789
 9048TIP3   OH248558   3.383   1.559   6.944 -0.3147  0.4468  0.3021
 9048TIP3    H148559   3.389   1.471   6.982  0.3119  0.0640 -0.6530
 9048TIP3    H248560   3.292   1.585   6.959 -1.0984 -1.2010 -1.1665
 9049TIP3   OH248561   2.511   0.236  17.287  0.4258 -0.6683  0.0926
 9049TIP3    H148562   2.532   0.145  17.312  0.9552 -0.6764 -0.3436
 9049TIP3    H248563   2.467   0.228  17.203 -0.7579 -0.6006  0.6953
 9050TIP3   OH248564   5.334   4.445  16.830  0.3297  0.0445  0.1041
 9050TIP3    H148565   5.253   4.494  16.816  0.2520  0.2386  1.1594
 9050TIP3    H248566   5.315   4.388  16.905  1.6633  1.2894  1.4621
 9051TIP3   OH248567   2.911   6.284   4.151  0.4426 -0.1582  0.3201
 9051TIP3    H148568   2.926   6.364   4.100  3.3397 -0.0160  1.2464
 9051TIP3    H248569   2.932   6.213   4.091  0.6755 -0.1052  0.3371
 9052TIP3   OH248570   6.198   4.052   6.116 -0.3243 -0.2795 -0.4690
 9052TIP3    H148571   6.171   4.114   6.184  0.2649 -0.0226 -0.4671
 9052TIP3    H248572   6.155   3.970   6.141  0.5802 -0.4208  0.7037
 9053TIP3   OH248573   1.921   3.007  16.332 -0.1994  0.1713  0.2505
 9053TIP3    H148574   1.877   2.932  16.371 -0.0594  0.4672  0.9851
 9053TIP3    H248575   1.954   2.974  16.248  0.5049 -0.7865  0.8868
 9054TIP3   OH248576   0.407   3.960  12.345 -0.1940  0.1236 -0.0967
 9054TIP3    H148577   0.353   4.021  12.294  0.9888  1.5284  0.2782
 9054TIP3    H248578   0.426   3.889  12.283 -0.0722  1.0362 -1.1510
 9055TIP3   OH248579   6.260   5.420  11.288  0.0233 -0.2147 -0.6224
 9055TIP3    H148580   6.301   5.396  11.371 -2.4677 -3.0346 -0.0502
 9055TIP3    H248581   6.321   5.388  11.221  1.7220  1.4738 -0.0015
 9056TIP3   OH248582   3.227   5.471   0.972 -0.6185  0.2943  0.6207
 9056TIP3    H148583   3.236   5.448   0.880 -5.0592 -2.2719  0.5652
 9056TIP3    H248584   3.296   5.422   1.016  0.2396 -0.1180 -1.1051
 9057TIP3   OH248585   3.000   5.998  15.014 -0.6045  0.4358  0.4745
 9057TIP3    H148586   2.960   6.047  15.086  1.5191  1.4873  1.0494
 9057TIP3    H248587   2.951   6.025  14.937 -1.3645  1.2111  1.2029
 9058TIP3   OH248588   1.107   1.871  13.544 -0.1437  0.2371  0.2161
 9058TIP3    H148589   1.015   1.848  13.528  0.3094 -2.8182  1.2985
 9058TIP3    H248590   1.107   1.909  13.632 -0.4945  1.3073 -0.2369
 9059TIP3   OH248591   0.167   0.261  16.190  0.5040 -0.0031  0.2596
 9059TIP3    H148592   0.161   0.195  16.259 -1.7417 -1.6807 -1.3846
 9059TIP3    H248593   0.100   0.326  16.213  0.8979  0.3238  0.4991
 9060TIP3   OH248594   3.702   3.503  13.868 -0.3935 -0.0198 -0.3752
 9060TIP3    H148595   3.665   3.577  13.916 -0.5340 -0.2885 -0.0676
 9060TIP3    H248596   3.656   3.426  13.902 -0.7375 -0.1832 -1.1706
 9061TIP3   OH248597   3.599   3.355  12.239  0.7433  0.2769  0.0200
 9061TIP3    H148598   3.641   3.283  12.192  0.2018  0.9709 -1.6035
 9061TIP3    H248599   3.671   3.410  12.269  1.1217 -0.4841  0.5579
 9062TIP3   OH248600   0.398   0.737  14.603 -0.4498  0.4816 -0.2638
 9062TIP3    H148601   0.396   0.771  14.693 -0.1189  1.9699 -0.8015
 9062TIP3    H248602   0.448   0.655  14.610  2.2644  2.0882  0.4339
 9063TIP3   OH248603   5.394   1.745   0.519  0.1277 -0.1872 -0.5513
 9063TIP3    H148604   5.367   1.655   0.536  1.9843 -0.9369 -1.3206
 9063TIP3    H248605   5.315   1.789   0.488 -0.7457 -1.6010 -0.3843
 9064TIP3   OH248606   0.113   4.560  14.517  0.0027 -0.2502 -0.4787
 9064TIP3    H148607   0.135   4.482  14.568 -0.4643 -2.1857 -3.0596
 9064TIP3    H248608   0.018   4.555  14.507  0.1016  0.0186 -1.6304
 9065TIP3   OH248609   0.898   3.665   1.620  0.1504  0.1389  0.1116
 9065TIP3    H148610   0.818   3.632   1.661  0.6774  0.9167  1.8655
 9065TIP3    H248611   0.873   3.682   1.529 -1.1630 -1.3473  0.1468
 9066TIP3   OH248612   5.094   5.988   1.281 -0.6436  0.5575  0.2864
 9066TIP3    H148613   5.053   6.023   1.202 -0.8130  1.0036  0.5706
 9066TIP3    H248614   5.087   6.059   1.345  1.1831  0.9249  0.1327
 9067TIP3   OH248615   3.146   2.178   2.540  0.6319 -0.1288  0.1141
 9067TIP3    H148616   3.233   2.214   2.521  0.9537 -1.0763 -0.2261
 9067TIP3    H248617   3.145   2.167   2.635  0.1910  1.5992  0.3524
 9068TIP3   OH248618   4.782   1.953  13.202 -0.4207  0.4296 -0.1425
 9068TIP3    H148619   4.755   2.021  13.139  0.1488 -0.2982 -1.1978
 9068TIP3    H248620   4.870   1.979  13.229 -0.1871  0.0964 -0.5760
 9069TIP3   OH248621   5.664   0.681  16.079 -0.3558  0.4386 -0.3704
 9069TIP3    H148622   5.586   0.626  16.085 -0.0028  0.0516  0.8857
 9069TIP3    H248623   5.639   0.750  16.018 -1.3178 -0.2627 -0.8073
 9070TIP3   OH248624   3.943   3.976  10.858 -0.2926  0.4659  0.2532
 9070TIP3    H148625   3.883   4.036  10.901  0.2921 -1.0473  3.4911
 9070TIP3    H248626   3.898   3.952  10.776  0.2129  6.3955 -2.2834
 9071TIP3   OH248627   1.824   2.857  11.310  0.4752 -0.4777 -0.4429
 9071TIP3    H148628   1.891   2.921  11.287  0.0317  0.1815  0.0460
 9071TIP3    H248629   1.871   2.774  11.314  1.0218 -0.2156 -1.2777
 9072TIP3   OH248630   0.408   5.192  16.211  0.1049  0.0549  0.3436
 9072TIP3    H148631   0.351   5.243  16.269 -2.6733 -2.0318 -0.3272
 9072TIP3    H248632   0.443   5.122  16.266 -0.1507 -0.2207  0.1571
 9073TIP3   OH248633   5.578   3.185   6.164  0.0502  0.3254  0.0978
 9073TIP3    H148634   5.519   3.121   6.205 -1.3245  1.4170 -0.0993
 9073TIP3    H248635   5.665   3.163   6.198 -0.5490 -0.9573  0.8679
 9074TIP3   OH248636   0.581   2.966   0.801 -0.2777  0.6147 -0.5323
 9074TIP3    H148637   0.650   3.016   0.757  0.4598  1.2806  1.2972
 9074TIP3    H248638   0.628   2.912   0.865 -1.4406  1.1052  0.7679
 9075TIP3   OH248639   4.017   4.253   5.452  1.0211  0.1988 -0.0216
 9075TIP3    H148640   4.025   4.202   5.371  0.2085  0.0201 -0.0034
 9075TIP3    H248641   3.999   4.188   5.520  0.8875  0.4221  0.1595
 9076TIP3   OH248642   3.101   1.451  13.638  0.5647 -0.3115 -0.2407
 9076TIP3    H148643   3.106   1.470  13.544 -1.1235 -0.2388 -0.3556
 9076TIP3    H248644   3.113   1.536  13.680 -0.6392  0.0147 -0.4995
 9077TIP3   OH248645   3.451   2.801   6.430  0.2196 -0.1338  0.2609
 9077TIP3    H148646   3.378   2.818   6.490 -0.7206 -1.3337 -0.5043
 9077TIP3    H248647   3.515   2.755   6.484  0.3174  0.6832  0.8696
 9078TIP3   OH248648   0.701   1.680   5.126  0.2182  0.4858 -0.0130
 9078TIP3    H148649   0.706   1.586   5.111 -0.1444  0.4415  0.1327
 9078TIP3    H248650   0.773   1.699   5.187  1.8882  0.7163 -1.9530
 9079TIP3   OH248651   2.784   1.263   1.043  0.0170  0.2344  0.2252
 9079TIP3    H148652   2.777   1.329   1.113  2.6705  0.5197  0.3211
 9079TIP3    H248653   2.719   1.197   1.066  0.3461  0.6503  2.6292
 9080TIP3   OH248654   5.822   3.372   0.998  0.1224  0.2479 -0.0714
 9080TIP3    H148655   5.728   3.360   0.998 -0.0424  1.3738 -0.0464
 9080TIP3    H248656   5.847   3.370   0.905 -0.3140  2.4240 -0.2908
 9081TIP3   OH248657   0.713   2.025   0.466  0.4870 -0.0161 -0.5187
 9081TIP3    H148658   0.684   2.085   0.398 -1.4537  1.1689  1.2505
 9081TIP3    H248659   0.783   2.073   0.512 -0.5711  0.6503  0.4422
 9082TIP3   OH248660   1.820   4.805  12.753 -0.0424 -0.0100 -0.0633
 9082TIP3    H148661   1.809   4.728  12.697 -0.3518 -0.7096  0.9349
 9082TIP3    H248662   1.750   4.865  12.725 -0.9002 -0.8121  0.2988
 9083TIP3   OH248663   2.231   2.588   1.992 -0.3158 -0.1280  0.0351
 9083TIP3    H148664   2.185   2.662   2.032 -0.9906 -0.5182 -0.0108
 9083TIP3    H248665   2.199   2.511   2.038  2.4959 -0.2302  2.0808
 9084TIP3   OH248666   0.303   3.272  15.189  0.3065 -0.1487  0.4159
 9084TIP3    H148667   0.342   3.285  15.102 -1.2878 -0.3343 -0.3634
 9084TIP3    H248668   0.337   3.345  15.241 -2.4396  2.9465 -1.7315
 9085TIP3   OH248669   4.087   4.668   1.784 -0.4427 -0.2150  0.0648
 9085TIP3    H148670   4.149   4.740   1.780  1.4575 -1.8171 -2.6294
 9085TIP3    H248671   4.115   4.615   1.859 -0.6014  0.7334  0.8085
 9086TIP3   OH248672   1.160   0.121   1.268 -0.3198  0.3247 -0.0081
 9086TIP3    H148673   1.152   0.213   1.241 -0.0531  0.3763  0.0888
 9086TIP3    H248674   1.085   0.108   1.327  0.3136  0.8342  0.9484
 9087TIP3   OH248675   5.985   4.495   5.845 -0.2787 -0.0651 -0.1342
 9087TIP3    H148676   6.059   4.438   5.861 -0.5852 -0.6589 -0.7778
 9087TIP3    H248677   5.915   4.460   5.900 -0.4877 -0.3527 -0.5824
 9088TIP3   OH248678   0.129   5.366  12.161 -0.8142 -0.4143  0.7739
 9088TIP3    H148679   0.070   5.440  12.174 -1.4681 -0.6819 -0.4462
 9088TIP3    H248680   0.100   5.301  12.225 -0.6149  0.1391  1.4480
 9089TIP3   OH248681   1.386   1.937  12.930  0.9509  0.0157  0.2844
 9089TIP3    H148682   1.305   1.944  12.880  0.0351 -0.0754  1.7018
 9089TIP3    H248683   1.427   2.023  12.921  0.6130  0.1197 -0.2941
 9090TIP3   OH248684   2.742   5.758   5.463 -0.4116 -0.0258  0.0136
 9090TIP3    H148685   2.690   5.838   5.464 -0.1509  0.1565 -0.5203
 9090TIP3    H248686   2.722   5.717   5.378  0.9311  0.4713 -0.5699
 9091TIP3   OH248687   3.198   0.173   6.553 -0.4697  0.3441  0.2151
 9091TIP3    H148688   3.271   0.112   6.553 -0.4203  0.4034  0.1104
 9091TIP3    H248689   3.131   0.131   6.607 -0.1044  0.5910  0.8707
 9092TIP3   OH248690   1.346   6.004  15.073  0.2567  0.6853 -0.5447
 9092TIP3    H148691   1.348   6.092  15.109  2.3026  0.5071 -0.1114
 9092TIP3    H248692   1.438   5.979  15.064 -0.2559 -1.0530 -1.5466
 9093TIP3   OH248693   5.018   1.239  12.548  0.0622 -0.2784 -0.5975
 9093TIP3    H148694   5.031   1.302  12.619  0.4451 -1.2586  0.2232
 9093TIP3    H248695   4.923   1.231  12.542  0.0011 -2.0935  1.5918
 9094TIP3   OH248696   0.570   2.104  11.538  0.2744 -0.4910  0.4457
 9094TIP3    H148697   0.600   2.194  11.528  1.3297 -0.8522  0.2549
 9094TIP3    H248698   0.633   2.064  11.598 -0.8912 -0.7773  1.5275
 9095TIP3   OH248699   5.507   0.156   0.091  0.0188  0.6057  0.0839
 9095TIP3    H148700   5.458   0.129   0.169 -1.9588 -2.0426 -1.8660
 9095TIP3    H248701   5.596   0.123   0.106 -0.2294  0.4592  1.3532
 9096TIP3   OH248702   1.518   3.511   5.024  0.0009  0.1791  0.5061
 9096TIP3    H148703   1.598   3.481   5.068 -0.7368 -2.7779  0.0346
 9096TIP3    H248704   1.531   3.487   4.932 -1.5063 -0.6579  0.4762
 9097TIP3   OH248705   5.655   1.049  14.053  0.4621  0.5342  0.0287
 9097TIP3    H148706   5.604   0.970  14.071  0.0911  0.7960  0.1357
 9097TIP3    H248707   5.731   1.043  14.111  1.2244 -0.4891 -1.0286
 9098TIP3   OH248708   3.462   3.608  14.789 -0.0235  0.0847 -0.3046
 9098TIP3    H148709   3.528   3.640  14.850 -0.9068  0.5865  0.4203
 9098TIP3    H248710   3.501   3.531  14.749  1.0923  0.5192 -0.0869
 9099TIP3   OH248711   5.302   0.677   0.550  0.8458 -0.4378  0.4272
 9099TIP3    H148712   5.305   0.581   0.552 -0.2723 -0.5155 -0.8183
 9099TIP3    H248713   5.262   0.701   0.634  0.4585 -1.0985  0.4433
 9100TIP3   OH248714   1.612   5.478   0.002  0.0134 -0.1194  0.4081
 9100TIP3    H148715   1.659   5.558   0.025  0.5968 -0.3256 -0.0292
 9100TIP3    H248716   1.570   5.449   0.083 -0.3540  0.7298  0.5224
 9101TIP3   OH248717   4.125   2.964   1.982 -0.2527 -0.1478 -0.1147
 9101TIP3    H148718   4.067   2.961   2.058 -0.1046  2.8573  0.2232
 9101TIP3    H248719   4.179   3.042   1.996  0.0120  0.3273 -3.1588
 9102TIP3   OH248720   2.785   1.473  14.405 -0.8794 -0.5283  0.0603
 9102TIP3    H148721   2.783   1.382  14.433  0.7950 -1.0460 -1.2565
 9102TIP3    H248722   2.698   1.508  14.425 -1.0189 -1.9139  2.1174
 9103TIP3   OH248723   6.197   0.593   2.907  0.1766  0.1004  0.6917
 9103TIP3    H148724   6.254   0.652   2.859  0.8178 -1.7098 -0.8952
 9103TIP3    H248725   6.151   0.543   2.839  0.8341 -2.2844  1.8738
 9104TIP3   OH248726   5.585   3.751   1.925 -0.5739 -0.5718  0.1842
 9104TIP3    H148727   5.673   3.785   1.905 -0.3828  1.9223  4.1182
 9104TIP3    H248728   5.601   3.676   1.982 -1.0997 -2.2334 -1.7506
 9105TIP3   OH248729   4.272   6.714   0.913 -0.2575 -0.0032 -0.9418
 9105TIP3    H148730   4.185   6.701   0.875  0.1129  1.1463 -2.3059
 9105TIP3    H248731   4.313   6.628   0.910 -1.7882 -0.8796  1.0184
 9106TIP3   OH248732   4.559   5.362   1.419  0.1177 -0.0898  0.1670
 9106TIP3    H148733   4.545   5.340   1.511  2.4656 -0.2389  0.5463
 9106TIP3    H248734   4.646   5.401   1.417  0.8132 -1.5643 -2.2186
 9107TIP3   OH248735   4.704   0.360   0.624 -0.7009  0.5374 -0.2157
 9107TIP3    H148736   4.685   0.339   0.533 -0.8628  0.4656 -0.1666
 9107TIP3    H248737   4.619   0.386   0.661 -0.3686  2.0981 -0.4786
 9108TIP3   OH248738   2.321   1.804  13.269 -0.6185  0.1194  0.3487
 9108TIP3    H148739   2.262   1.786  13.195 -0.9949 -1.4355  0.9977
 9108TIP3    H248740   2.280   1.761  13.344  0.4684  0.4852  1.1807
 9109TIP3   OH248741   2.200   1.514   5.821 -0.2687  0.3921  0.4998
 9109TIP3    H148742   2.139   1.562   5.765 -0.7941  2.2156  2.4654
 9109TIP3    H248743   2.166   1.528   5.910  2.4456  0.6642  1.5960
 9110TIP3   OH248744   2.453   5.881   5.093 -0.2125  0.0101 -0.1096
 9110TIP3    H148745   2.359   5.874   5.077 -0.5420 -1.1270  1.9777
 9110TIP3    H248746   2.487   5.794   5.072  0.3691  0.3898 -0.7658
 9111TIP3   OH248747   2.681   5.089  15.172 -0.3860 -0.1119 -0.1882
 9111TIP3    H148748   2.587   5.075  15.167 -0.1219 -2.2616 -0.4916
 9111TIP3    H248749   2.694   5.143  15.250 -1.7913 -0.7905  0.5517
 9112TIP3   OH248750   4.136   1.648   2.646  0.5177  0.8065  0.4992
 9112TIP3    H148751   4.100   1.614   2.728  1.9284  0.6686  1.0786
 9112TIP3    H248752   4.203   1.711   2.672  1.0979  0.6454 -0.5421
 9113TIP3   OH248753   4.289   3.626  13.570  0.0819 -1.0076 -0.2341
 9113TIP3    H148754   4.238   3.687  13.622 -1.3616 -1.2922 -1.2623
 9113TIP3    H248755   4.290   3.664  13.482 -1.7080 -2.8882 -1.1494
 9114TIP3   OH248756   3.029   6.554  11.726  0.6900  0.0959 -0.8611
 9114TIP3    H148757   3.098   6.612  11.759 -1.1757  1.2115  1.3021
 9114TIP3    H248758   3.021   6.485  11.792  0.4267 -0.6165 -1.6163
 9115TIP3   OH248759   5.992   1.368   2.470 -0.3309  0.1312 -0.1757
 9115TIP3    H148760   6.071   1.420   2.486 -0.9551  0.8386  0.7502
 9115TIP3    H248761   5.920   1.425   2.497 -1.0497 -1.1500  0.7459
 9116TIP3   OH248762   1.658   3.041   4.852 -0.2487  0.1544 -0.4051
 9116TIP3    H148763   1.683   2.972   4.913  3.8072  2.6630  1.2383
 9116TIP3    H248764   1.576   3.076   4.887 -1.1097 -2.1869  0.0757
 9117TIP3   OH248765   0.775   0.729  15.951 -0.3569  0.2796 -0.1122
 9117TIP3    H148766   0.834   0.800  15.974 -1.9026  1.4330  0.4006
 9117TIP3    H248767   0.832   0.663  15.911  1.5828  0.4925  2.1039
 9118TIP3   OH248768   5.764   0.914   0.913 -0.2473 -0.4577  0.3607
 9118TIP3    H148769   5.851   0.879   0.931 -0.0147 -0.8826 -1.4136
 9118TIP3    H248770   5.718   0.844   0.868 -1.8556 -0.5592  2.0464
 9119TIP3   OH248771   2.122   3.599  15.749 -0.2499  0.0359  0.4119
 9119TIP3    H148772   2.165   3.680  15.719  1.5843 -0.8419  0.5409
 9119TIP3    H248773   2.102   3.615  15.841 -1.5395  0.9884 -0.0173
 9120TIP3   OH248774   3.873   3.388  14.750 -0.2012  0.0169 -0.0565
 9120TIP3    H148775   3.920   3.464  14.784 -0.3987  0.2238 -0.2349
 9120TIP3    H248776   3.934   3.347  14.688  1.2824 -2.0167  2.5792
 9121TIP3   OH248777   1.295   5.656  17.307 -0.0175 -0.2040 -0.0961
 9121TIP3    H148778   1.241   5.704  17.243  1.7520  1.2177 -0.6063
 9121TIP3    H248779   1.381   5.697  17.301  0.3753 -0.3856  2.8161
 9122TIP3   OH248780   0.589   2.637  13.200 -0.1297  0.6643  0.7685
 9122TIP3    H148781   0.668   2.644  13.146 -1.4980 -0.8005 -1.6255
 9122TIP3    H248782   0.605   2.696  13.274  2.6454  1.3857 -0.2699
 9123TIP3   OH248783   3.660   2.211   6.900  0.0504  0.3665  0.4378
 9123TIP3    H148784   3.732   2.169   6.947  0.1685 -1.0843 -0.9748
 9123TIP3    H248785   3.675   2.305   6.913  1.5733  0.0654  1.0616
 9124TIP3   OH248786   3.356   4.922  12.330  0.6511 -0.3716 -0.7933
 9124TIP3    H148787   3.385   4.955  12.415  0.7263  0.6687 -1.2046
 9124TIP3    H248788   3.276   4.873  12.349  0.1675  0.5946 -0.2160
 9125TIP3   OH248789   3.392   4.775   6.778  0.0460 -0.1032 -0.4898
 9125TIP3    H148790   3.338   4.735   6.710 -0.8118  0.3025 -0.0615
 9125TIP3    H248791   3.330   4.798   6.847  0.8796 -0.3573  0.3594
 9126TIP3   OH248792   3.103   1.588   3.900  0.4398 -0.6713  0.2600
 9126TIP3    H148793   3.037   1.612   3.966 -0.3724 -0.8161 -0.4765
 9126TIP3    H248794   3.052   1.550   3.829  0.9872  1.8117 -1.5829
 9127TIP3   OH248795   5.355   0.287  15.920 -0.3666  0.3031  0.6343
 9127TIP3    H148796   5.394   0.332  15.844 -1.4012 -2.3792 -1.6717
 9127TIP3    H248797   5.272   0.333  15.934 -0.6892  0.1657 -0.6498
 9128TIP3   OH248798   3.952   6.086   3.283  0.1463  0.4708  0.2580
 9128TIP3    H148799   3.876   6.056   3.332  0.0471  0.3378  0.0245
 9128TIP3    H248800   3.932   6.177   3.261 -0.5767  0.0374 -1.0045
 9129TIP3   OH248801   5.952   3.408  12.221  0.1238 -0.3671 -0.5160
 9129TIP3    H148802   5.915   3.375  12.303 -0.1424 -0.3230 -0.6167
 9129TIP3    H248803   5.940   3.336  12.158 -1.8100  0.4181 -1.1288
 9130TIP3   OH248804   1.109   3.763   3.409  0.1459  0.4420  0.3124
 9130TIP3    H148805   1.074   3.805   3.331 -0.6649 -0.9102 -0.0854
 9130TIP3    H248806   1.065   3.807   3.482 -0.6488  0.3297 -0.0871
 9131TIP3   OH248807   5.028   0.385  14.585 -0.0172 -0.2284  0.0866
 9131TIP3    H148808   5.090   0.430  14.643 -0.8240  1.2793 -0.1807
 9131TIP3    H248809   4.956   0.359  14.642 -0.5808  0.8163 -0.1291
 9132TIP3   OH248810   4.339   4.805   4.457 -0.1672  0.1115  0.1701
 9132TIP3    H148811   4.323   4.898   4.440  0.4939  0.8941  3.2040
 9132TIP3    H248812   4.284   4.759   4.393  0.0573  2.5281 -1.9208
 9133TIP3   OH248813   4.025   1.798   4.830 -0.1791  0.5304 -0.0785
 9133TIP3    H148814   4.011   1.777   4.738 -1.1409 -0.0118  0.1739
 9133TIP3    H248815   3.937   1.793   4.869 -0.0413  2.2666  0.5638
 9134TIP3   OH248816   4.889   2.492   3.421 -0.3315  0.0093  0.5415
 9134TIP3    H148817   4.808   2.509   3.373  1.1246  0.5451 -1.8739
 9134TIP3    H248818   4.933   2.424   3.370  0.4685 -0.7768  2.1973
 9135TIP3   OH248819   3.984   4.223  16.454 -0.0816 -0.6181 -0.8609
 9135TIP3    H148820   4.005   4.191  16.542 -1.0275 -2.7794 -1.3534
 9135TIP3    H248821   3.911   4.282  16.467 -0.5742 -1.3470 -0.2154
 9136TIP3   OH248822   1.779   2.727  17.288  0.4537 -0.2774  0.7974
 9136TIP3    H148823   1.704   2.768  17.332 -0.5544 -0.5512 -0.5841
 9136TIP3    H248824   1.802   2.787  17.217 -0.3539 -1.5099 -0.5869
 9137TIP3   OH248825   6.150   2.296   5.429  0.8500  0.2861 -0.4076
 9137TIP3    H148826   6.093   2.357   5.382  0.3127 -0.1182 -0.2895
 9137TIP3    H248827   6.223   2.281   5.370 -0.3378 -1.0788 -1.6055
 9138TIP3   OH248828   5.889   0.821  14.649  0.0471  0.0203 -0.1053
 9138TIP3    H148829   5.804   0.800  14.688 -0.1898 -0.9943 -1.0811
 9138TIP3    H248830   5.948   0.755  14.685  0.3636  0.5597  0.3658
 9139TIP3   OH248831   1.964   3.209   3.288 -0.1258  0.6130  0.5024
 9139TIP3    H148832   1.987   3.246   3.373  0.2811 -0.5973  0.9435
 9139TIP3    H248833   1.925   3.124   3.309 -0.8723  0.6977 -0.4811
 9140TIP3   OH248834   2.015   2.172   3.390  0.2497 -0.2850  0.2478
 9140TIP3    H148835   2.040   2.262   3.373  3.4797 -1.1784 -0.4156
 9140TIP3    H248836   2.006   2.133   3.303 -0.0593 -0.8433  0.5251
 9141TIP3   OH248837   5.572   5.791  13.459 -0.4492 -0.1824 -0.1018
 9141TIP3    H148838   5.483   5.818  13.438 -1.6103 -1.7975  2.2016
 9141TIP3    H248839   5.581   5.810  13.553  0.9329 -1.7227  0.1304
 9142TIP3   OH248840   5.518   6.219   1.925 -0.0305 -0.0294  0.5494
 9142TIP3    H148841   5.531   6.192   2.016 -2.1954 -2.4953  0.2566
 9142TIP3    H248842   5.597   6.190   1.879 -0.0448 -1.2085  1.2224
 9143TIP3   OH248843   3.362   1.044   3.205 -0.6471 -0.0392  0.4382
 9143TIP3    H148844   3.321   1.119   3.248  0.8873  0.7302  0.6162
 9143TIP3    H248845   3.374   1.073   3.114 -2.4571 -1.0880 -0.1998
 9144TIP3   OH248846   2.105   1.808  13.645  0.0931  0.5526  0.2502
 9144TIP3    H148847   2.066   1.870  13.583 -0.3640  1.7344  1.6748
 9144TIP3    H248848   2.197   1.831  13.647  0.4598 -0.6094 -1.2285
 9145TIP3   OH248849   6.167   0.613  16.776  0.2202 -0.4564 -0.1975
 9145TIP3    H148850   6.114   0.648  16.848  0.3880  0.7882 -0.6446
 9145TIP3    H248851   6.102   0.588  16.709 -0.1047 -3.6701  1.1385
 9146TIP3   OH248852   3.369   1.470   2.184  0.6284 -0.1445  0.1776
 9146TIP3    H148853   3.315   1.405   2.230 -0.4712  0.7109  0.1465
 9146TIP3    H248854   3.457   1.433   2.184  0.3459 -0.8774  1.6060
 9147TIP3   OH248855   4.149   2.733   3.762  0.2559  0.2339  0.3047
 9147TIP3    H148856   4.226   2.785   3.741  0.6793 -1.0599 -1.7052
 9147TIP3    H248857   4.183   2.657   3.808 -0.0026  0.3388  0.6722
 9148TIP3   OH248858   6.062   1.620   1.398  0.5494 -0.5682 -0.1594
 9148TIP3    H148859   6.150   1.609   1.361 -0.1289 -0.7702 -1.7625
 9148TIP3    H248860   6.005   1.636   1.323 -0.7623 -0.1448  0.8765
 9149TIP3   OH248861   1.276   5.090  17.162 -0.6127  0.4451  0.3607
 9149TIP3    H148862   1.249   5.131  17.244 -0.5983  3.1171 -0.8323
 9149TIP3    H248863   1.200   5.041  17.133 -0.4174 -1.0540  2.1952
 9150TIP3   OH248864   3.187   6.606  15.170 -0.3148 -0.3173 -1.1863
 9150TIP3    H148865   3.168   6.693  15.134  1.4106  0.2113 -0.8884
 9150TIP3    H248866   3.123   6.596  15.241 -0.0994  1.0224 -0.7571
 9151TIP3   OH248867   1.444   2.004  10.975  0.3917 -0.4868  0.5006
 9151TIP3    H148868   1.357   2.043  10.975  0.3936 -0.4382 -0.8493
 9151TIP3    H248869   1.504   2.078  10.976  0.3988 -0.4658 -0.5381
 9152TIP3   OH248870   4.534   1.160   4.352  0.1182  0.3052  0.0214
 9152TIP3    H148871   4.569   1.075   4.326 -1.9106 -0.5910  0.0737
 9152TIP3    H248872   4.599   1.223   4.321  0.6377 -1.1135 -1.9325
 9153TIP3   OH248873   6.223   0.915  11.585 -0.7508  0.2876  0.0893
 9153TIP3    H148874   6.162   0.843  11.571  0.4389 -0.9934  1.1534
 9153TIP3    H248875   6.296   0.897  11.526 -0.2784  0.4067  0.6283
 9154TIP3   OH248876   2.031   0.201   1.208 -0.3642 -0.0632 -0.3421
 9154TIP3    H148877   2.022   0.128   1.147  1.3598 -2.9672  2.5276
 9154TIP3    H248878   1.946   0.205   1.252 -0.7671  0.3313 -1.1298
 9155TIP3   OH248879   1.721   1.141   1.232 -0.5737 -0.1111 -0.3019
 9155TIP3    H148880   1.767   1.090   1.300  0.2471 -0.0472 -0.7924
 9155TIP3    H248881   1.684   1.075   1.174 -1.0882 -0.1627  0.0734
 9156TIP3   OH248882   4.297   3.737  17.014  0.2499  0.8057 -0.2993
 9156TIP3    H148883   4.268   3.702  16.930  1.0151  0.0802 -0.2811
 9156TIP3    H248884   4.393   3.738  17.007  0.2923  1.4655  0.2817
 9157TIP3   OH248885   4.016   4.391   4.325 -0.6462  1.0513 -0.1814
 9157TIP3    H148886   4.024   4.452   4.252  0.6300 -0.2839 -1.2155
 9157TIP3    H248887   4.089   4.329   4.313 -2.2791 -1.1189  0.3744
 9158TIP3   OH248888   0.558   4.488   0.354 -0.4303 -0.0137  0.2960
 9158TIP3    H148889   0.480   4.491   0.298  0.8079 -1.1519 -1.6034
 9158TIP3    H248890   0.586   4.397   0.352  0.3448  0.1535  1.8569
 9159TIP3   OH248891   4.980   1.097   0.463  0.6019 -0.9392 -0.0467
 9159TIP3    H148892   4.898   1.144   0.475  0.7986 -0.5033 -0.3977
 9159TIP3    H248893   5.044   1.164   0.441  1.6254 -0.9273  2.5904
 9160TIP3   OH248894   3.048   1.793   2.936 -0.7148 -0.5686  0.3047
 9160TIP3    H148895   2.962   1.775   2.898 -0.1465 -1.9345 -0.4013
 9160TIP3    H248896   3.110   1.774   2.866  0.1805  0.4993  0.7644
 9161TIP3   OH248897   5.868   5.436   2.951 -0.0490 -0.5324 -0.1203
 9161TIP3    H148898   5.910   5.350   2.941  0.6906  0.0499 -2.7934
 9161TIP3    H248899   5.940   5.497   2.965  0.0046  0.2554 -3.1467
 9162TIP3   OH248900   0.576   3.580  14.042  0.5778 -0.6037  0.1162
 9162TIP3    H148901   0.644   3.567  13.975 -0.0788 -1.8544 -0.3489
 9162TIP3    H248902   0.556   3.491  14.072 -2.3956 -0.5621 -1.3406
 9163TIP3   OH248903   2.267   3.391   1.631 -0.0943  0.4193  0.1601
 9163TIP3    H148904   2.231   3.302   1.632  0.4357  0.1554 -1.3079
 9163TIP3    H248905   2.359   3.379   1.604 -0.7822  1.5954 -3.1628
 9164TIP3   OH248906   1.852   0.630  15.579  0.3449 -0.8963  0.3748
 9164TIP3    H148907   1.792   0.666  15.643  1.5317 -1.0827  1.6462
 9164TIP3    H248908   1.800   0.619  15.500 -0.7552  0.9249  0.7788
 9165TIP3   OH248909   3.397   6.437   2.146 -0.5296  0.7614 -0.2851
 9165TIP3    H148910   3.392   6.492   2.224  0.5482  1.2646 -0.5460
 9165TIP3    H248911   3.490   6.413   2.139 -1.1219 -2.2562  0.5818
 9166TIP3   OH248912   4.411   1.110  13.007  0.0237 -0.0268 -0.3971
 9166TIP3    H148913   4.472   1.037  13.014  1.0349  0.7793 -0.4551
 9166TIP3    H248914   4.363   1.110  13.090 -0.3813 -1.0794 -0.6193
 9167TIP3   OH248915   2.530   4.805  15.704 -0.0640  0.7067 -0.5061
 9167TIP3    H148916   2.582   4.732  15.740  0.6541  2.1107  1.5011
 9167TIP3    H248917   2.440   4.781  15.724  0.1347  0.1700 -0.1985
 9168TIP3   OH248918   2.532   0.934  16.614  0.3112  0.3364 -0.0807
 9168TIP3    H148919   2.616   0.978  16.604 -0.2532  1.2130 -1.0503
 9168TIP3    H248920   2.554   0.841  16.620  1.3372  0.5481 -0.4801
 9169TIP3   OH248921   3.869   5.566   4.702 -0.1733  0.0987  0.0877
 9169TIP3    H148922   3.937   5.557   4.769 -0.1964 -0.2309  0.0677
 9169TIP3    H248923   3.916   5.589   4.622 -0.1476  0.5238  0.2202
 9170TIP3   OH248924   6.237   2.920   5.494 -0.1884 -0.4121  0.0896
 9170TIP3    H148925   6.147   2.936   5.468  0.4782  1.4246 -1.2903
 9170TIP3    H248926   6.289   2.973   5.433  1.8686 -2.1375  0.2414
 9171TIP3   OH248927   0.426   5.047   4.453 -0.2209  0.2317 -0.4756
 9171TIP3    H148928   0.515   5.067   4.482  0.0013 -0.0388 -0.9531
 9171TIP3    H248929   0.428   4.953   4.434 -0.9316 -0.0271  0.6495
 9172TIP3   OH248930   5.458   5.470   4.646 -0.7000 -0.5203  0.0793
 9172TIP3    H148931   5.370   5.445   4.615 -0.8365  0.1926 -0.1273
 9172TIP3    H248932   5.445   5.494   4.737 -0.6789 -0.6166  0.1081
 9173TIP3   OH248933   2.608   5.618   0.293  0.1358  0.4607  0.2747
 9173TIP3    H148934   2.524   5.620   0.245 -0.0481  0.4372  0.5923
 9173TIP3    H248935   2.674   5.635   0.226 -0.1642  1.0282  0.1163
 9174TIP3   OH248936   0.998   6.105   1.847  0.5230  0.3409  0.2652
 9174TIP3    H148937   1.015   6.017   1.815  2.1516  0.8409 -0.3373
 9174TIP3    H248938   1.082   6.137   1.878 -0.4627  0.8870  2.6166
 9175TIP3   OH248939   2.502   6.221   3.869 -0.0561 -0.0214 -0.1998
 9175TIP3    H148940   2.506   6.291   3.935 -0.6449  2.4427 -2.6174
 9175TIP3    H248941   2.586   6.176   3.879  0.0580  0.5280  1.9161
 9176TIP3   OH248942   2.963   2.917   0.085 -0.3166 -0.7939 -0.2731
 9176TIP3    H148943   2.943   2.944  -0.005 -2.6599 -0.6218  0.2236
 9176TIP3    H248944   2.934   2.991   0.139  1.3219 -0.7757  0.6369
 9177TIP3   OH248945   4.771   2.886   3.028  0.1039 -0.1914  0.0223
 9177TIP3    H148946   4.713   2.821   2.988 -0.8469 -0.0615  1.1306
 9177TIP3    H248947   4.849   2.837   3.053 -0.5751 -0.8986  0.7850
 9178TIP3   OH248948   6.088   3.010   0.456  0.0663 -0.4783 -0.2586
 9178TIP3    H148949   6.155   3.006   0.388 -0.1838 -0.6212 -0.4963
 9178TIP3    H248950   6.050   2.922   0.458 -2.0332  0.2998 -2.0623
 9179TIP3   OH248951   1.380   4.480  14.571  0.3110  0.1470 -0.0265
 9179TIP3    H148952   1.342   4.443  14.651 -1.0113  1.0218 -0.2219
 9179TIP3    H248953   1.427   4.407  14.530  0.9258 -0.3358  1.4813
 9180TIP3   OH248954   3.093   4.359   3.914 -0.1195  0.7482  0.5010
 9180TIP3    H148955   3.123   4.447   3.937 -2.5485  1.5895  0.7034
 9180TIP3    H248956   3.036   4.372   3.838  1.7060 -1.0518 -1.2844
 9181TIP3   OH248957   0.028   0.627  16.779 -0.5825  0.8155  0.1725
 9181TIP3    H148958  -0.027   0.665  16.711  0.4293 -0.5475 -1.5158
 9181TIP3    H248959   0.092   0.696  16.800  0.8584  0.3941 -2.4000
 9182TIP3   OH248960   1.100   2.844   0.819  0.7066  0.0500 -0.1365
 9182TIP3    H148961   1.121   2.751   0.813 -1.2151 -0.4067 -0.5080
 9182TIP3    H248962   1.099   2.863   0.913  0.8548 -0.3730 -0.0500
 9183TIP3   OH248963   4.831   0.864  13.016 -0.7551  0.5573  0.8564
 9183TIP3    H148964   4.800   0.937  12.963 -0.9526  0.2999  0.6167
 9183TIP3    H248965   4.912   0.835  12.973  0.7536  2.2562  2.3722
 9184TIP3   OH248966   1.293   3.057   3.723  0.2975 -0.2974 -0.3476
 9184TIP3    H148967   1.237   3.126   3.688 -0.9404 -1.2078 -0.1952
 9184TIP3    H248968   1.296   3.074   3.817 -2.8907 -2.3787  0.2737
 9185TIP3   OH248969   5.846   1.632   2.438 -0.4629 -0.0082  0.4066
 9185TIP3    H148970   5.819   1.724   2.440  1.3919  0.5612  1.5843
 9185TIP3    H248971   5.783   1.588   2.494 -0.3440  0.8682  1.2640
 9186TIP3   OH248972   2.553   2.246   5.049 -0.0794 -0.4304 -0.1934
 9186TIP3    H148973   2.596   2.258   5.133  1.9938 -1.4816 -1.0279
 9186TIP3    H248974   2.540   2.335   5.016 -1.7090  0.0276  1.5652
 9187TIP3   OH248975   3.867   3.700   5.883 -0.1903 -0.0497  0.7568
 9187TIP3    H148976   3.945   3.692   5.937 -0.6011  0.7299  1.5145
 9187TIP3    H248977   3.823   3.615   5.890  1.4443 -1.1189 -1.1204
 9188TIP3   OH248978   4.037   2.861   1.629 -0.0838  0.7658 -0.0299
 9188TIP3    H148979   4.069   2.916   1.701  0.1615  0.5509  0.0280
 9188TIP3    H248980   3.961   2.815   1.666  0.4107  0.1934  0.2891
 9189TIP3   OH248981   1.597   0.890  13.126 -0.2124 -0.3939  0.0024
 9189TIP3    H148982   1.605   0.959  13.192 -0.1472 -0.8800  0.5154
 9189TIP3    H248983   1.681   0.843  13.130 -0.1630 -0.3489 -0.5125
 9190TIP3   OH248984   1.098   0.557   2.824 -0.8134 -0.9846  0.2586
 9190TIP3    H148985   1.055   0.486   2.870 -0.5448  0.0159  2.1310
 9190TIP3    H248986   1.129   0.617   2.893  0.7939 -0.0882 -1.1352
 9191TIP3   OH248987   2.929   3.134  13.472  0.8344 -0.0820  0.5207
 9191TIP3    H148988   2.883   3.192  13.411 -2.3774 -2.0229  0.9190
 9191TIP3    H248989   2.987   3.082  13.416  0.3113  0.3710 -0.4620
 9192TIP3   OH248990   3.137   0.991  11.920 -0.3446 -0.1762 -0.4132
 9192TIP3    H148991   3.100   0.904  11.910 -1.7730  0.4396 -0.8034
 9192TIP3    H248992   3.166   1.015  11.832 -1.1068  0.2089 -0.5737
 9193TIP3   OH248993   1.924   2.342  16.258  0.5390  0.5252  0.5304
 9193TIP3    H148994   2.006   2.389  16.244  0.6788 -0.7160 -5.8059
 9193TIP3    H248995   1.860   2.410  16.277  1.9107  2.4652 -1.3101
 9194TIP3   OH248996   4.300   0.537   3.908  0.2483 -0.4985 -0.0885
 9194TIP3    H148997   4.349   0.565   3.985 -0.4545  0.4662  0.0214
 9194TIP3    H248998   4.263   0.452   3.933  0.8741 -0.6745  0.2540
 9195TIP3   OH248999   5.633   6.272  13.874  0.4088 -0.7181 -0.2020
 9195TIP3    H149000   5.703   6.317  13.827  0.0662  1.7656  1.4531
 9195TIP3    H249001   5.678   6.209  13.930  0.9657 -1.9724 -1.9749
 9196TIP3   OH249002   3.837   6.076  11.004  0.4161  0.5331 -0.1786
 9196TIP3    H149003   3.773   6.009  11.030 -0.0360 -0.1231 -2.6449
 9196TIP3    H249004   3.809   6.155  11.050 -0.7369 -0.3084  0.6412
 9197TIP3   OH249005   6.366   4.172   5.862 -0.5347  0.0121  0.1717
 9197TIP3    H149006   6.451   4.188   5.820 -0.0974 -0.1173  0.9769
 9197TIP3    H249007   6.345   4.081   5.838 -0.6558  0.1873 -0.3877
 9198TIP3   OH249008   2.345   4.520  12.371  0.5302 -0.1225 -0.9913
 9198TIP3    H149009   2.301   4.534  12.454 -0.7964  0.3779 -1.7431
 9198TIP3    H249010   2.399   4.442  12.385  0.0252 -0.2787  0.2006
 9199TIP3   OH249011   4.137   4.952   1.764 -0.2743 -0.0987  0.3991
 9199TIP3    H149012   4.137   4.996   1.849  0.6042 -0.6944  0.7303
 9199TIP3    H249013   4.051   4.971   1.726 -0.5782  0.3855  1.3086
 9200TIP3   OH249014   1.567   4.866   0.970 -0.4673  0.0561 -0.2154
 9200TIP3    H149015   1.579   4.918   0.891  0.7221  0.5054  0.2482
 9200TIP3    H249016   1.511   4.920   1.026 -1.3175 -0.2657 -0.7271
 9201TIP3   OH249017   3.415   2.562   1.258 -0.1554 -0.2379 -0.2055
 9201TIP3    H149018   3.373   2.546   1.173  0.8457 -0.1170 -0.7405
 9201TIP3    H249019   3.407   2.479   1.305  1.4395 -1.1055 -1.3856
 9202TIP3   OH249020   0.993   1.235   3.526  0.2669  0.5853 -0.6333
 9202TIP3    H149021   1.077   1.251   3.568  0.3521  1.4206 -1.0965
 9202TIP3    H249022   0.933   1.214   3.598  1.2777 -1.9976 -0.4479
 9203TIP3   OH249023   6.240   5.267   5.726 -0.0283 -0.1122 -0.2758
 9203TIP3    H149024   6.273   5.351   5.696 -0.5100 -0.1939 -1.0649
 9203TIP3    H249025   6.289   5.249   5.807 -1.3469  1.8760  1.0574
 9204TIP3   OH249026   3.377   2.630  13.763  0.1761 -0.3965  0.5100
 9204TIP3    H149027   3.302   2.684  13.739  0.9557  0.4329 -0.1100
 9204TIP3    H249028   3.394   2.576  13.686  1.6713  1.1180 -0.2898
 9205TIP3   OH249029   2.414   4.667   5.289 -0.5088  0.1525 -0.0080
 9205TIP3    H149030   2.479   4.725   5.329 -0.3865 -0.2927  0.4597
 9205TIP3    H249031   2.387   4.712   5.209  0.4965  0.2844 -0.2968
 9206TIP3   OH249032   0.210   5.130  12.724 -0.3583 -0.1890 -0.2932
 9206TIP3    H149033   0.215   5.072  12.800 -1.0535  0.6842  0.4411
 9206TIP3    H249034   0.283   5.191  12.736 -1.2788  0.8019  0.4203
 9207TIP3   OH249035   3.529   4.379   4.946 -0.2712  0.2491  0.3111
 9207TIP3    H149036   3.506   4.462   4.903 -0.2484  0.0584 -0.0699
 9207TIP3    H249037   3.582   4.333   4.881  1.4462  0.8040  1.2637
 9208TIP3   OH249038   6.576   6.247  12.214  0.1790  0.4665 -0.1954
 9208TIP3    H149039   6.602   6.327  12.168  0.2988 -0.4942 -1.8890
 9208TIP3    H249040   6.658   6.201  12.229  0.1919  0.9414  1.4286
 9209TIP3   OH249041   3.985   3.887  12.803 -0.7361  0.4531  0.0418
 9209TIP3    H149042   3.948   3.801  12.823 -0.6771  0.2840 -0.5569
 9209TIP3    H249043   4.048   3.870  12.733  1.9943  0.3820  2.3429
 9210TIP3   OH249044   1.357   2.811  16.359 -0.4204  0.0590  0.5701
 9210TIP3    H149045   1.378   2.734  16.306 -1.1062  0.9562 -1.0967
 9210TIP3    H249046   1.329   2.775  16.443  1.3251 -1.3931  0.5748
 9211TIP3   OH249047   6.683   2.956  12.541 -0.0444 -0.7519  0.0325
 9211TIP3    H149048   6.733   2.944  12.461 -0.0676  1.4217 -0.3676
 9211TIP3    H249049   6.687   3.050  12.558 -0.6315 -1.0623  2.2025
 9212TIP3   OH249050   0.153   3.298  14.447  0.1050  0.4867 -0.2981
 9212TIP3    H149051   0.216   3.261  14.385 -2.6872 -0.1916 -3.0055
 9212TIP3    H249052   0.069   3.292  14.402 -1.7909  2.3654  2.6250
 9213TIP3   OH249053   5.117   5.240  15.822  0.0997 -0.3114 -0.2301
 9213TIP3    H149054   5.156   5.284  15.897 -0.4264  0.4970 -0.4148
 9213TIP3    H249055   5.147   5.290  15.746 -1.0211  0.1377 -0.3953
 9214TIP3   OH249056   6.388   6.130   1.419 -0.3261  0.3291  0.3226
 9214TIP3    H149057   6.383   6.197   1.351  0.0030  0.4307  0.3973
 9214TIP3    H249058   6.481   6.109   1.426 -0.1713  1.2757  1.6481
 9215TIP3   OH249059   6.437   0.949   1.176  0.1408  0.1236 -0.1931
 9215TIP3    H149060   6.499   0.878   1.158  1.8467  1.1818  1.1701
 9215TIP3    H249061   6.440   0.959   1.271 -1.3188  0.9659 -0.2066
 9216TIP3   OH249062   2.248   5.464  13.068  0.5600 -0.3566  0.3528
 9216TIP3    H149063   2.215   5.547  13.102 -0.9348 -1.6732  2.3532
 9216TIP3    H249064   2.320   5.489  13.010 -0.4839  2.3566  0.0898
 9217TIP3   OH249065   4.970   1.215   1.132 -0.4338  0.3564  0.4616
 9217TIP3    H149066   4.898   1.153   1.137 -0.4366  0.3160  0.0358
 9217TIP3    H249067   5.040   1.167   1.087 -1.1957  1.3159 -1.9687
 9218TIP3   OH249068   3.062   3.018  15.563 -0.1298 -0.0775 -0.1457
 9218TIP3    H149069   3.044   3.005  15.656 -1.2831 -0.6235 -0.4356
 9218TIP3    H249070   2.992   2.972  15.518  0.8381 -0.4632 -1.3063
 9219TIP3   OH249071   3.085   0.829   6.700 -0.1127 -0.1260 -0.5250
 9219TIP3    H149072   3.133   0.871   6.629 -0.5071  2.4062  0.5775
 9219TIP3    H249073   3.151   0.808   6.765 -0.1564  1.0302 -0.0834
 9220TIP3   OH249074   5.422   4.458  14.050 -0.1293 -0.2516  0.0921
 9220TIP3    H149075   5.479   4.489  14.121 -0.1989  1.2690 -0.4818
 9220TIP3    H249076   5.479   4.405  13.995  0.4790  0.3854  0.0974
 9221TIP3   OH249077   0.148   2.964  14.987 -0.0139 -0.5774  0.6003
 9221TIP3    H149078   0.140   2.968  14.892  1.5527  1.3853  0.4947
 9221TIP3    H249079   0.230   3.009  15.006  0.4659 -2.2120  2.8026
 9222TIP3   OH249080   6.305   3.015   4.286 -0.2252 -0.0099 -0.1236
 9222TIP3    H149081   6.223   3.019   4.336 -1.8293  1.5132 -2.6038
 9222TIP3    H249082   6.331   3.107   4.277  1.8365 -0.4756  0.6433
 9223TIP3   OH249083   4.190   0.393  14.657  0.3013 -0.2183 -0.2366
 9223TIP3    H149084   4.253   0.348  14.714 -0.6941 -2.8863 -1.1041
 9223TIP3    H249085   4.108   0.346  14.669 -0.9190  1.6017 -1.0161
 9224TIP3   OH249086   5.158   0.170   2.050  0.1537 -0.1142 -0.0519
 9224TIP3    H149087   5.211   0.156   2.128  0.1472  1.2719  0.2294
 9224TIP3    H249088   5.068   0.176   2.082  0.0106 -0.7729 -0.3206
 9225TIP3   OH249089   0.980   6.754  13.117  0.0458 -0.5182 -0.2742
 9225TIP3    H149090   1.066   6.770  13.078 -0.0626  0.3746 -0.1715
 9225TIP3    H249091   1.000   6.715  13.202  0.4238  1.0402  0.3937
 9226TIP3   OH249092   4.852   3.852   4.086 -0.3507 -0.2328 -0.4223
 9226TIP3    H149093   4.834   3.783   4.150 -0.6415  1.1338  1.0103
 9226TIP3    H249094   4.947   3.860   4.086 -0.2488 -1.2122 -1.2577
 9227TIP3   OH249095   0.083   1.638  13.087 -0.4640 -0.5727  0.0342
 9227TIP3    H149096   0.069   1.621  13.180  2.0092  2.4145  1.1479
 9227TIP3    H249097   0.055   1.729  13.075  1.3544 -0.1559 -1.5462
 9228TIP3   OH249098   3.701   2.666  14.129  0.6328 -0.0126  0.1122
 9228TIP3    H149099   3.636   2.667  14.058 -0.1561 -1.4391  0.7571
 9228TIP3    H249100   3.670   2.597  14.188  2.1774  0.0068  0.9876
 9229TIP3   OH249101   0.019   6.694   5.248 -0.3064 -0.2339  0.6377
 9229TIP3    H149102  -0.003   6.650   5.330  0.8854 -1.7175  0.2140
 9229TIP3    H249103  -0.014   6.783   5.259  0.3816 -0.1785  2.9940
 9230TIP3   OH249104   4.144   5.583   4.811  0.1779  0.1887 -0.6661
 9230TIP3    H149105   4.136   5.627   4.896  1.6598 -0.3788 -0.2022
 9230TIP3    H249106   4.213   5.632   4.766 -0.5140  0.4063 -1.5077
 9231TIP3   OH249107   6.717   5.438   4.254 -0.1039  0.4493  0.1257
 9231TIP3    H149108   6.679   5.357   4.286 -0.7136  0.8014  0.3179
 9231TIP3    H249109   6.802   5.444   4.297 -0.1663  0.0416  0.3063
 9232TIP3   OH249110   1.258   1.920  11.864 -0.2822  0.1239  0.1485
 9232TIP3    H149111   1.166   1.911  11.841  0.1576  1.0577 -2.2469
 9232TIP3    H249112   1.302   1.849  11.817  0.1151 -1.3278  2.5357
 9233TIP3   OH249113   2.855   3.238   5.285 -0.0235 -0.4713 -0.0200
 9233TIP3    H149114   2.805   3.186   5.347  0.8820  1.1824  2.2406
 9233TIP3    H249115   2.853   3.327   5.320  1.5956  0.3089 -1.6950
 9234TIP3   OH249116   1.749   5.731   4.464 -0.3673  0.2590 -0.4388
 9234TIP3    H149117   1.791   5.817   4.466  1.2043 -0.4637 -1.0880
 9234TIP3    H249118   1.789   5.683   4.537 -3.5028  1.0107  1.9869
 9235TIP3   OH249119   6.599   2.395   0.465  0.2557 -0.0114  0.0832
 9235TIP3    H149120   6.555   2.325   0.513  0.2147 -0.3740 -0.4696
 9235TIP3    H249121   6.625   2.457   0.532 -1.0466  0.1842  0.4390
 9236TIP3   OH249122   0.131   5.657  12.725 -0.3897 -0.1661 -0.4662
 9236TIP3    H149123   0.160   5.586  12.668 -0.4665 -0.0027 -0.7105
 9236TIP3    H249124   0.060   5.620  12.776  0.0399 -0.4766 -0.0853
 9237TIP3   OH249125   5.039   0.620  15.535 -0.2373  0.3842 -0.1151
 9237TIP3    H149126   5.082   0.566  15.602 -2.0658  0.8396  1.5282
 9237TIP3    H249127   5.097   0.696  15.524  1.6370 -1.1310 -1.3947
 9238TIP3   OH249128   6.020   0.079  17.192 -0.0871 -0.2650 -0.1427
 9238TIP3    H149129   5.996  -0.011  17.170 -0.0315 -0.4746  0.6084
 9238TIP3    H249130   5.940   0.129  17.180  0.1607 -0.1896 -1.6782
 9239TIP3   OH249131   1.302   6.659   3.387 -0.1498 -0.5783 -0.7196
 9239TIP3    H149132   1.305   6.753   3.371  1.2961 -0.5645 -0.5283
 9239TIP3    H249133   1.266   6.651   3.475 -1.8179 -0.3083 -1.3540
 9240TIP3   OH249134   5.717   4.767  12.203 -0.5422 -0.1881  0.0230
 9240TIP3    H149135   5.759   4.708  12.139 -1.1500 -0.5354 -0.0628
 9240TIP3    H249136   5.718   4.717  12.285 -1.7997 -0.6680 -0.2327
 9241TIP3   OH249137   4.425   1.373   1.661 -0.1878  0.1529  0.4718
 9241TIP3    H149138   4.352   1.357   1.722 -0.7066  2.0052  0.3837
 9241TIP3    H249139   4.385   1.363   1.574 -0.2512  0.8310  0.4241
 9242TIP3   OH249140   4.700   4.569  11.099 -0.0745 -0.0923 -0.0520
 9242TIP3    H149141   4.715   4.619  11.018  0.0126 -0.9618 -0.5912
 9242TIP3    H249142   4.785   4.570  11.143  0.8496 -2.3487 -1.5748
 9243TIP3   OH249143   5.589   3.459   5.262  0.2596  0.3220  0.6898
 9243TIP3    H149144   5.520   3.396   5.242  1.1250 -0.6068  0.5615
 9243TIP3    H249145   5.548   3.521   5.323 -1.0877  0.6110 -0.4602
 9244TIP3   OH249146   0.992   2.372   2.679 -0.0375 -0.2945 -0.1062
 9244TIP3    H149147   1.065   2.322   2.644  0.3774 -0.3759  0.8601
 9244TIP3    H249148   1.010   2.463   2.654  0.7191 -0.2277  0.6582
 9245TIP3   OH249149   5.374   2.848  13.369 -0.2577 -0.7358 -0.4478
 9245TIP3    H149150   5.363   2.858  13.274  0.2910  0.8690 -0.3654
 9245TIP3    H249151   5.297   2.891  13.407  0.8699  1.1268 -0.1379
 9246TIP3   OH249152   2.364   2.053   0.884  0.3446  0.4234  0.8693
 9246TIP3    H149153   2.453   2.069   0.851  0.7029 -0.6141  1.2771
 9246TIP3    H249154   2.307   2.092   0.819  1.1097  2.9949  1.6389
 9247TIP3   OH249155   0.151   2.807  15.625 -0.0821  0.4306 -0.3681
 9247TIP3    H149156   0.151   2.828  15.532 -3.3396  1.7558 -0.2058
 9247TIP3    H249157   0.076   2.749  15.637  1.2884 -1.1389  1.2338
 9248TIP3   OH249158   6.726   0.118  11.614  0.1528  0.4375  0.4550
 9248TIP3    H149159   6.801   0.128  11.673  0.4617  0.0042  0.1372
 9248TIP3    H249160   6.733   0.192  11.553  0.0674  0.6481  0.6972
 9249TIP3   OH249161   1.277   2.146   3.338 -0.2878  0.1890 -0.1577
 9249TIP3    H149162   1.368   2.173   3.351 -0.6560  1.0289  0.8394
 9249TIP3    H249163   1.231   2.228   3.320 -0.9020 -0.1891 -0.3203
 9250TIP3   OH249164   4.885   6.096   0.352 -0.3132 -0.5490 -0.1419
 9250TIP3    H149165   4.867   6.002   0.361 -0.8572 -0.4388 -0.0696
 9250TIP3    H249166   4.931   6.104   0.268  0.4582 -0.9748  0.2255
 9251TIP3   OH249167   0.802   1.544  11.073  0.2218 -0.6987  0.2469
 9251TIP3    H149168   0.832   1.588  11.152  1.0464  0.2060 -0.5547
 9251TIP3    H249169   0.795   1.613  11.008  2.7762 -1.8438 -1.4207
 9252TIP3   OH249170   5.977   2.183  12.130  0.6955 -0.1620 -0.5439
 9252TIP3    H149171   6.027   2.203  12.050  0.7889 -1.0172 -0.7006
 9252TIP3    H249172   5.931   2.265  12.150  2.7256  0.9001  0.0366
 9253TIP3   OH249173   6.469   3.631  15.200 -0.2144  0.2337  0.1511
 9253TIP3    H149174   6.377   3.649  15.180 -1.0637 -0.2504  3.0894
 9253TIP3    H249175   6.511   3.716  15.199 -0.6375  0.4498 -1.3601
 9254TIP3   OH249176   2.602   3.410  16.918 -0.3540 -0.2283 -0.0828
 9254TIP3    H149177   2.662   3.348  16.876  2.9734  1.8239  1.2154
 9254TIP3    H249178   2.588   3.478  16.852  1.3746  0.8225  0.5577
 9255TIP3   OH249179   2.070   2.088   5.618 -0.0076  0.0636 -0.4816
 9255TIP3    H149180   1.992   2.056   5.664 -0.2032  0.8612 -0.2443
 9255TIP3    H249181   2.141   2.075   5.681 -0.2479  0.9922  0.0094
 9256TIP3   OH249182   1.551   4.051  17.210  0.1052 -0.1424 -0.5250
 9256TIP3    H149183   1.632   4.086  17.173 -0.0474 -1.6162 -2.4177
 9256TIP3    H249184   1.576   3.964  17.242  0.1175  0.8841  2.6066
 9257TIP3   OH249185   2.734   3.006  14.529 -0.2947  0.4744 -0.4569
 9257TIP3    H149186   2.782   3.089  14.527 -0.3038  0.4648 -1.1003
 9257TIP3    H249187   2.788   2.946  14.478 -2.0461  1.0460 -3.1696
 9258TIP3   OH249188   3.775   6.074  14.088  0.5514 -0.1920  0.0795
 9258TIP3    H149189   3.826   6.071  14.007 -0.4796 -4.1292 -0.6258
 9258TIP3    H249190   3.830   6.029  14.152 -0.2695 -0.6414  0.4728
 9259TIP3   OH249191   1.521   0.643   0.605 -0.1222  0.8180  0.2201
 9259TIP3    H149192   1.545   0.617   0.516  0.9087 -1.3122  1.0659
 9259TIP3    H249193   1.426   0.654   0.602 -0.0510  1.3492 -1.2425
 9260TIP3   OH249194   4.986   2.637  12.798  0.0062  0.6114 -0.2146
 9260TIP3    H149195   4.915   2.664  12.856  0.2377  1.1111 -0.1563
 9260TIP3    H249196   5.060   2.692  12.823  0.4177  0.0976 -0.2777
 9261TIP3   OH249197   5.899   1.218   2.690 -0.3863  0.2022 -0.5115
 9261TIP3    H149198   5.935   1.231   2.777  2.2435 -1.4934 -1.2252
 9261TIP3    H249199   5.955   1.271   2.633 -0.4812 -0.6298 -1.4086
 9262TIP3   OH249200   5.130   5.336   1.490 -0.4549  0.2905  0.3664
 9262TIP3    H149201   5.123   5.329   1.585 -4.7276 -0.9386  0.1724
 9262TIP3    H249202   5.059   5.396   1.466  1.1474  1.3509 -2.0420
 9263TIP3   OH249203   1.164   4.780   0.329 -0.3821 -0.1761  0.0565
 9263TIP3    H149204   1.118   4.843   0.384  1.2274 -0.5519  1.9476
 9263TIP3    H249205   1.245   4.825   0.305 -0.1575 -0.7720 -0.3095
 9264TIP3   OH249206   4.880   6.728   1.969  0.0343 -0.5023 -0.3952
 9264TIP3    H149207   4.801   6.675   1.953  0.3701 -1.0943 -0.1279
 9264TIP3    H249208   4.938   6.706   1.896 -0.1072  0.0549 -0.6772
 9265TIP3   OH249209   2.732   2.642   1.331 -0.4075 -0.0980  0.0747
 9265TIP3    H149210   2.656   2.671   1.281 -0.1762  0.2549 -0.0797
 9265TIP3    H249211   2.736   2.547   1.319 -1.7254 -0.3445  1.3371
 9266TIP3   OH249212   2.312   3.131   6.197 -0.0378 -0.1743 -0.0666
 9266TIP3    H149213   2.351   3.119   6.284 -0.0827 -1.6146 -0.2296
 9266TIP3    H249214   2.344   3.057   6.146  1.3075  1.4980 -1.7933
 9267TIP3   OH249215   4.836   1.665   0.036  0.0118  0.5289 -0.0946
 9267TIP3    H149216   4.860   1.722   0.109 -0.3768  0.5995 -0.0170
 9267TIP3    H249217   4.919   1.639  -0.003  0.1918  1.5703 -0.4547
 9268TIP3   OH249218   4.204   1.040   5.202 -0.2358 -0.3362  0.1243
 9268TIP3    H149219   4.290   1.048   5.243 -0.1768  0.4737 -0.1308
 9268TIP3    H249220   4.221   0.992   5.120 -0.1509 -0.8251  0.4251
 9269TIP3   OH249221   3.856   5.710  11.949 -0.6947 -0.4906 -0.2255
 9269TIP3    H149222   3.910   5.633  11.967 -0.4999 -0.3172 -0.0507
 9269TIP3    H249223   3.840   5.749  12.035 -0.1021  0.1138 -0.3716
 9270TIP3   OH249224   1.671   0.158   4.041  0.0180 -0.2147 -0.3461
 9270TIP3    H149225   1.614   0.088   4.009 -0.1941 -0.2962  0.1966
 9270TIP3    H249226   1.617   0.237   4.036  0.6349  0.1589 -2.1004
 9271TIP3   OH249227   5.343   0.040   2.209  0.4936 -0.6674 -0.2431
 9271TIP3    H149228   5.394  -0.014   2.148  0.5486 -0.6533 -0.2102
 9271TIP3    H249229   5.402   0.112   2.232 -0.0128  0.0933 -1.2515
 9272TIP3   OH249230   3.761   2.766   0.501 -0.2824  0.0872  0.3894
 9272TIP3    H149231   3.799   2.698   0.556 -0.2305 -0.3615 -0.1960
 9272TIP3    H249232   3.739   2.837   0.562  0.5990 -0.0344  0.8634
 9273TIP3   OH249233   5.345   3.726   0.712 -0.1672  0.4006  0.0639
 9273TIP3    H149234   5.250   3.723   0.701 -0.5480  1.4800  2.4923
 9273TIP3    H249235   5.377   3.646   0.671 -2.1700 -0.2061 -0.3823
 9274TIP3   OH249236   3.360   1.458  15.527  0.7251  0.3817  0.0731
 9274TIP3    H149237   3.403   1.392  15.472  0.8055  0.4825  0.0140
 9274TIP3    H249238   3.305   1.507  15.466  0.8057  0.4865  0.0835
 9275TIP3   OH249239   6.031   5.987  16.621 -0.3160  0.2021 -0.1822
 9275TIP3    H149240   5.992   5.980  16.708 -0.0199 -2.3185 -0.2010
 9275TIP3    H249241   5.976   5.932  16.565  1.0373 -0.3505 -1.0186
 9276TIP3   OH249242   6.390   0.908   0.869  0.0676  0.1297 -0.3791
 9276TIP3    H149243   6.411   0.907   0.963 -0.5954 -0.7817 -0.2283
 9276TIP3    H249244   6.475   0.905   0.826  0.4482  1.7042  0.1614
 9277TIP3   OH249245   2.536   6.159   1.445  0.0527  0.6840 -0.2942
 9277TIP3    H149246   2.605   6.105   1.405  0.0055  0.6898 -0.3836
 9277TIP3    H249247   2.550   6.246   1.410 -0.2902  0.5865 -0.6834
 9278TIP3   OH249248   3.755   3.461  11.889 -0.0068  0.3812  0.0696
 9278TIP3    H149249   3.712   3.399  11.949 -1.9802  2.2860  0.7337
 9278TIP3    H249250   3.715   3.443  11.804 -0.3248  0.5016  0.1916
 9279TIP3   OH249251   1.557   2.731  16.730 -0.1866  0.1739 -0.2179
 9279TIP3    H149252   1.617   2.693  16.794 -0.5543 -0.6273 -0.3353
 9279TIP3    H249253   1.545   2.821  16.759 -0.9238 -0.3692  1.2750
 9280TIP3   OH249254   0.511   6.029  11.731  0.1293  0.4088  0.4502
 9280TIP3    H149255   0.430   6.026  11.680 -1.4804  3.0053  2.5628
 9280TIP3    H249256   0.489   5.984  11.813  1.6278 -0.8405  0.2187
 9281TIP3   OH249257   1.350   6.078  17.158  0.3919 -0.1982  0.2168
 9281TIP3    H149258   1.365   6.051  17.249  1.9154 -0.4286 -0.0777
 9281TIP3    H249259   1.428   6.128  17.134 -0.4823  0.8036 -0.6315
 9282TIP3   OH249260   4.849   5.287  15.616 -0.0200  0.6363  0.2754
 9282TIP3    H149261   4.814   5.200  15.597 -2.3565  1.4117  0.7389
 9282TIP3    H249262   4.913   5.303  15.546 -0.2886 -1.0135 -0.4004
 9283TIP3   OH249263   3.075   1.163   2.345  0.2448  0.3460  1.0925
 9283TIP3    H149264   3.067   1.241   2.289 -0.0749  2.1329  3.4481
 9283TIP3    H249265   3.047   1.091   2.289 -1.5379  2.1936 -0.6181
 9284TIP3   OH249266   5.858   5.436   3.476 -0.0517  0.4872 -0.4262
 9284TIP3    H149267   5.822   5.462   3.392 -0.8591  1.0149  0.0715
 9284TIP3    H249268   5.870   5.341   3.469 -3.0749 -0.0164 -0.0726
 9285TIP3   OH249269   2.953   0.554  15.367  0.0593 -0.0212 -0.0353
 9285TIP3    H149270   2.914   0.467  15.378  0.8783 -0.3047  0.7720
 9285TIP3    H249271   3.030   0.553  15.424  0.5167  0.9723 -0.6108
 9286TIP3   OH249272   1.800   2.442  11.983 -0.0965  0.0995 -0.1546
 9286TIP3    H149273   1.845   2.446  12.067 -0.8222  1.9729  0.1947
 9286TIP3    H249274   1.870   2.430  11.919  0.5313 -0.6618  0.6547
 9287TIP3   OH249275   4.770   4.310  16.458  0.3811 -0.1453 -0.5015
 9287TIP3    H149276   4.688   4.262  16.465 -1.5618  2.6502 -1.8185
 9287TIP3    H249277   4.814   4.297  16.542 -0.6918 -2.8490 -0.2812
 9288TIP3   OH249278   0.647   4.492   0.801 -0.2511  0.4066  0.3910
 9288TIP3    H149279   0.719   4.431   0.815 -0.3170  0.3278  0.3820
 9288TIP3    H249280   0.573   4.454   0.848  0.1398  1.3083  1.8229
 9289TIP3   OH249281   4.029   3.131   2.454 -0.1703  0.0436  0.2228
 9289TIP3    H149282   4.001   3.180   2.532  0.2059  0.3677  0.1598
 9289TIP3    H249283   4.101   3.183   2.418 -0.8101  0.2618 -0.7538
 9290TIP3   OH249284   2.133   0.224  12.120 -0.3127  0.1567 -0.2945
 9290TIP3    H149285   2.137   0.166  12.044 -0.0399 -0.4762  0.1920
 9290TIP3    H249286   2.205   0.286  12.106  2.1683 -2.1859  1.1961
 9291TIP3   OH249287   4.156   2.343   4.658 -0.3785  0.1920  0.0366
 9291TIP3    H149288   4.071   2.362   4.619 -0.6267 -2.0453 -0.6026
 9291TIP3    H249289   4.215   2.330   4.584 -0.3731 -1.9934  0.3607
 9292TIP3   OH249290   3.813   5.573  14.348  0.0290  0.2999  0.4090
 9292TIP3    H149291   3.894   5.546  14.392 -0.8882 -3.1912  0.1893
 9292TIP3    H249292   3.791   5.500  14.290 -2.3227  1.9499 -0.9479
 9293TIP3   OH249293   5.374   5.700  12.464 -0.2280 -0.1865  0.2226
 9293TIP3    H149294   5.318   5.769  12.428 -2.4685 -2.3847 -0.7888
 9293TIP3    H249295   5.451   5.747  12.497 -1.4825  2.7357 -0.6447
 9294TIP3   OH249296   3.651   5.094   3.838 -0.2434  0.4085  0.4941
 9294TIP3    H149297   3.740   5.127   3.845 -0.5219  1.8743 -1.8671
 9294TIP3    H249298   3.596   5.168   3.866 -0.7504  0.0368  0.4905
 9295TIP3   OH249299   6.746   5.096  17.387  0.2846 -0.1405 -0.4520
 9295TIP3    H149300   6.776   5.105  17.296  0.0305  1.1794 -0.4298
 9295TIP3    H249301   6.787   5.169  17.433  1.1511 -1.3419  0.7153
 9296TIP3   OH249302   0.507   1.897   2.987 -0.4758 -0.2683  0.3358
 9296TIP3    H149303   0.595   1.932   3.003  0.3471 -1.2306 -1.6902
 9296TIP3    H249304   0.501   1.820   3.044  0.6735 -1.1474 -0.6751
 9297TIP3   OH249305   0.639   5.625   1.528  0.7079  0.4055 -0.2043
 9297TIP3    H149306   0.700   5.697   1.511  1.2450 -0.1158 -0.5654
 9297TIP3    H249307   0.695   5.547   1.528 -0.2680 -0.4070 -3.1895
 9298TIP3   OH249308   6.376   3.200   2.226  0.4614 -0.3277  0.5083
 9298TIP3    H149309   6.424   3.274   2.189 -0.5208  0.1337  0.1284
 9298TIP3    H249310   6.368   3.220   2.319  1.3414 -0.6076  0.6548
 9299TIP3   OH249311   5.604   5.830   6.582 -0.6172 -0.0310  0.0949
 9299TIP3    H149312   5.547   5.881   6.524 -2.3229 -0.8285  0.9855
 9299TIP3    H249313   5.627   5.753   6.530  0.2036  0.5862 -0.4892
 9300TIP3   OH249314   2.594   5.584  11.981 -0.0555 -0.1098  0.3572
 9300TIP3    H149315   2.636   5.602  11.897  0.0340 -2.1430 -0.0830
 9300TIP3    H249316   2.666   5.585  12.044  0.4894 -2.0625 -0.1646
 9301TIP3   OH249317   1.679   4.204  11.858  0.2761 -0.8901 -0.3279
 9301TIP3    H149318   1.750   4.257  11.821 -0.2699  0.3799  0.3965
 9301TIP3    H249319   1.600   4.256  11.845 -0.2774 -1.5094  0.4372
 9302TIP3   OH249320   6.714   1.801  12.100 -0.4246  0.3818  0.3597
 9302TIP3    H149321   6.757   1.749  12.032 -0.1059  0.6713  0.3385
 9302TIP3    H249322   6.734   1.892  12.077  0.2014  0.4649  1.1781
 9303TIP3   OH249323   5.897   4.804   2.881 -0.0317  0.3508 -0.6776
 9303TIP3    H149324   5.865   4.892   2.860  1.5683  0.8032 -1.3633
 9303TIP3    H249325   5.991   4.808   2.865  0.0597 -1.5350 -0.8504
 9304TIP3   OH249326   4.789   0.219  13.015  0.7447 -0.1391 -0.0789
 9304TIP3    H149327   4.769   0.310  13.035  0.6136  0.0806 -1.1104
 9304TIP3    H249328   4.703   0.177  13.009  0.7401 -0.0651 -0.6927
 9305TIP3   OH249329   2.578   1.631   5.474  0.8229  0.5375  0.5375
 9305TIP3    H149330   2.500   1.684   5.490  0.5808  0.4896 -0.4117
 9305TIP3    H249331   2.560   1.547   5.516  0.0776  0.3093 -0.2014
 9306TIP3   OH249332   0.147   1.816  15.904 -0.0994  0.5012  0.0740
 9306TIP3    H149333   0.155   1.768  15.986 -1.5107 -0.5206 -0.3626
 9306TIP3    H249334   0.191   1.761  15.840  0.9855  1.2901  0.1009
 9307TIP3   OH249335   0.274   6.510  11.738 -0.6013  0.8884  0.6709
 9307TIP3    H149336   0.271   6.571  11.811 -0.5015 -0.4594  1.8635
 9307TIP3    H249337   0.355   6.531  11.692 -1.1385  2.3811  0.3551
 9308TIP3   OH249338   0.402   3.126  12.722 -0.1184 -0.1579 -0.0151
 9308TIP3    H149339   0.470   3.181  12.685 -0.1609  0.6584  1.0849
 9308TIP3    H249340   0.358   3.181  12.786 -0.9724 -1.0813  0.2275
 9309TIP3   OH249341   4.677   0.801  13.689 -0.1638  0.2482 -0.4045
 9309TIP3    H149342   4.679   0.729  13.751  0.6247  0.8918  0.3384
 9309TIP3    H249343   4.623   0.769  13.617  0.0261 -1.0111 -0.0092
 9310TIP3   OH249344   6.638   4.774   3.354 -0.1742 -0.0299  0.2199
 9310TIP3    H149345   6.649   4.858   3.310 -0.0323 -0.0576  0.2030
 9310TIP3    H249346   6.685   4.784   3.437 -1.3409  0.3974  0.8480
 9311TIP3   OH249347   2.540   0.127   4.926 -0.3453 -0.4896 -0.0584
 9311TIP3    H149348   2.562   0.050   4.872  2.5596 -0.1341  0.4476
 9311TIP3    H249349   2.528   0.091   5.014  2.9350 -0.3497  0.6029
 9312TIP3   OH249350   6.398   3.276  16.303  0.3236 -0.0915 -0.5797
 9312TIP3    H149351   6.376   3.183  16.302 -0.6664  0.1265 -2.1137
 9312TIP3    H249352   6.447   3.290  16.222 -0.1103  0.8419 -0.6968
 9313TIP3   OH249353   4.646   6.728  12.271  0.2729 -0.2065  0.3457
 9313TIP3    H149354   4.634   6.810  12.318 -0.7649  0.2526 -0.6504
 9313TIP3    H249355   4.606   6.661  12.326 -1.4124  0.4023 -0.0850
 9314TIP3   OH249356   2.201   6.720  16.749 -0.0921 -0.0450  0.0086
 9314TIP3    H149357   2.205   6.624  16.754  0.9082  0.0338  1.4687
 9314TIP3    H249358   2.166   6.747  16.834 -0.6533  0.8742 -0.5021
 9315TIP3   OH249359   6.497   3.024   2.008  0.7509 -0.0250 -0.7208
 9315TIP3    H149360   6.469   2.941   2.048 -0.0262  0.3992 -0.3644
 9315TIP3    H249361   6.471   3.091   2.071  0.5933  0.5643 -1.4008
 9316TIP3   OH249362   4.901   0.769   1.769 -0.4128  0.1475  0.4865
 9316TIP3    H149363   4.951   0.711   1.827  0.7939  0.4815 -0.1808
 9316TIP3    H249364   4.910   0.730   1.682 -1.1795  0.3156  0.3248
 9317TIP3   OH249365   4.421   3.760  15.736  0.5870  0.2378  0.7028
 9317TIP3    H149366   4.444   3.802  15.653  1.2702  3.0328  2.1788
 9317TIP3    H249367   4.326   3.767  15.740  0.4474 -0.7661 -0.1993
 9318TIP3   OH249368   5.983   6.608  13.643  0.1558  0.1074 -0.2705
 9318TIP3    H149369   5.980   6.684  13.701 -2.7522 -0.8588  1.0550
 9318TIP3    H249370   6.051   6.629  13.579 -0.7256  3.9752 -0.1712
 9319TIP3   OH249371   1.024   5.846  13.572  0.2328  0.1223  0.3702
 9319TIP3    H149372   0.994   5.758  13.553 -0.1203  0.4312 -0.5608
 9319TIP3    H249373   0.944   5.899  13.575  0.4357  0.4044  0.9650
 9320TIP3   OH249374   5.073   4.123  11.399 -0.0679 -0.4395 -0.7748
 9320TIP3    H149375   5.130   4.147  11.326 -1.0037 -2.0566 -2.0796
 9320TIP3    H249376   5.124   4.059  11.449  0.0108 -0.3935 -0.7947
 9321TIP3   OH249377   0.837   0.360  14.977 -1.0576  0.7737 -0.2790
 9321TIP3    H149378   0.830   0.270  15.010 -2.0635  0.3303 -1.6355
 9321TIP3    H249379   0.930   0.370  14.955 -0.6568  0.5719  1.1530
 9322TIP3   OH249380   4.231   2.161   3.990 -0.1565  0.1109 -0.0628
 9322TIP3    H149381   4.191   2.076   4.006 -1.8897  0.6326 -1.3059
 9322TIP3    H249382   4.157   2.222   3.990  0.9751  1.5376  0.2081
 9323TIP3   OH249383   3.593   6.207  17.355 -0.4304  0.5172  0.2054
 9323TIP3    H149384   3.663   6.272  17.361  0.1815 -0.2259  1.3578
 9323TIP3    H249385   3.536   6.226  17.429 -0.5040  0.0295  0.2764
 9324TIP3   OH249386   3.039   3.596  12.415 -0.2265  0.0076 -0.2073
 9324TIP3    H149387   2.949   3.603  12.446 -1.2646 -2.0660 -2.4543
 9324TIP3    H249388   3.033   3.603  12.320  2.1944  1.1705 -0.3676
 9325TIP3   OH249389   3.657   0.078  13.351 -0.6523 -0.5254 -0.2593
 9325TIP3    H149390   3.731   0.130  13.317  0.3825 -2.0191 -0.3669
 9325TIP3    H249391   3.580   0.122  13.316  0.2039  0.6322 -0.7875
 9326TIP3   OH249392   2.772   3.087  11.555  0.5046  0.1838  0.1019
 9326TIP3    H149393   2.704   3.021  11.571  0.1932  0.3964 -0.3282
 9326TIP3    H249394   2.854   3.037  11.550  0.2298 -0.2123 -0.5536
 9327TIP3   OH249395   3.564   3.632   2.141  0.2135 -0.0296  0.0297
 9327TIP3    H149396   3.496   3.676   2.090  1.1329  0.4722 -0.7935
 9327TIP3    H249397   3.529   3.544   2.156 -1.2050  0.6352  0.8221
 9328TIP3   OH249398   0.307   2.789  17.141 -0.5322 -0.0140 -0.2349
 9328TIP3    H149399   0.330   2.880  17.158 -1.7790  0.5399 -1.4680
 9328TIP3    H249400   0.226   2.792  17.091  0.5112 -1.7194 -2.2020
 9329TIP3   OH249401   2.371   6.024   2.629 -0.0139 -0.1576  0.2387
 9329TIP3    H149402   2.292   6.062   2.668  0.3292 -0.7360  1.5506
 9329TIP3    H249403   2.342   5.988   2.545 -1.4146 -1.3906  1.2157
 9330TIP3   OH249404   6.541   5.510  16.172 -0.2071 -0.1196  0.0652
 9330TIP3    H149405   6.455   5.552  16.179 -0.3881 -0.3812 -0.4944
 9330TIP3    H249406   6.531   5.450  16.098  0.5146 -0.0192 -0.1131
 9331TIP3   OH249407   2.223   5.044   1.668  0.1238 -0.2480 -0.0035
 9331TIP3    H149408   2.161   5.010   1.604  0.8747  0.9046 -1.4009
 9331TIP3    H249409   2.307   5.004   1.644  0.2782 -0.3805  0.7278
 9332TIP3   OH249410   0.101   1.130  17.348 -0.2277  0.3501  0.1466
 9332TIP3    H149411   0.063   1.191  17.410  2.0990  1.5719  0.5001
 9332TIP3    H249412   0.192   1.121  17.376 -0.0526 -1.9931 -0.9041
 9333TIP3   OH249413   5.209   3.020   0.719  0.3548  0.6517  0.2176
 9333TIP3    H149414   5.223   2.929   0.695 -1.1562  0.2991  0.5438
 9333TIP3    H249415   5.192   3.065   0.636  0.2813  0.4740  0.1375
 9334TIP3   OH249416   1.926   5.268  16.200 -0.4193  0.0151 -0.0743
 9334TIP3    H149417   1.985   5.274  16.275  1.0026  2.4854 -1.2730
 9334TIP3    H249418   1.850   5.319  16.225  0.1705  1.0648 -0.3663
 9335TIP3   OH249419   2.500   3.711  12.576 -0.7325  0.0567  0.2273
 9335TIP3    H149420   2.516   3.646  12.507 -1.0311 -1.7190  1.7705
 9335TIP3    H249421   2.438   3.669  12.635  0.0108  1.2723  1.9352
 9336TIP3   OH249422   0.739   1.330  13.741  0.1386 -0.0329 -0.2424
 9336TIP3    H149423   0.749   1.236  13.723  1.0860 -0.0311  0.1883
 9336TIP3    H249424   0.819   1.370  13.705 -0.2745  0.6154 -0.4528
 9337TIP3   OH249425   1.791   5.599   6.149  0.0822  0.3829 -0.5498
 9337TIP3    H149426   1.804   5.607   6.055  0.1696  1.6901 -0.4337
 9337TIP3    H249427   1.776   5.505   6.163 -2.0358  0.4329 -2.1122
 9338TIP3   OH249428   1.140   0.611   2.537  0.2484 -0.2459  0.1734
 9338TIP3    H149429   1.120   0.617   2.630 -2.9970  0.4593 -0.4481
 9338TIP3    H249430   1.163   0.519   2.523  1.0464 -0.3023  1.6582
 9339TIP3   OH249431   2.453   5.582  12.451 -0.0843  0.1089  0.0336
 9339TIP3    H149432   2.376   5.561  12.398  0.5756  0.8151 -1.2645
 9339TIP3    H249433   2.420   5.585  12.541 -1.5442  0.2334 -0.4666
 9340TIP3   OH249434   5.175   5.588   1.882 -0.5491  0.4151  0.0379
 9340TIP3    H149435   5.199   5.600   1.974 -1.7062 -2.1315  0.7716
 9340TIP3    H249436   5.259   5.579   1.837  0.0306  0.4670  1.0592
 9341TIP3   OH249437   1.916   3.097   3.749  0.1232  0.1543  0.2622
 9341TIP3    H149438   2.010   3.079   3.752  0.1165  0.0077 -0.4183
 9341TIP3    H249439   1.905   3.177   3.801  0.8695  1.1782 -1.1005
 9342TIP3   OH249440   4.133   3.981   2.705  0.0311  0.1190  0.3406
 9342TIP3    H149441   4.216   4.007   2.664 -0.5932  0.5726 -0.6790
 9342TIP3    H249442   4.089   4.064   2.725 -0.9104 -0.1057 -0.6999
 9343TIP3   OH249443   4.408   2.342   3.633  0.2759 -0.3466 -0.5929
 9343TIP3    H149444   4.477   2.281   3.658 -0.3073 -0.6333  0.3805
 9343TIP3    H249445   4.449   2.428   3.638  1.2328 -0.6529 -2.4176
 9344TIP3   OH249446   2.694   1.604   4.498 -0.4128  0.0800  0.2771
 9344TIP3    H149447   2.741   1.539   4.550  0.3203 -0.5814 -1.1676
 9344TIP3    H249448   2.660   1.555   4.423 -1.0335  1.1009 -0.1338
 9345TIP3   OH249449   1.160   4.436  11.297  0.2094 -0.1602 -0.0973
 9345TIP3    H149450   1.204   4.368  11.246 -0.0857  1.9666 -3.5278
 9345TIP3    H249451   1.203   4.517  11.270  1.3403  1.1540  4.6384
 9346TIP3   OH249452   1.223   3.116  17.032  0.3825  0.6413 -0.4813
 9346TIP3    H149453   1.149   3.084  16.981 -0.3460 -0.4919  1.1721
 9346TIP3    H249454   1.194   3.200  17.066  0.7836  1.2924 -1.7110
 9347TIP3   OH249455   3.692   6.398  14.786 -0.3880  0.1625 -0.3713
 9347TIP3    H149456   3.744   6.471  14.820  1.1635 -1.2899  0.5131
 9347TIP3    H249457   3.686   6.415  14.692  1.8314  0.3462 -0.5433
 9348TIP3   OH249458   5.958   0.120   4.587  0.0771 -0.0989 -0.1177
 9348TIP3    H149459   6.040   0.170   4.591 -0.2651  0.4180  0.4642
 9348TIP3    H249460   5.985   0.029   4.600  0.6359 -0.0071 -0.6045
 9349TIP3   OH249461   0.559   2.834   2.123 -0.3893  0.0976  0.2843
 9349TIP3    H149462   0.486   2.796   2.173  0.1643 -1.3729 -0.0021
 9349TIP3    H249463   0.516   2.881   2.052 -1.1545  1.5182  1.6162
 9350TIP3   OH249464   3.396   1.946   0.227  0.5358 -0.6833  0.0319
 9350TIP3    H149465   3.432   1.879   0.284 -0.8343 -0.8191  0.7870
 9350TIP3    H249466   3.462   1.958   0.158  2.3112 -0.3950  1.6966
 9351TIP3   OH249467   3.098   6.423   2.656  0.3063 -0.2547  0.3841
 9351TIP3    H149468   3.161   6.491   2.633  0.8477 -0.7764  0.2967
 9351TIP3    H249469   3.126   6.392   2.742 -0.2622  0.0035  0.6696
 9352TIP3   OH249470   3.090   3.135  11.765  0.1900  0.5149 -0.0425
 9352TIP3    H149471   3.035   3.072  11.720 -2.7714  2.4212  0.6083
 9352TIP3    H249472   3.133   3.184  11.695  0.9060 -0.8264 -0.5749
 9353TIP3   OH249473   0.978   5.952  16.658  0.0637 -0.1940 -0.5057
 9353TIP3    H149474   0.983   5.983  16.567 -0.5476  0.4935 -0.3140
 9353TIP3    H249475   1.039   6.008  16.705  0.9637 -1.0584 -0.6127
 9354TIP3   OH249476   1.155   5.908   5.428  0.1948  0.4628 -0.0650
 9354TIP3    H149477   1.133   5.978   5.490 -1.5890 -0.3681  0.2946
 9354TIP3    H249478   1.103   5.927   5.350 -0.3427 -0.4678  0.0522
 9355TIP3   OH249479   0.221   0.131  11.777  0.6019  0.0277  0.2840
 9355TIP3    H149480   0.279   0.065  11.815  2.3270  0.7196 -1.0358
 9355TIP3    H249481   0.279   0.202  11.750 -1.1799  2.1492  1.6420
 9356TIP3   OH249482   4.591   3.715   5.066  0.2675 -0.3139 -0.3440
 9356TIP3    H149483   4.512   3.670   5.035 -0.5651  0.5663  0.4330
 9356TIP3    H249484   4.616   3.771   4.992 -0.0967 -0.2629 -0.4311
 9357TIP3   OH249485   4.183   4.662  12.600  0.2569  0.4679  0.6941
 9357TIP3    H149486   4.206   4.733  12.660 -0.9142  1.5433 -0.0878
 9357TIP3    H249487   4.098   4.630  12.632 -0.1826  0.7839 -0.1491
 9358TIP3   OH249488   2.985   1.444   1.371 -0.3583 -0.5197 -0.8481
 9358TIP3    H149489   3.065   1.463   1.323 -0.6546  0.5098 -0.9424
 9358TIP3    H249490   3.010   1.374   1.431  0.8660  0.4049 -0.2339
 9359TIP3   OH249491   3.795   5.930   4.717 -0.4317  0.2298 -0.0576
 9359TIP3    H149492   3.767   5.952   4.629  1.7513  0.3234 -0.8056
 9359TIP3    H249493   3.716   5.933   4.770 -1.6327  1.1089 -1.8269
 9360TIP3   OH249494   0.904   5.747  11.375  0.2602  0.2209  0.2502
 9360TIP3    H149495   0.922   5.676  11.436 -2.3237 -0.9791 -0.2785
 9360TIP3    H249496   0.909   5.706  11.288  0.6687  1.1625 -0.1911
 9361TIP3   OH249497   0.063   2.864  11.707 -0.3850 -0.5448  0.0629
 9361TIP3    H149498   0.036   2.788  11.655  1.3513  0.1490 -1.9839
 9361TIP3    H249499   0.157   2.852  11.721  0.0809  1.5030 -0.9043
 9362TIP3   OH249500   3.697   3.965   5.477  0.0004 -0.5470 -0.3515
 9362TIP3    H149501   3.616   3.964   5.424  0.4922  1.4035 -1.2401
 9362TIP3    H249502   3.760   3.917   5.424  0.0940  0.1428 -0.8826
 9363TIP3   OH249503   3.443   3.366   4.643  0.1785  0.2488 -0.4414
 9363TIP3    H149504   3.355   3.336   4.665 -0.7489  2.4399 -0.8746
 9363TIP3    H249505   3.476   3.299   4.583 -1.5244 -0.2350 -0.9174
 9364TIP3   OH249506   1.118   5.996  17.302  0.0174  0.6863 -0.4158
 9364TIP3    H149507   1.138   6.036  17.217  1.0375  0.7362 -0.1684
 9364TIP3    H249508   1.190   6.023  17.359  0.3957 -0.9306 -0.0587
 9365TIP3   OH249509   3.086   6.260  14.140  0.1523 -0.3773  0.2841
 9365TIP3    H149510   3.180   6.271  14.158  0.2458 -0.5669 -0.0682
 9365TIP3    H249511   3.072   6.307  14.058 -0.3446  0.7980  1.0288
 9366TIP3   OH249512   2.345   5.161   5.040 -0.3532  0.2374 -0.1384
 9366TIP3    H149513   2.320   5.183   4.950 -0.7367 -1.6816 -0.5528
 9366TIP3    H249514   2.378   5.071   5.034 -2.0473 -0.5991  1.9204
 9367TIP3   OH249515   4.910   6.216  13.646 -0.2528  0.3920 -0.3415
 9367TIP3    H149516   4.843   6.149  13.629 -0.7778  0.8821 -0.2165
 9367TIP3    H249517   4.955   6.185  13.725 -0.4497  0.1538 -0.3207
 9368TIP3   OH249518   1.477   6.606  17.129 -0.2637 -0.6087 -0.5478
 9368TIP3    H149519   1.437   6.692  17.139 -1.9018 -1.2147 -1.4947
 9368TIP3    H249520   1.427   6.549  17.188  1.2871 -0.8091  0.6407
 9369TIP3   OH249521   3.509   1.691  14.517 -0.0506  0.7536  0.2398
 9369TIP3    H149522   3.431   1.645  14.546  0.3479 -0.6270 -0.7763
 9369TIP3    H249523   3.528   1.655  14.430  1.6291  1.1435  0.4017
 9370TIP3   OH249524   1.141   0.103   3.197 -0.2462 -0.3175 -0.3289
 9370TIP3    H149525   1.064   0.061   3.159  0.5790 -0.1547 -2.2903
 9370TIP3    H249526   1.214   0.048   3.171  0.3787 -0.1478  1.0072
 9371TIP3   OH249527   2.130   6.614  13.800 -0.0760  0.0450  0.6055
 9371TIP3    H149528   2.093   6.537  13.756 -0.7026 -0.2789  1.6700
 9371TIP3    H249529   2.129   6.682  13.732  1.1429 -1.0450 -0.5632
 9372TIP3   OH249530   5.546   4.725   2.087  0.1687 -0.3105  0.0331
 9372TIP3    H149531   5.635   4.718   2.051  0.7768 -0.5934  1.5266
 9372TIP3    H249532   5.494   4.757   2.014  1.4676 -0.2832 -0.9282
 9373TIP3   OH249533   4.106   0.748   0.180 -0.3290  0.6895 -0.3452
 9373TIP3    H149534   4.079   0.658   0.202  0.4281  0.6442  0.4453
 9373TIP3    H249535   4.028   0.788   0.143 -0.6231 -0.3630 -0.8929
 9374TIP3   OH249536   4.109   2.119   2.117  0.5612  0.2115  0.2596
 9374TIP3    H149537   4.143   2.049   2.172 -0.5576 -0.3906  0.2139
 9374TIP3    H249538   4.133   2.200   2.163 -0.4889 -0.2739  1.7670
 9375TIP3   OH249539   4.388   5.124   1.992  0.5063 -0.2078 -0.4382
 9375TIP3    H149540   4.468   5.169   2.020 -0.9885  1.7132  1.0642
 9375TIP3    H249541   4.364   5.167   1.910  0.1256  0.4044 -0.0115
 9376TIP3   OH249542   6.190   1.125   3.541 -0.0705 -0.5126 -0.4148
 9376TIP3    H149543   6.107   1.077   3.535 -0.0648 -0.5339 -0.3284
 9376TIP3    H249544   6.236   1.084   3.614 -0.9215  0.9545  0.9746
 9377TIP3   OH249545   4.939   0.220  15.835 -0.3433 -0.1196  0.3488
 9377TIP3    H149546   4.989   0.146  15.802  0.3676  0.8065 -0.7166
 9377TIP3    H249547   4.980   0.243  15.918 -1.3063 -1.6237  1.2994
 9378TIP3   OH249548   0.817   1.722   1.124  0.0079  0.5244 -0.5080
 9378TIP3    H149549   0.816   1.629   1.148 -0.0885  0.6201 -0.1407
 9378TIP3    H249550   0.816   1.721   1.028 -0.8022  0.1578 -0.5070
 9379TIP3   OH249551   0.887   3.963   5.455  0.6918 -0.5251 -0.4994
 9379TIP3    H149552   0.803   4.008   5.453  0.5508 -0.8054 -1.3568
 9379TIP3    H249553   0.936   4.000   5.381  0.6129 -1.6976 -1.1577
 9380TIP3   OH249554   3.536   4.973  17.011  0.4008  0.0801  0.0999
 9380TIP3    H149555   3.546   4.913  17.085  1.4862  0.0372 -0.0604
 9380TIP3    H249556   3.587   4.933  16.941  1.2538  1.2317  0.0328
 9381TIP3   OH249557   2.330   4.157  16.547 -0.5237 -0.0053 -0.3934
 9381TIP3    H149558   2.246   4.183  16.509 -0.9730 -2.2780 -1.0601
 9381TIP3    H249559   2.390   4.228  16.523 -2.0553  1.3147 -0.4976
 9382TIP3   OH249560   3.398   2.628   0.935  0.6204 -0.3569 -0.5703
 9382TIP3    H149561   3.401   2.646   0.841  0.5158  0.5480 -0.4042
 9382TIP3    H249562   3.351   2.545   0.942  0.4356 -0.3179 -1.2992
 9383TIP3   OH249563   1.841   1.646  14.992  0.2627  0.2382 -0.0695
 9383TIP3    H149564   1.795   1.638  15.075  0.2899  3.0742  0.3000
 9383TIP3    H249565   1.877   1.735  14.992  0.3777  0.3039 -3.0432
 9384TIP3   OH249566   5.707   5.525   4.263 -0.0659 -0.3215  0.1431
 9384TIP3    H149567   5.686   5.482   4.346 -0.3041  1.0485  0.8335
 9384TIP3    H249568   5.622   5.539   4.221 -0.6217  3.4913  2.0540
 9385TIP3   OH249569   0.888   3.866  10.906  0.2920  0.2080  0.6839
 9385TIP3    H149570   0.815   3.815  10.941  0.2436  1.1633  2.0629
 9385TIP3    H249571   0.877   3.952  10.944  1.2518  0.8271 -0.3770
 9386TIP3   OH249572   2.900   1.303  11.761 -0.4840  0.6378 -0.4737
 9386TIP3    H149573   2.954   1.232  11.724  0.7132  1.2968 -0.0641
 9386TIP3    H249574   2.822   1.259  11.794  0.1869 -0.4890 -0.3195
 9387TIP3   OH249575   3.316   2.603  17.101 -0.0419  0.3228 -0.3895
 9387TIP3    H149576   3.335   2.654  17.180  0.3670  2.5243 -1.8083
 9387TIP3    H249577   3.228   2.568  17.116  0.8756 -1.2763  1.9384
 9388TIP3   OH249578   6.563   3.089   0.109  0.3224  0.2171  0.3748
 9388TIP3    H149579   6.609   3.005   0.106 -0.2214 -0.0602 -1.4329
 9388TIP3    H249580   6.632   3.155   0.108  0.7322 -0.2083  0.1982
 9389TIP3   OH249581   5.057   5.480   6.014 -0.9774  0.2755  0.3313
 9389TIP3    H149582   5.015   5.539   5.951  0.4282  0.1790 -0.7597
 9389TIP3    H249583   5.071   5.399   5.964  2.3911  0.9872 -0.1156
 9390TIP3   OH249584   2.802   4.283  12.976 -0.3732 -0.3218  0.1473
 9390TIP3    H149585   2.893   4.269  13.001  0.1227 -1.6643 -2.1527
 9390TIP3    H249586   2.796   4.378  12.961  1.3035 -0.4678 -1.8290
 9391TIP3   OH249587   6.597   4.361   2.134 -0.4421  0.5109 -0.9350
 9391TIP3    H149588   6.650   4.344   2.212 -1.5373  2.3369  0.2735
 9391TIP3    H249589   6.614   4.286   2.077  1.8992  0.0737  0.2176
 9392TIP3   OH249590   5.498   2.728   6.856 -0.5290  0.8954 -0.2943
 9392TIP3    H149591   5.573   2.787   6.850 -1.4204  2.5525  3.0313
 9392TIP3    H249592   5.422   2.783   6.840 -1.2678  0.1602  0.5390
 9393TIP3   OH249593   3.049   2.994   5.148 -0.2173 -0.1274 -0.0751
 9393TIP3    H149594   3.044   2.902   5.172 -0.1016  0.0038  0.4664
 9393TIP3    H249595   2.979   3.036   5.199 -0.5226  0.0262 -0.6087
 9394TIP3   OH249596   3.686   3.594   3.696  0.2852 -0.2819 -0.6023
 9394TIP3    H149597   3.673   3.682   3.662 -1.3824 -1.6636 -3.9878
 9394TIP3    H249598   3.598   3.556   3.698  0.6866 -1.3487  2.6886
 9395TIP3   OH249599   1.310   4.295  10.816  0.1055 -0.1294 -0.1279
 9395TIP3    H149600   1.324   4.376  10.768 -0.3496 -0.6877 -1.2237
 9395TIP3    H249601   1.232   4.256  10.777  0.1227 -0.9420  0.6029
 9396TIP3   OH249602   6.262   5.611  13.719  0.2107  0.5657  0.1095
 9396TIP3    H149603   6.290   5.685  13.773  1.3424  0.9890 -1.0129
 9396TIP3    H249604   6.299   5.535  13.762  3.7555  1.1359 -1.5663
 9397TIP3   OH249605   5.697   3.933  11.315  0.5860 -0.0889  0.8404
 9397TIP3    H149606   5.602   3.929  11.305  0.4855  2.6045 -0.0436
 9397TIP3    H249607   5.713   3.917  11.408 -0.7833 -0.0319  1.1016
 9398TIP3   OH249608   1.757   5.767   1.341 -0.2605  0.3533 -0.3767
 9398TIP3    H149609   1.824   5.819   1.386 -0.5919 -0.4828  1.1432
 9398TIP3    H249610   1.771   5.678   1.372 -2.4645  0.2527  0.5102
 9399TIP3   OH249611   5.228   2.604  11.031 -0.0856 -0.3611 -0.5806
 9399TIP3    H149612   5.242   2.684  11.081 -1.8151 -0.0171 -0.6158
 9399TIP3    H249613   5.301   2.547  11.057  0.6421  0.8594  0.1515
 9400TIP3   OH249614   1.320   0.933  13.169 -0.9186  0.7198  0.2172
 9400TIP3    H149615   1.350   1.014  13.209 -0.4176  0.9764 -0.6527
 9400TIP3    H249616   1.394   0.902  13.117 -1.9303  1.0462 -1.4969
 9401TIP3   OH249617   3.190   0.044   4.045 -0.5581  0.2223 -0.9513
 9401TIP3    H149618   3.215   0.096   3.969 -0.3628 -0.9043 -1.6767
 9401TIP3    H249619   3.253   0.068   4.113  0.7747 -0.5274 -1.8963
 9402TIP3   OH249620   5.491   2.840  15.503  0.3505  0.3942  0.0425
 9402TIP3    H149621   5.413   2.791  15.477  2.0476 -2.4038 -0.1954
 9402TIP3    H249622   5.496   2.829  15.598  1.4026 -1.1008 -0.1458
 9403TIP3   OH249623   5.083   4.467  16.492 -0.4168 -0.0421 -0.2277
 9403TIP3    H149624   5.085   4.403  16.564 -1.3545 -0.6093 -0.6779
 9403TIP3    H249625   5.097   4.414  16.413  0.1512  0.5123 -0.5019
 9404TIP3   OH249626   6.234   2.170   4.308 -0.3630  0.2096 -0.0288
 9404TIP3    H149627   6.260   2.099   4.366 -2.0133  0.2284  0.7845
 9404TIP3    H249628   6.291   2.243   4.332  1.0929 -0.6854 -0.6194
 9405TIP3   OH249629   5.257   4.737   4.360  0.0244 -1.3419  0.4879
 9405TIP3    H149630   5.334   4.784   4.391  0.1311 -0.6265 -0.7715
 9405TIP3    H249631   5.188   4.758   4.423 -0.2571  1.5248 -0.6138
 9406TIP3   OH249632   3.026   1.606  14.333  0.0645 -0.6712  0.2483
 9406TIP3    H149633   2.946   1.566  14.368  0.3230 -0.7407  0.7701
 9406TIP3    H249634   3.068   1.646  14.409 -1.2524  2.5251 -0.5348
 9407TIP3   OH249635   1.614   5.102   4.479 -0.1791 -0.4494 -0.0056
 9407TIP3    H149636   1.576   5.110   4.567  0.9166  0.1026  0.4332
 9407TIP3    H249637   1.614   5.192   4.445 -3.1054 -0.9569 -1.7050
 9408TIP3   OH249638   0.220   0.869   1.427  0.1855 -0.2913  0.1425
 9408TIP3    H149639   0.133   0.908   1.430  0.2795 -0.1070  0.6688
 9408TIP3    H249640   0.262   0.908   1.351 -0.4842 -1.0160 -0.6155
 9409TIP3   OH249641   3.511   5.936   4.314  0.6039 -0.1208  0.1710
 9409TIP3    H149642   3.527   5.995   4.240  0.7088  0.0381  0.3188
 9409TIP3    H249643   3.566   5.971   4.385 -1.5287  1.3830  1.1823
 9410TIP3   OH249644   0.915   6.222   2.187  0.0911 -0.2990 -1.1295
 9410TIP3    H149645   0.849   6.184   2.128 -0.5562 -0.9332 -0.0146
 9410TIP3    H249646   0.867   6.241   2.267  0.9607  0.5913 -0.7985
 9411TIP3   OH249647   0.378   1.163   0.981  0.9696  0.2533  0.5471
 9411TIP3    H149648   0.323   1.173   0.903 -1.3470 -0.9956  1.9155
 9411TIP3    H249649   0.366   1.244   1.030  0.2149 -0.0476  0.8825
 9412TIP3   OH249650   2.858   2.846  15.505 -0.3553 -0.3348 -0.3981
 9412TIP3    H149651   2.854   2.753  15.528 -0.9900 -0.7360 -2.0328
 9412TIP3    H249652   2.776   2.882  15.541 -0.4090 -0.5373 -0.3126
 9413TIP3   OH249653   5.167   3.149   2.903 -0.4208 -0.2587 -0.6843
 9413TIP3    H149654   5.140   3.235   2.935 -3.5168 -0.7680 -1.5168
 9413TIP3    H249655   5.247   3.129   2.950 -1.4227  1.6615  2.0709
 9414TIP3   OH249656   4.966   1.233   2.841  0.1900  0.2789 -0.1721
 9414TIP3    H149657   5.036   1.174   2.816  1.0995  1.7239 -1.2057
 9414TIP3    H249658   4.921   1.254   2.759 -0.6515  0.3538  0.2971
 9415TIP3   OH249659   0.971   5.543   6.036  0.2668  0.8027 -0.2715
 9415TIP3    H149660   1.064   5.563   6.027 -0.1860  2.3781 -2.3051
 9415TIP3    H249661   0.936   5.615   6.088  0.5061 -1.0759  2.7050
 9416TIP3   OH249662   6.322   6.655   3.240 -0.3559 -0.7523 -0.0848
 9416TIP3    H149663   6.300   6.564   3.225 -0.8998 -0.4412 -1.2544
 9416TIP3    H249664   6.358   6.686   3.157 -1.3019  0.4242 -0.0846
 9417TIP3   OH249665   0.174   3.562   1.289  0.2809 -0.0002 -0.3161
 9417TIP3    H149666   0.175   3.658   1.295 -0.9046  0.0378 -0.3532
 9417TIP3    H249667   0.225   3.542   1.211  1.6571  0.5130  0.4208
 9418TIP3   OH249668   2.574   2.053   5.652  0.3096  0.3091 -0.3113
 9418TIP3    H149669   2.599   2.053   5.560  0.4304  1.3093 -0.2880
 9418TIP3    H249670   2.614   2.132   5.688 -0.9756  0.7319  0.2466
 9419TIP3   OH249671   5.999   6.743   1.542 -0.4312  0.2943 -0.3346
 9419TIP3    H149672   5.928   6.775   1.597 -0.5282 -0.8467  0.2356
 9419TIP3    H249673   6.049   6.821   1.518 -1.8076  1.0988 -0.6595
 9420TIP3   OH249674   2.993   6.531  11.239 -0.2321  0.6595  0.1360
 9420TIP3    H149675   3.049   6.604  11.211  1.0591 -0.2808  0.1744
 9420TIP3    H249676   2.935   6.515  11.165 -0.8925  2.0503  0.3282
 9421TIP3   OH249677   0.289   6.282   3.438 -0.0869 -0.6054  0.7916
 9421TIP3    H149678   0.349   6.355   3.419 -1.8133  0.3245 -1.4489
 9421TIP3    H249679   0.204   6.324   3.452 -1.0379 -2.1626 -0.0967
 9422TIP3   OH249680   1.648   1.832  16.700  0.4690 -0.4768 -0.1667
 9422TIP3    H149681   1.585   1.766  16.669 -0.4432 -1.0178  2.5704
 9422TIP3    H249682   1.597   1.913  16.704  0.0602 -0.7671  1.3695
 9423TIP3   OH249683   2.737   3.671   4.821 -0.1129  0.5017  0.2221
 9423TIP3    H149684   2.672   3.605   4.799 -0.3846  0.6125  0.6876
 9423TIP3    H249685   2.775   3.641   4.903  0.0638  0.7007  0.2138
 9424TIP3   OH249686   2.975   6.071   5.985 -0.3840 -0.0092 -0.3825
 9424TIP3    H149687   2.923   6.054   5.906 -0.6348  0.7983 -0.4043
 9424TIP3    H249688   3.035   6.141   5.958 -1.1374  0.9734  0.4051
 9425TIP3   OH249689   0.708   5.809   0.012 -0.3556  0.1711  0.1412
 9425TIP3    H149690   0.667   5.735   0.058 -0.7589 -0.3876 -1.0718
 9425TIP3    H249691   0.801   5.787   0.011 -0.2691  0.4576  1.1538
 9426TIP3   OH249692   3.072   0.367  12.625  0.2127 -0.0757  0.4107
 9426TIP3    H149693   3.028   0.417  12.694  1.1749 -0.1716  1.1248
 9426TIP3    H249694   3.140   0.318  12.671  1.2893  0.3291 -0.6792
 9427TIP3   OH249695   0.720   2.493  15.738  0.0276 -0.4032 -0.5968
 9427TIP3    H149696   0.724   2.431  15.810 -3.1820 -0.0455  0.0022
 9427TIP3    H249697   0.659   2.454  15.675  0.9005  0.4193 -2.0219
 9428TIP3   OH249698   1.672   2.853   5.260  0.6062  0.1704 -0.2407
 9428TIP3    H149699   1.686   2.852   5.165  0.2451  0.4809 -0.3019
 9428TIP3    H249700   1.752   2.891   5.296  0.2771  1.1631 -0.5160
 9429TIP3   OH249701   4.190   4.752  17.388  0.3008 -0.0669  0.5449
 9429TIP3    H149702   4.259   4.741  17.453 -0.5557 -0.8094  1.3676
 9429TIP3    H249703   4.138   4.671  17.394  0.3570 -0.2810 -1.2749
 9430TIP3   OH249704   0.039   2.577  16.691 -0.0674 -0.0466  0.0675
 9430TIP3    H149705   0.130   2.578  16.659  0.1644  0.7257  0.7190
 9430TIP3    H249706  -0.013   2.558  16.613  0.7194 -1.7055 -0.1004
 9431TIP3   OH249707   2.184   3.513   5.847 -0.2941 -0.1528  0.2150
 9431TIP3    H149708   2.125   3.538   5.776 -0.9136 -0.6029  0.5558
 9431TIP3    H249709   2.191   3.591   5.902  1.3472  0.6763 -1.0890
 9432TIP3   OH249710   4.526   4.767   4.222 -0.1209  0.0448 -0.0622
 9432TIP3    H149711   4.483   4.833   4.169 -0.3451  0.5686  0.7617
 9432TIP3    H249712   4.471   4.758   4.300  0.8318  0.1641  0.6434
 9433TIP3   OH249713   5.265   5.020   4.009 -0.0987  0.0674  0.3271
 9433TIP3    H149714   5.290   5.083   3.941 -0.9038  0.4119  0.3367
 9433TIP3    H249715   5.175   4.996   3.987 -0.4895  0.4470  1.4619
 9434TIP3   OH249716   0.275   1.664   6.193 -0.7223  1.0023 -0.5188
 9434TIP3    H149717   0.292   1.750   6.232 -2.8559  1.4165 -0.3833
 9434TIP3    H249718   0.189   1.638   6.228 -1.3612  0.0520 -2.6249
 9435TIP3   OH249719   6.492   2.235  12.486 -0.3633  0.1970 -0.5599
 9435TIP3    H149720   6.576   2.244  12.531 -2.0833  0.6037  2.8670
 9435TIP3    H249721   6.493   2.306  12.421  2.2685 -0.4124 -1.3087
 9436TIP3   OH249722   0.544   1.496  11.335  0.3404  0.2330  0.1267
 9436TIP3    H149723   0.544   1.589  11.360 -0.1577  0.8867 -2.1097
 9436TIP3    H249724   0.636   1.474  11.322  0.6858 -0.2823  2.7737
 9437TIP3   OH249725   2.330   6.251  17.021 -0.3004  0.5554  0.1714
 9437TIP3    H149726   2.400   6.186  17.028 -1.9289 -1.3149 -0.1842
 9437TIP3    H249727   2.272   6.232  17.095  0.2765  3.0506  1.3648
 9438TIP3   OH249728   2.519   0.272  14.106 -0.3751 -0.0232 -0.1543
 9438TIP3    H149729   2.534   0.198  14.048  0.6877  0.3945 -0.4239
 9438TIP3    H249730   2.522   0.235  14.194  0.6579 -0.2205 -0.2694
 9439TIP3   OH249731   1.976   6.690  17.313 -0.2914 -0.1932 -0.3032
 9439TIP3    H149732   1.930   6.607  17.327  0.5563 -0.7329 -0.6533
 9439TIP3    H249733   2.068   6.669  17.328 -0.1582  0.8956  0.4717
 9440TIP3   OH249734   1.539   1.455   6.400 -0.4098 -0.0018  0.4820
 9440TIP3    H149735   1.606   1.474   6.466 -0.6457 -0.3808  0.8338
 9440TIP3    H249736   1.490   1.537   6.391  1.3133  0.9182 -1.2199
 9441TIP3   OH249737   3.397   3.549  15.778 -0.7051 -0.1300 -0.1864
 9441TIP3    H149738   3.342   3.550  15.856  0.8791  2.0193  1.0170
 9441TIP3    H249739   3.338   3.522  15.708 -2.2688 -1.8200  1.6502
 9442TIP3   OH249740   4.810   5.246   0.324 -0.4331  0.3496  0.0491
 9442TIP3    H149741   4.838   5.337   0.313 -2.8770  1.2424  0.5811
 9442TIP3    H249742   4.892   5.197   0.331  1.0816  2.0282 -3.2674
 9443TIP3   OH249743   3.320   0.291   5.822 -0.4033 -0.1151 -0.0336
 9443TIP3    H149744   3.337   0.374   5.777 -0.7673  0.0526  0.1316
 9443TIP3    H249745   3.402   0.270   5.866 -0.5378  0.5559  0.5609
 9444TIP3   OH249746   3.204   6.623  12.021 -0.4334 -0.1639 -0.0775
 9444TIP3    H149747   3.180   6.540  11.980 -1.9519  0.2077  0.0079
 9444TIP3    H249748   3.216   6.683  11.948  0.1670 -0.3228 -0.1150
 9445TIP3   OH249749   6.114   6.448  11.946 -0.2173  0.0222 -0.3531
 9445TIP3    H149750   6.177   6.519  11.956 -0.0212  0.1170 -2.0649
 9445TIP3    H249751   6.035   6.490  11.912 -1.3351 -0.0677  1.8945
 9446TIP3   OH249752   6.039   5.283   4.381 -0.5421 -0.5185  0.1483
 9446TIP3    H149753   5.998   5.355   4.333  1.6380  0.1605 -0.8296
 9446TIP3    H249754   6.072   5.224   4.313  2.2270  0.2412  0.7130
 9447TIP3   OH249755   2.243   2.866  13.254  0.0729  0.4155 -0.2805
 9447TIP3    H149756   2.250   2.831  13.165  1.6723  1.5677 -0.6705
 9447TIP3    H249757   2.259   2.960  13.243  0.5958  0.5275  1.2489
 9448TIP3   OH249758   3.171   3.581  16.495 -0.2649 -0.2818  0.0658
 9448TIP3    H149759   3.256   3.538  16.502  0.4318  1.2980  2.9493
 9448TIP3    H249760   3.181   3.642  16.422  0.5413 -1.1441 -0.5663
 9449TIP3   OH249761   2.983   2.545   2.369  0.1308  0.0839 -0.1094
 9449TIP3    H149762   3.056   2.486   2.349  1.7423  1.4108  1.4496
 9449TIP3    H249763   2.922   2.534   2.297  2.4755 -0.1504 -2.1964
 9450TIP3   OH249764   4.323   4.814  17.051 -0.4486  0.3150 -0.3959
 9450TIP3    H149765   4.332   4.757  16.974 -1.4873 -0.9279  0.3685
 9450TIP3    H249766   4.247   4.780  17.098  1.2187 -0.1376  2.1803
 9451TIP3   OH249767   0.293   1.852   0.562 -0.3539  0.0659  0.5272
 9451TIP3    H149768   0.377   1.806   0.561 -0.7431 -0.6537  0.0238
 9451TIP3    H249769   0.316   1.944   0.572  0.5606  0.0110 -0.8592
 9452TIP3   OH249770   6.116   6.190   2.963  0.0178  0.2243 -0.0968
 9452TIP3    H149771   6.172   6.161   3.035  2.5530  2.9167 -0.8050
 9452TIP3    H249772   6.145   6.138   2.888 -0.1241 -0.0437  0.0305
 9453TIP3   OH249773   5.855   1.801   3.890  0.0094 -0.0078 -0.4849
 9453TIP3    H149774   5.775   1.764   3.926  0.9329  0.1568  1.9247
 9453TIP3    H249775   5.829   1.886   3.855 -0.5491  0.9865  2.1734
 9454TIP3   OH249776   1.136   3.617   1.061  0.6004  0.4288 -0.4259
 9454TIP3    H149777   1.215   3.569   1.084 -1.2240 -2.1635  0.8039
 9454TIP3    H249778   1.131   3.609   0.965  0.5369 -1.5988 -0.2909
 9455TIP3   OH249779   3.307   1.920  11.481 -0.0110  0.3190  0.3602
 9455TIP3    H149780   3.239   1.862  11.515 -1.1648  1.3579 -0.0562
 9455TIP3    H249781   3.357   1.866  11.420 -2.2981  0.1996 -1.5728
 9456TIP3   OH249782   0.099   2.684  15.011  0.0263 -0.6018 -0.6512
 9456TIP3    H149783   0.111   2.779  15.008 -0.5054 -0.3110  2.7406
 9456TIP3    H249784   0.184   2.650  15.040 -0.3992 -0.9144  0.2671
 9457TIP3   OH249785   2.178   5.903   6.454 -0.0613 -0.5755 -0.1504
 9457TIP3    H149786   2.193   5.863   6.539  1.2069 -1.3520 -0.7087
 9457TIP3    H249787   2.085   5.887   6.436 -0.5333  0.2365  1.3738
 9458TIP3   OH249788   1.540   0.584  16.486 -0.3710  0.0847 -0.0378
 9458TIP3    H149789   1.530   0.492  16.461 -0.4572 -0.3655  1.5212
 9458TIP3    H249790   1.499   0.589  16.572  0.8318  1.2803  0.4909
 9459TIP3   OH249791   0.471   2.537  12.969  0.3337  0.4143  0.1105
 9459TIP3    H149792   0.517   2.576  13.044 -0.1561  3.4169 -1.0049
 9459TIP3    H249793   0.380   2.567  12.978 -1.2215 -3.8968  1.2781
 9460TIP3   OH249794   4.060   5.672   0.060  0.1784  0.4881  0.2581
 9460TIP3    H149795   3.975   5.635   0.037  0.2099  1.3875 -1.3939
 9460TIP3    H249796   4.093   5.613   0.128 -1.0632 -0.7789 -0.1772
 9461TIP3   OH249797   3.934   0.840  15.810  0.1163  0.3079  0.1787
 9461TIP3    H149798   3.897   0.914  15.858 -0.0405 -0.5122  1.3737
 9461TIP3    H249799   3.987   0.794  15.875 -0.7454 -1.2952 -0.2100
 9462TIP3   OH249800   1.446   4.744  14.632 -0.1874 -0.0822  0.3938
 9462TIP3    H149801   1.420   4.652  14.638  1.5543 -0.7364 -1.0992
 9462TIP3    H249802   1.383   4.791  14.687 -0.1169 -2.3438  2.5580
 9463TIP3   OH249803   2.885   2.898  12.473  0.1518 -0.3603  0.3382
 9463TIP3    H149804   2.809   2.905  12.415  0.0494  0.3676  0.5564
 9463TIP3    H249805   2.866   2.957  12.546  1.6592  1.1825 -0.4394
 9464TIP3   OH249806   5.701   3.768  14.949 -0.0924  0.5606 -0.1298
 9464TIP3    H149807   5.640   3.757  14.876  1.0466  0.3945 -1.0923
 9464TIP3    H249808   5.760   3.694  14.942  0.4223  0.8947  0.5782
 9465TIP3   OH249809   1.729   4.192  14.342  0.2876 -0.4056  0.2679
 9465TIP3    H149810   1.799   4.218  14.282 -0.8769  2.0711 -0.1717
 9465TIP3    H249811   1.749   4.101  14.365  3.0050 -0.1460 -0.6731
 9466TIP3   OH249812   5.655   6.155  14.559 -0.4254 -0.4289  0.1378
 9466TIP3    H149813   5.628   6.185  14.646  0.1471  0.1502  0.1286
 9466TIP3    H249814   5.751   6.158  14.562 -0.3934 -0.9514 -0.3293
 9467TIP3   OH249815   5.874   4.444  11.842  0.2113  0.4469 -0.0249
 9467TIP3    H149816   5.806   4.438  11.909  0.2670 -1.0602 -0.0726
 9467TIP3    H249817   5.952   4.472  11.889  0.2142 -0.4681  0.5243
 9468TIP3   OH249818   0.482   0.146  16.702 -0.3897 -1.0099 -0.0383
 9468TIP3    H149819   0.410   0.088  16.727 -0.2507 -1.4141 -0.5687
 9468TIP3    H249820   0.488   0.137  16.607 -1.5254  1.2044 -0.3955
 9469TIP3   OH249821   4.140   3.582  15.436  0.1794 -0.1301  0.1278
 9469TIP3    H149822   4.187   3.659  15.467  0.7143  0.4480 -1.9686
 9469TIP3    H249823   4.047   3.606  15.442  0.3196  0.3735  0.2599
 9470TIP3   OH249824   3.051   5.626  15.995 -0.3960 -0.6659 -0.4209
 9470TIP3    H149825   3.004   5.642  15.914  0.6400 -1.3203 -1.1738
 9470TIP3    H249826   3.066   5.713  16.032 -3.0597 -0.4601  0.3951
 9471TIP3   OH249827   5.957   1.645  14.302 -0.4821 -0.1842 -0.2838
 9471TIP3    H149828   5.986   1.557  14.326  1.6677  0.0546 -1.6398
 9471TIP3    H249829   5.862   1.640  14.301 -0.5512 -1.5806  2.7966
 9472TIP3   OH249830   2.539   2.650  16.863  0.7004 -0.2180  0.2026
 9472TIP3    H149831   2.484   2.723  16.891  1.6135  0.7418 -0.4263
 9472TIP3    H249832   2.508   2.629  16.774  0.7546 -0.2788  0.1979
 9473TIP3   OH249833   1.932   1.219   4.736  0.0542 -0.2686 -0.0607
 9473TIP3    H149834   1.885   1.136   4.736 -0.7380  0.1292 -2.0308
 9473TIP3    H249835   2.023   1.195   4.755 -0.1453 -1.6117 -0.6766
 9474TIP3   OH249836   3.675   2.021  13.258 -0.5391 -0.1444 -0.5403
 9474TIP3    H149837   3.676   2.061  13.345 -1.4092 -1.3531  0.0513
 9474TIP3    H249838   3.592   2.049  13.220 -0.6027 -0.4182 -0.6014
 9475TIP3   OH249839   5.222   2.253   0.013 -0.2837 -0.2993  0.0501
 9475TIP3    H149840   5.182   2.215   0.091 -0.1176 -0.5134  0.0325
 9475TIP3    H249841   5.161   2.231  -0.058 -0.8800  0.6499  0.2542
 9476TIP3   OH249842   3.713   5.259  12.749  0.2852  0.3619 -0.3122
 9476TIP3    H149843   3.762   5.283  12.827 -0.1529  0.8121 -0.1692
 9476TIP3    H249844   3.756   5.306  12.678  1.6181 -1.2006 -0.6070
 9477TIP3   OH249845   2.755   4.158  11.564 -0.0869  0.3008 -0.3260
 9477TIP3    H149846   2.840   4.135  11.527  1.2493  0.9024  2.1116
 9477TIP3    H249847   2.753   4.113  11.649 -1.4321  1.7335  0.4600
 9478TIP3   OH249848   1.685   3.318   4.535  0.0552  0.5032 -0.1345
 9478TIP3    H149849   1.762   3.294   4.586  0.4718  0.8401 -0.5894
 9478TIP3    H249850   1.687   3.259   4.459  0.6025  1.3715 -0.8136
 9479TIP3   OH249851   2.898   1.367   0.387 -0.0576  0.4317  0.0277
 9479TIP3    H149852   2.805   1.353   0.405  0.0340  0.3981  0.5050
 9479TIP3    H249853   2.908   1.463   0.383  0.0112  0.4591  0.7058
 9480TIP3   OH249854   0.816   1.339  16.260  0.3370 -0.1361  0.2407
 9480TIP3    H149855   0.777   1.257  16.228 -0.6056 -0.4814  2.1808
 9480TIP3    H249856   0.768   1.360  16.339  2.0430  1.1307  1.0060
 9481TIP3   OH249857   0.878   3.301  16.908  0.7910 -0.2087  0.0628
 9481TIP3    H149858   0.914   3.365  16.847  1.9119 -2.0485 -1.3415
 9481TIP3    H249859   0.783   3.311  16.900  0.9184  0.0705 -1.5160
 9482TIP3   OH249860   4.990   0.505  10.895  0.3646 -0.1282 -0.0651
 9482TIP3    H149861   5.076   0.467  10.878 -0.6739 -2.4379 -0.5710
 9482TIP3    H249862   4.947   0.505  10.810  0.1086  1.8426  0.0060
 9483TIP3   OH249863   4.123   3.948  17.084  0.4862 -0.8412  0.5137
 9483TIP3    H149864   4.185   3.884  17.049  3.2975  2.3754 -1.1088
 9483TIP3    H249865   4.179   4.022  17.111 -2.5858  2.2104 -0.7624
 9484TIP3   OH249866   0.464   1.294  11.623  0.1487  0.2978  0.4287
 9484TIP3    H149867   0.439   1.275  11.533 -0.5753 -1.2941  0.9187
 9484TIP3    H249868   0.525   1.367  11.617  0.6329 -0.2182 -1.3994
 9485TIP3   OH249869   1.794   1.960  15.627 -0.4475  0.0241 -0.2092
 9485TIP3    H149870   1.826   1.977  15.538  0.8246  0.2271  0.2627
 9485TIP3    H249871   1.797   2.046  15.670 -1.2027 -0.0445 -0.0011
 9486TIP3   OH249872   4.164   4.010   0.386 -0.0947  0.1796  0.0359
 9486TIP3    H149873   4.070   4.030   0.394 -0.7748 -1.2006 -3.0748
 9486TIP3    H249874   4.174   3.925   0.428 -0.4009 -0.0323 -0.3169
 9487TIP3   OH249875   5.565   0.314  12.569  0.6621 -0.0187 -0.4669
 9487TIP3    H149876   5.580   0.399  12.527 -3.1546  1.4007  0.6361
 9487TIP3    H249877   5.604   0.323  12.656  0.5807  0.4773 -0.4767
 9488TIP3   OH249878   5.459   5.226  14.838 -0.3655 -0.5957  0.1438
 9488TIP3    H149879   5.523   5.220  14.768 -0.4079 -0.8076  0.1210
 9488TIP3    H249880   5.463   5.140  14.881 -2.0537 -1.3416 -1.1022
 9489TIP3   OH249881   6.505   6.039   3.154 -0.0971 -0.0508 -0.0776
 9489TIP3    H149882   6.537   6.025   3.065  0.8281  1.2898  0.0124
 9489TIP3    H249883   6.572   6.000   3.210 -0.3225 -0.2495  0.0574
 9490TIP3   OH249884   0.691   2.050   4.606  0.2263  0.0814  0.1600
 9490TIP3    H149885   0.684   2.123   4.667 -0.0962 -0.9045  1.3521
 9490TIP3    H249886   0.613   1.996   4.624  1.2562 -1.3772  0.4679
 9491TIP3   OH249887   5.085   0.074   0.556 -0.1472  0.0842  0.1463
 9491TIP3    H149888   4.991   0.089   0.566  0.2658  2.0756  1.6610
 9491TIP3    H249889   5.106   0.111   0.470 -0.8894 -1.4220 -0.7278
 9492TIP3   OH249890   2.277   3.687  13.414 -0.3910 -0.6811 -0.2329
 9492TIP3    H149891   2.333   3.627  13.365 -1.0045 -0.9108 -0.6596
 9492TIP3    H249892   2.198   3.637  13.432 -0.5372 -0.2980  0.2041
 9493TIP3   OH249893   2.794   2.930   3.835 -0.2940  0.6880 -0.2222
 9493TIP3    H149894   2.879   2.903   3.870  0.1891  0.0764 -1.7708
 9493TIP3    H249895   2.766   2.855   3.782 -2.6490  0.1463  1.6383
 9494TIP3   OH249896   2.497   1.718  12.285 -0.4256 -0.7097 -0.2543
 9494TIP3    H149897   2.473   1.626  12.296 -0.6866 -0.5634  0.4952
 9494TIP3    H249898   2.420   1.767  12.315  0.1767 -0.2516  0.6108
 9495TIP3   OH249899   5.739   5.206  13.138 -0.0111  0.4301  0.2940
 9495TIP3    H149900   5.744   5.113  13.159 -0.6988  0.1769 -0.5816
 9495TIP3    H249901   5.760   5.250  13.220 -0.4017 -0.4958  0.9150
 9496TIP3   OH249902   3.978   3.923   3.503 -0.3665 -1.1451 -0.0487
 9496TIP3    H149903   3.898   3.975   3.505  0.0821 -0.2193 -2.4762
 9496TIP3    H249904   3.962   3.857   3.436  0.0241 -2.5500  1.1984
 9497TIP3   OH249905   3.663   4.159  11.950  0.4231 -0.4883 -0.4688
 9497TIP3    H149906   3.743   4.110  11.971 -0.7361 -2.0656  0.4754
 9497TIP3    H249907   3.594   4.114  11.998 -1.2196  0.1670 -2.0856
 9498TIP3   OH249908   0.051   3.807  16.573 -0.1789 -0.2490  0.2163
 9498TIP3    H149909   0.118   3.740  16.587 -1.3502 -1.4053  0.5067
 9498TIP3    H249910   0.069   3.872  16.640  1.1070 -0.1518 -0.1934
 9499TIP3   OH249911   2.008   1.722  15.980  0.0252  0.2867 -0.2215
 9499TIP3    H149912   1.953   1.800  15.991 -1.7904 -1.0654  0.8390
 9499TIP3    H249913   1.953   1.650  16.009  2.5782 -1.1294  1.4391
 9500TIP3   OH249914   5.136   5.254   6.243  0.5154  0.1487 -0.1259
 9500TIP3    H149915   5.123   5.234   6.336  1.8478  1.3400  0.3433
 9500TIP3    H249916   5.082   5.189   6.197 -1.9704  0.9311  1.5051
 9501TIP3   OH249917   5.998   6.092  10.942  0.0755  0.0032 -0.0393
 9501TIP3    H149918   5.974   6.035  10.869 -0.2023 -0.7059  0.5942
 9501TIP3    H249919   5.954   6.175  10.923 -0.3106 -0.2960 -0.4815
 9502TIP3   OH249920   3.004   1.236   5.959  0.1662 -0.1332  0.1272
 9502TIP3    H149921   3.071   1.220   5.893  1.3176 -1.2277  1.4914
 9502TIP3    H249922   2.986   1.150   5.997 -0.6094  0.4291  1.1084
 9503TIP3   OH249923   5.528   0.145   5.789  0.2615  0.0731  0.0605
 9503TIP3    H149924   5.585   0.222   5.792 -0.4539  0.6029  0.1482
 9503TIP3    H249925   5.485   0.144   5.874  0.4296 -0.5536  0.1423
 9504TIP3   OH249926   4.228   2.168   5.921 -0.2760  0.2297 -0.4978
 9504TIP3    H149927   4.282   2.117   5.981 -0.4469  1.8867  1.1504
 9504TIP3    H249928   4.261   2.146   5.834  1.5406 -0.4836  0.3318
 9505TIP3   OH249929   2.547   6.704  15.656  0.5102  0.3329  0.1532
 9505TIP3    H149930   2.609   6.646  15.700 -0.0971  0.6889  1.5158
 9505TIP3    H249931   2.503   6.648  15.592  1.1722 -0.2709  0.2098
 9506TIP3   OH249932   4.041   2.836  16.506  0.5371  0.1873 -0.1647
 9506TIP3    H149933   4.002   2.901  16.449  1.0137 -0.2566 -1.0155
 9506TIP3    H249934   4.062   2.884  16.587  1.2175  1.1831 -0.9060
 9507TIP3   OH249935   2.294   6.578   3.903  0.0632  0.6201  0.1098
 9507TIP3    H149936   2.285   6.585   3.998  1.6165  0.7508  0.2640
 9507TIP3    H249937   2.352   6.651   3.879 -2.1647  2.0535 -1.2645
 9508TIP3   OH249938   1.474   4.368   0.870  0.3177  0.2590  0.4157
 9508TIP3    H149939   1.381   4.351   0.861  0.5744 -0.2150 -1.8429
 9508TIP3    H249940   1.514   4.281   0.878  0.7975  0.2140 -1.8287
 9509TIP3   OH249941   2.690   4.608  16.976  0.1894  0.1695 -0.3976
 9509TIP3    H149942   2.779   4.613  16.944 -0.1130  1.0290 -1.1289
 9509TIP3    H249943   2.653   4.530  16.934  0.5013 -0.0170 -0.3242
 9510TIP3   OH249944   2.681   1.544  14.718  0.4993  0.3566 -0.4072
 9510TIP3    H149945   2.634   1.514  14.640 -1.9096 -1.4023  1.5466
 9510TIP3    H249946   2.683   1.467  14.775  0.2140  2.1332  2.1248
 9511TIP3   OH249947   6.166   2.687   1.910  0.4752  0.7550 -0.2920
 9511TIP3    H149948   6.256   2.714   1.928  0.2691  1.8510 -0.7703
 9511TIP3    H249949   6.113   2.754   1.953 -0.1018  0.3556 -0.3754
 9512TIP3   OH249950   4.129   6.021   1.949  0.7731  0.0305  0.2238
 9512TIP3    H149951   4.104   6.015   2.041 -1.0894 -0.4868 -0.2702
 9512TIP3    H249952   4.116   5.933   1.914  0.5606  0.4288 -0.7429
 9513TIP3   OH249953   6.204   0.489   4.713  0.2168 -0.3082 -0.1819
 9513TIP3    H149954   6.224   0.554   4.780  0.1013 -2.0981  1.7022
 9513TIP3    H249955   6.133   0.528   4.662 -0.9878  0.4108  1.9147
 9514TIP3   OH249956   1.331   0.547   1.589 -0.2127  0.2855 -0.1826
 9514TIP3    H149957   1.297   0.541   1.679 -0.9943 -0.5634 -0.5187
 9514TIP3    H249958   1.404   0.608   1.595 -0.0241 -0.0333  1.1060
 9515TIP3   OH249959   5.455   6.140  16.906  0.0148 -0.3416 -0.1036
 9515TIP3    H149960   5.490   6.215  16.858  1.2864 -0.2053  0.9579
 9515TIP3    H249961   5.533   6.094  16.937 -0.6845 -2.8226 -1.7409
 9516TIP3   OH249962   0.311   0.896  13.651  0.1797 -0.4437 -0.3927
 9516TIP3    H149963   0.315   0.897  13.746  0.6924 -0.8535 -0.4024
 9516TIP3    H249964   0.403   0.890  13.623  0.0025 -0.9292 -0.8947
 9517TIP3   OH249965   4.277   3.192   4.571  0.3045  0.1190 -0.0516
 9517TIP3    H149966   4.298   3.172   4.480  1.1543  1.6249 -0.2328
 9517TIP3    H249967   4.208   3.258   4.566  0.4169  0.2778  0.3885
 9518TIP3   OH249968   0.829   1.603  16.148 -0.6174 -0.0793  0.1622
 9518TIP3    H149969   0.825   1.509  16.163  0.3118 -0.2690 -0.7121
 9518TIP3    H249970   0.861   1.612  16.059 -1.6991  1.0707 -0.1352
 9519TIP3   OH249971   3.510   0.010   5.067  0.3288  0.8349 -0.0179
 9519TIP3    H149972   3.524  -0.063   5.128  0.8387  0.7638 -0.2140
 9519TIP3    H249973   3.462   0.075   5.118  0.4306  0.6242  0.3500
 9520TIP3   OH249974   5.294   1.146   4.773  0.6487 -0.2776  0.4179
 9520TIP3    H149975   5.371   1.101   4.739  1.6775  0.8066  1.1966
 9520TIP3    H249976   5.326   1.233   4.796 -0.5246 -0.1923  1.8966
 9521TIP3   OH249977   2.622   0.744  12.314 -0.0417 -0.0123 -0.2675
 9521TIP3    H149978   2.638   0.826  12.361 -0.7247  0.2936 -0.5460
 9521TIP3    H249979   2.526   0.738  12.309 -0.1568 -2.2061  2.1920
 9522TIP3   OH249980   3.993   3.592  14.901  0.1730 -0.6135 -0.1343
 9522TIP3    H149981   4.032   3.670  14.861 -0.8898 -0.4146 -0.8193
 9522TIP3    H249982   4.037   3.584  14.986  0.2583  0.7754 -0.0296
 9523TIP3   OH249983   2.258   0.770  14.016 -0.7434  0.1902 -0.4023
 9523TIP3    H149984   2.201   0.842  14.043  1.2814  2.1624 -1.0923
 9523TIP3    H249985   2.197   0.701  13.991 -2.9271  2.5477 -2.2128
 9524TIP3   OH249986   4.412   3.350   4.908  0.5947  0.1610  0.0862
 9524TIP3    H149987   4.471   3.324   4.979  1.9240  0.3231 -0.9193
 9524TIP3    H249988   4.425   3.444   4.901 -0.3265  0.3106  0.3051
 9525TIP3   OH249989   5.115   1.035  15.650  0.0128 -0.0840 -0.0879
 9525TIP3    H149990   5.080   1.115  15.611  0.8648  0.1293 -0.4285
 9525TIP3    H249991   5.038   0.981  15.667 -0.5053  0.5049 -0.5257
 9526TIP3   OH249992   5.930   0.671  16.622 -0.3446  0.7753 -0.0089
 9526TIP3    H149993   5.989   0.746  16.630 -1.3844  1.4031  2.7703
 9526TIP3    H249994   5.844   0.709  16.605 -0.3363 -0.0704 -2.4749
 9527TIP3   OH249995   1.725   5.589  12.761 -0.1082 -0.0028  0.3048
 9527TIP3    H149996   1.802   5.580  12.817 -0.8507 -0.4596  1.2814
 9527TIP3    H249997   1.732   5.677  12.724 -0.1601  0.7548  1.9986
 9528TIP3   OH249998   1.495   3.982   6.422  0.3123 -0.4978  0.3637
 9528TIP3    H149999   1.473   3.898   6.461  2.1409 -0.5572  1.3900
 9528TIP3    H250000   1.582   4.003   6.458  0.0892  1.6157 -0.1925
 9529TIP3   OH250001   6.280   5.842   2.167  0.1394 -0.1435 -0.3399
 9529TIP3    H150002   6.216   5.851   2.097 -1.8940  1.7400  1.6099
 9529TIP3    H250003   6.228   5.816   2.243  1.9673 -0.1685  0.9532
 9530TIP3   OH250004   4.021   5.181   1.525 -0.0772 -0.1731  0.3975
 9530TIP3    H150005   4.032   5.141   1.439 -2.8622 -1.0826  0.3668
 9530TIP3    H250006   4.110   5.185   1.561  1.0888 -0.3727 -2.2046
 9531TIP3   OH250007   3.009   3.435   1.033  0.2482 -0.1948  0.0992
 9531TIP3    H150008   3.037   3.365   0.974  0.4509  0.1573 -0.2235
 9531TIP3    H250009   2.931   3.472   0.991 -0.4940 -0.9225  0.8029
 9532TIP3   OH250010   0.060   0.358   4.234 -0.1678 -0.0136 -0.1242
 9532TIP3    H150011   0.002   0.415   4.283 -1.4541 -1.1210 -0.2976
 9532TIP3    H250012   0.143   0.406   4.229 -1.0751  1.6260  0.0725
 9533TIP3   OH250013   2.255   5.020  17.214  0.5878 -0.0086 -0.0184
 9533TIP3    H150014   2.319   5.080  17.177  1.2926 -0.9462 -0.3611
 9533TIP3    H250015   2.199   4.996  17.141 -1.1207  1.9410  0.5700
 9534TIP3   OH250016   2.065   5.605   3.527 -0.0136  0.3775  0.3315
 9534TIP3    H150017   2.077   5.700   3.526 -0.6138  0.4740  0.8829
 9534TIP3    H250018   2.038   5.583   3.438  2.5922  0.3405 -0.5294
 9535TIP3   OH250019   0.496   5.345  11.415 -0.4790 -0.0462  0.1816
 9535TIP3    H150020   0.555   5.413  11.447  1.2146 -1.6156  0.5929
 9535TIP3    H250021   0.467   5.376  11.329  2.2124  0.1764 -0.7674
 9536TIP3   OH250022   4.427   5.656   6.129 -0.2745  0.2107  0.2761
 9536TIP3    H150023   4.434   5.597   6.054  4.8902 -0.1782  0.7462
 9536TIP3    H250024   4.426   5.597   6.205  1.1035  0.6290  0.6362
 9537TIP3   OH250025   1.384   4.691  12.590 -0.4689 -0.3674 -0.0538
 9537TIP3    H150026   1.358   4.600  12.603 -0.7054 -0.1131  1.3706
 9537TIP3    H250027   1.414   4.694  12.499 -0.3121 -1.8996 -0.0858
 9538TIP3   OH250028   6.039   5.718  15.706 -0.0349 -0.2465 -0.4575
 9538TIP3    H150029   6.001   5.763  15.631  0.1404 -1.5620 -1.3692
 9538TIP3    H250030   5.980   5.739  15.779 -0.0740  1.2350 -0.8913
 9539TIP3   OH250031   3.443   2.168   3.239  0.1940  0.0563  0.0584
 9539TIP3    H150032   3.383   2.166   3.164 -0.6624 -2.3204  0.7237
 9539TIP3    H250033   3.426   2.253   3.280 -1.1553  0.3340 -0.9872
 9540TIP3   OH250034   2.779   1.005   3.946  0.3853 -0.7072  0.0854
 9540TIP3    H150035   2.799   1.096   3.925 -1.5897 -0.6891 -2.0081
 9540TIP3    H250036   2.865   0.963   3.949  1.2022  0.5091 -2.6037
 9541TIP3   OH250037   4.511   3.881   2.487  0.3295  0.1310 -1.0090
 9541TIP3    H150038   4.462   3.951   2.530 -1.1467 -0.3787 -1.7762
 9541TIP3    H250039   4.450   3.807   2.486  1.8763 -1.2278 -0.1210
 9542TIP3   OH250040   5.081   2.092   0.173 -0.0865  0.4051  0.0946
 9542TIP3    H150041   5.099   2.014   0.226 -0.9351  0.2963  0.2262
 9542TIP3    H250042   5.116   2.070   0.087 -2.2686 -1.0417 -0.5119
 9543TIP3   OH250043   3.141   2.537   1.440  0.0533  0.2938  0.3669
 9543TIP3    H150044   3.208   2.514   1.504 -0.6847  1.0080  1.4186
 9543TIP3    H250045   3.157   2.478   1.366  0.0263 -1.5733  1.7902
 9544TIP3   OH250046   5.980   3.157   5.341  0.2010 -0.1546 -0.2257
 9544TIP3    H150047   5.933   3.235   5.311 -1.0397 -0.0942  1.6629
 9544TIP3    H250048   6.056   3.151   5.283 -0.4780  1.5658 -1.3955
 9545TIP3   OH250049   5.354   0.246  10.209  0.1431 -0.4907  0.5373
 9545TIP3    H150050   5.371   0.283  10.296 -0.2849  0.0732  0.3943
 9545TIP3    H250051   5.363   0.152  10.221 -0.3566 -0.4581  1.3063
 9546TIP3   OH250052   5.372   3.300  17.175  0.2492 -0.1152 -0.3386
 9546TIP3    H150053   5.441   3.354  17.214 -0.7972  0.6405  0.5055
 9546TIP3    H250054   5.343   3.350  17.099 -2.1293  1.6051  1.5799
 9547TIP3   OH250055   4.711   1.609   1.357  0.7242 -0.0484  0.2059
 9547TIP3    H150056   4.709   1.541   1.424  0.2391  0.1470  0.3932
 9547TIP3    H250057   4.620   1.638   1.349  0.8016  0.0529 -0.4127
 9548TIP3   OH250058   6.659   2.343   4.729 -0.3994 -0.0248 -0.1036
 9548TIP3    H150059   6.754   2.333   4.740 -0.4289 -0.9080 -0.5423
 9548TIP3    H250060   6.631   2.260   4.691 -1.4703 -0.0687  0.7507
 9549TIP3   OH250061   4.605   5.326   1.161  0.2691  0.1035 -0.1197
 9549TIP3    H150062   4.558   5.341   1.243 -1.0226  1.3214 -1.0073
 9549TIP3    H250063   4.629   5.234   1.163  0.2345  0.0944  1.5924
 9550TIP3   OH250064   4.506   1.590  11.968  0.4757 -0.3206 -0.7810
 9550TIP3    H150065   4.590   1.633  11.987  0.7544 -0.3875 -1.7977
 9550TIP3    H250066   4.524   1.497  11.981 -0.2612 -0.1514  1.9115
 9551TIP3   OH250067   3.960   6.450   0.474  0.3455  0.1477  0.0012
 9551TIP3    H150068   4.013   6.501   0.413 -0.0556 -1.8007 -2.0985
 9551TIP3    H250069   4.013   6.445   0.554  2.6798 -0.4411 -1.4933
 9552TIP3   OH250070   4.021   5.906   0.833  0.3038 -0.0604 -0.2374
 9552TIP3    H150071   4.025   5.993   0.795  2.5020  0.7581  1.6544
 9552TIP3    H250072   4.051   5.847   0.764  1.3407  1.0122 -0.7328
 9553TIP3   OH250073   3.449   1.327  14.323  0.0873  0.2274  0.1808
 9553TIP3    H150074   3.415   1.379  14.396 -0.7254  1.6911 -1.1729
 9553TIP3    H250075   3.532   1.293  14.355  0.3110  1.7910  1.4022
 9554TIP3   OH250076   5.106   5.095   3.535  0.0183  0.0601 -1.2874
 9554TIP3    H150077   5.039   5.058   3.593  0.7662 -1.7490 -1.5167
 9554TIP3    H250078   5.066   5.174   3.499 -0.6166  1.0526  1.3748
 9555TIP3   OH250079   3.067   2.008   3.147  0.1604 -0.1743 -0.0916
 9555TIP3    H150080   3.145   2.035   3.098  0.4767  0.9169  0.9791
 9555TIP3    H250081   3.016   1.958   3.083  1.0265  0.3593 -1.2457
 9556TIP3   OH250082   3.718   6.419  14.455  0.1374  0.2474 -0.1131
 9556TIP3    H150083   3.808   6.451  14.450  0.1259  0.7017  1.8055
 9556TIP3    H250084   3.666   6.486  14.411  0.5672  0.8032  0.2137
 9557TIP3   OH250085   0.634   4.735   6.605  0.4173  0.6192 -0.5720
 9557TIP3    H150086   0.697   4.798   6.640  1.0930  0.9284 -2.2675
 9557TIP3    H250087   0.552   4.784   6.598 -0.3382 -0.0256  2.4823
 9558TIP3   OH250088   1.210   2.530   1.601  0.3580 -0.2913  0.2605
 9558TIP3    H150089   1.281   2.576   1.646 -1.5264  2.4163  0.7041
 9558TIP3    H250090   1.214   2.563   1.511 -0.5937  0.2616  0.4097
 9559TIP3   OH250091   0.314   2.457  16.706 -0.0717 -0.2666 -0.5498
 9559TIP3    H150092   0.305   2.452  16.801 -0.6977  0.4836 -0.5659
 9559TIP3    H250093   0.408   2.444  16.690 -0.0720 -1.2101  0.1032
 9560TIP3   OH250094   1.913   6.728   2.675 -0.2105 -0.2830  0.2398
 9560TIP3    H150095   1.902   6.650   2.730  0.6653  0.6803  1.8621
 9560TIP3    H250096   1.994   6.712   2.627 -0.4078 -0.6685  0.0268
 9561TIP3   OH250097   2.803   3.777  14.087 -0.5556 -0.0653  0.4993
 9561TIP3    H150098   2.860   3.726  14.030 -1.9561 -1.6518  0.4419
 9561TIP3    H250099   2.859   3.846  14.122  0.4970  0.6665 -2.3455
 9562TIP3   OH250100   0.300   0.881   5.017 -0.0266 -0.2579  0.3433
 9562TIP3    H150101   0.269   0.912   4.932 -0.7713 -0.7242  0.4302
 9562TIP3    H250102   0.271   0.948   5.079 -2.0514 -1.2626  0.5964
 9563TIP3   OH250103   2.953   2.235  13.942 -0.1316 -0.5581 -0.4606
 9563TIP3    H150104   3.013   2.243  14.016  0.2553 -0.7154 -0.7480
 9563TIP3    H250105   2.877   2.286  13.966 -0.3819 -1.3179  0.4167
 9564TIP3   OH250106   6.597   4.362  14.216  0.3087  0.0737 -0.5469
 9564TIP3    H150107   6.647   4.283  14.197  0.4012  0.3397 -1.4770
 9564TIP3    H250108   6.547   4.378  14.135 -0.2056  0.5926 -0.1333
 9565TIP3   OH250109   1.385   2.091  14.708 -0.4964 -0.3437 -0.4462
 9565TIP3    H150110   1.377   2.152  14.634  1.0394 -0.0366 -0.3912
 9565TIP3    H250111   1.332   2.130  14.777 -0.3153  0.4366 -0.7346
 9566TIP3   OH250112   3.466   4.316  11.435 -0.3353 -0.2115  0.2433
 9566TIP3    H150113   3.518   4.260  11.378 -1.3533 -1.6395  0.6737
 9566TIP3    H250114   3.375   4.300  11.409 -0.6353  2.4317 -0.6840
 9567TIP3   OH250115   2.294   5.930  16.287  0.3234 -0.3151  0.0559
 9567TIP3    H150116   2.370   5.976  16.251  1.2842 -2.0418 -0.2518
 9567TIP3    H250117   2.219   5.971  16.246  1.2242 -0.0719 -1.4227
 9568TIP3   OH250118   6.115   3.908   3.660  0.4337 -0.0550 -0.4254
 9568TIP3    H150119   6.136   3.973   3.593  1.0787 -0.5829 -0.7504
 9568TIP3    H250120   6.112   3.825   3.611  2.3524 -0.6690  0.4195
 9569TIP3   OH250121   1.889   5.628   3.306 -0.5711  0.8575  0.0673
 9569TIP3    H150122   1.796   5.615   3.287  0.2347  0.6609 -5.3998
 9569TIP3    H250123   1.932   5.552   3.267  2.0175  0.9094  2.4956
 9570TIP3   OH250124   0.317   0.579   1.788  0.2039 -0.3030 -0.3071
 9570TIP3    H150125   0.316   0.666   1.749  0.1979 -0.6324 -1.0625
 9570TIP3    H250126   0.328   0.594   1.882 -3.1779  0.6516  0.0291
 9571TIP3   OH250127   6.342   4.188  17.324  0.1239 -0.3915 -0.2139
 9571TIP3    H150128   6.361   4.281  17.311  0.4422 -0.2684  1.0140
 9571TIP3    H250129   6.390   4.144  17.254  0.9691  0.2869 -0.0814
 9572TIP3   OH250130   0.768   2.328  12.555 -0.1264 -0.0266 -0.4545
 9572TIP3    H150131   0.703   2.325  12.625 -1.2228 -0.7340 -1.4739
 9572TIP3    H250132   0.783   2.236  12.532  1.5646  0.0926  0.0333
 9573TIP3   OH250133   4.766   5.126   4.999 -0.2194  0.3711  0.4566
 9573TIP3    H150134   4.813   5.103   4.920 -1.9417 -1.2939 -0.1810
 9573TIP3    H250135   4.758   5.043   5.047 -0.5113  1.0532  1.6333
 9574TIP3   OH250136   1.513   1.624  16.540  0.0356  0.1415 -0.2606
 9574TIP3    H150137   1.479   1.626  16.450 -0.3784  0.0429 -0.1087
 9574TIP3    H250138   1.601   1.588  16.532 -0.5004 -1.1658 -0.4687
 9575TIP3   OH250139   6.026   3.091  17.047  0.6249 -0.2778 -0.2955
 9575TIP3    H150140   6.101   3.061  16.996  1.3883 -0.2156  0.7782
 9575TIP3    H250141   5.959   3.024  17.031  1.0692 -0.5925 -0.8659
 9576TIP3   OH250142   5.152   0.003  13.509 -0.9295  0.4838 -0.2189
 9576TIP3    H150143   5.122   0.090  13.483 -1.9835 -0.5734 -2.8252
 9576TIP3    H250144   5.180  -0.039  13.428  0.3039 -1.3759  1.0714
 9577TIP3   OH250145   4.869   2.111   4.024  0.1082  0.0061  0.3844
 9577TIP3    H150146   4.819   2.187   4.053  1.0932 -0.0968  2.5600
 9577TIP3    H250147   4.942   2.105   4.087 -1.6646 -4.5773  2.4188
 9578TIP3   OH250148   1.817   6.594   0.354 -0.4739  0.4237  0.0513
 9578TIP3    H150149   1.857   6.515   0.318 -0.1033  0.9152 -0.6376
 9578TIP3    H250150   1.723   6.577   0.349 -0.4107  0.2329 -0.5756
 9579TIP3   OH250151   4.863   3.215   1.694  0.0784  0.8639  0.0628
 9579TIP3    H150152   4.897   3.148   1.635 -0.8494  1.1511 -0.8455
 9579TIP3    H250153   4.933   3.280   1.700  0.7295  0.1312  0.4226
 9580TIP3   OH250154   4.816   0.327  12.571 -0.3244  0.4039  0.1387
 9580TIP3    H150155   4.725   0.336  12.598 -0.3796 -0.0074  0.0965
 9580TIP3    H250156   4.866   0.327  12.653 -0.3950  0.2347  0.1803
 9581TIP3   OH250157   3.656   1.661  15.107  0.0395  0.0100  0.1392
 9581TIP3    H150158   3.590   1.672  15.176  0.7837 -0.1733  0.8941
 9581TIP3    H250159   3.605   1.651  15.026 -0.8572  4.2783 -0.0250
 9582TIP3   OH250160   6.021   2.192  14.251  0.4752  0.4138  0.8948
 9582TIP3    H150161   6.087   2.132  14.286  0.3082  1.3289  2.9301
 9582TIP3    H250162   6.067   2.276  14.244 -0.0132  0.6604  0.6534
 9583TIP3   OH250163   1.121   6.479  13.831 -0.3757 -0.2638 -0.1483
 9583TIP3    H150164   1.068   6.399  13.835  0.5086 -0.8056  1.0730
 9583TIP3    H250165   1.197   6.461  13.886 -0.1092  1.3975  0.0774
 9584TIP3   OH250166   6.749   2.401   1.904  0.1297 -1.0780  0.0739
 9584TIP3    H150167   6.833   2.372   1.939  0.5025 -1.9400 -1.4605
 9584TIP3    H250168   6.758   2.393   1.810  0.4447  4.3782 -0.7132
 9585TIP3   OH250169   6.250   1.911   3.822 -0.0429 -0.5346 -0.0773
 9585TIP3    H150170   6.269   2.003   3.838  0.9591 -0.9036  1.1168
 9585TIP3    H250171   6.305   1.865   3.886  0.5374 -2.0137 -1.5884
 9586TIP3   OH250172   4.398   2.610  16.557 -0.1815 -0.0639 -0.2977
 9586TIP3    H150173   4.435   2.545  16.617 -1.6801 -0.2207  0.5094
 9586TIP3    H250174   4.416   2.694  16.600 -1.1283 -0.1671  0.3221
 9587TIP3   OH250175   3.067   1.030  14.853  0.1205  0.2738 -0.6995
 9587TIP3    H150176   3.063   0.942  14.890  1.4125  0.2846 -0.4931
 9587TIP3    H250177   3.094   1.017  14.762  0.5265  0.4636 -0.6081
 9588TIP3   OH250178   3.811   1.493  16.198  0.2551 -0.8111  0.0641
 9588TIP3    H150179   3.895   1.488  16.243  1.1820 -2.6292 -1.7213
 9588TIP3    H250180   3.831   1.536  16.115 -1.2942  1.8542  0.9280
 9589TIP3   OH250181   6.602   5.810  14.540  0.2760  0.4189 -0.1127
 9589TIP3    H150182   6.688   5.772  14.556 -0.0728  0.2891  1.5640
 9589TIP3    H250183   6.586   5.867  14.614 -1.6067 -0.5230  0.2715
 9590TIP3   OH250184   2.826   1.643   6.253  0.2631  0.5496  0.2154
 9590TIP3    H150185   2.859   1.641   6.342 -0.4981 -1.2726  0.5042
 9590TIP3    H250186   2.904   1.634   6.198  0.7033  1.3866  0.6768
 9591TIP3   OH250187   6.263   6.175  13.137 -0.4671 -0.0623  0.7507
 9591TIP3    H150188   6.174   6.208  13.121 -0.7561 -1.1082  0.0410
 9591TIP3    H250189   6.312   6.201  13.059  0.1872  1.5356  1.6546
 9592TIP3   OH250190   2.257   1.553   1.498 -0.1103  0.1647  0.1778
 9592TIP3    H150191   2.287   1.566   1.408  0.0999  0.6843  0.3228
 9592TIP3    H250192   2.314   1.484   1.532  0.5824  0.7826  0.2834
 9593TIP3   OH250193   4.986   5.842   4.709  1.0006 -0.0241 -0.0786
 9593TIP3    H150194   4.915   5.778   4.703  2.6580 -1.8246 -2.4501
 9593TIP3    H250195   5.042   5.810   4.779  0.8252 -0.0880  0.0324
 9594TIP3   OH250196   5.381   3.841   1.105  0.6845  0.1214 -1.2426
 9594TIP3    H150197   5.378   3.795   1.188 -1.0744  2.6329  0.2301
 9594TIP3    H250198   5.461   3.810   1.063  1.5824 -1.3358  1.3213
 9595TIP3   OH250199   4.386   6.179  16.414  0.6224  0.7230 -0.6554
 9595TIP3    H150200   4.348   6.237  16.347  0.2164  1.6909  0.3880
 9595TIP3    H250201   4.480   6.196  16.409  0.4209  2.4470  0.4720
 9596TIP3   OH250202   1.888   4.605   0.786 -0.4797 -0.4340  0.3390
 9596TIP3    H150203   1.899   4.520   0.742  0.7187 -0.6358  0.9760
 9596TIP3    H250204   1.798   4.631   0.766  0.1600 -0.1982 -2.7866
 9597TIP3   OH250205   5.973   0.039   6.459  0.3477 -0.3683  0.8900
 9597TIP3    H150206   5.898   0.096   6.472 -0.8480 -1.1462 -1.8587
 9597TIP3    H250207   5.956  -0.038   6.513  0.6236  0.6261  2.4590
 9598TIP3   OH250208   4.507   0.953   0.359 -0.3980 -0.0848  0.2930
 9598TIP3    H150209   4.424   0.907   0.351 -0.9290  1.0815 -1.7798
 9598TIP3    H250210   4.573   0.890   0.330 -0.3666 -1.3617  2.9285
 9599TIP3   OH250211   2.117   5.633   1.426  0.1545  0.1981  0.0013
 9599TIP3    H150212   2.047   5.627   1.491 -0.4039  1.6139 -0.4127
 9599TIP3    H250213   2.196   5.651   1.477 -0.2302  1.0208  0.3289
 9600TIP3   OH250214   6.685   0.876   5.187 -0.1787  0.4058  0.1526
 9600TIP3    H150215   6.592   0.892   5.173 -0.4006  0.4986  1.6340
 9600TIP3    H250216   6.725   0.963   5.185 -0.0429  0.3309 -0.9273
 9601TIP3   OH250217   4.846   1.525  11.843 -0.6775 -0.5947 -0.8756
 9601TIP3    H150218   4.853   1.435  11.874  1.1090 -0.5382 -1.0265
 9601TIP3    H250219   4.859   1.579  11.921 -0.2096 -0.4658 -1.0411
 9602TIP3   OH250220   3.098   4.866   2.038 -0.5799 -0.0421 -0.0277
 9602TIP3    H150221   3.015   4.822   2.018  0.4986 -1.5821 -1.4342
 9602TIP3    H250222   3.131   4.820   2.115  0.3818 -1.5692 -1.2930
 9603TIP3   OH250223   2.178   0.003   2.547  0.1948  0.5736  0.1175
 9603TIP3    H150224   2.196   0.021   2.640 -0.0288  1.8590 -0.0757
 9603TIP3    H250225   2.264  -0.015   2.509  0.2703 -0.1157  0.5971
 9604TIP3   OH250226   0.413   1.444  15.519  0.2653 -0.0553  0.6028
 9604TIP3    H150227   0.442   1.358  15.551  1.5459  0.0148 -0.2801
 9604TIP3    H250228   0.479   1.505  15.553 -0.0026  0.4215  0.2705
 9605TIP3   OH250229   6.640   1.764  15.768 -0.3183 -0.3145 -0.1777
 9605TIP3    H150230   6.726   1.759  15.811  0.7119 -2.3805 -2.2484
 9605TIP3    H250231   6.654   1.823  15.694 -1.5638  1.7343  1.1522
 9606TIP3   OH250232   3.013   1.499   5.257 -0.1605 -0.3475  0.1698
 9606TIP3    H150233   2.955   1.496   5.182 -0.6755 -0.1340  0.5532
 9606TIP3    H250234   2.964   1.548   5.324  0.4645 -0.1376  0.4867
 9607TIP3   OH250235   3.562   4.925  15.015  0.3185  0.2859 -0.2022
 9607TIP3    H150236   3.506   4.987  15.063  0.0435  0.9261 -1.3244
 9607TIP3    H250237   3.500   4.864  14.974  0.5332 -0.0272 -0.0634
 9608TIP3   OH250238   0.432   4.294  15.414  0.0661 -0.1223 -0.1623
 9608TIP3    H150239   0.473   4.275  15.330  0.8282 -0.7082  0.3295
 9608TIP3    H250240   0.485   4.365  15.451  1.2301 -1.4643  0.8601
 9609TIP3   OH250241   3.026   2.556  11.756  0.1135 -0.2897  0.4086
 9609TIP3    H150242   3.022   2.602  11.841  1.1103 -0.7417  0.7155
 9609TIP3    H250243   3.103   2.500  11.763 -1.2944 -2.3518  0.1940
 9610TIP3   OH250244   6.625   6.562  16.006 -0.2813 -0.1303 -0.1080
 9610TIP3    H150245   6.555   6.555  15.942  0.3190  0.8446 -0.9021
 9610TIP3    H250246   6.604   6.496  16.072 -0.0417 -2.3464 -2.1266
 9611TIP3   OH250247   5.386   3.691  12.392  0.0791  0.4897 -0.0805
 9611TIP3    H150248   5.452   3.734  12.446  0.8512 -0.3214 -0.3508
 9611TIP3    H250249   5.433   3.619  12.350 -0.9147  0.0752 -0.5083
 9612TIP3   OH250250   5.483   2.092  12.449  0.0592  0.6651  0.1175
 9612TIP3    H150251   5.478   2.010  12.400 -2.4650  0.8474 -0.0646
 9612TIP3    H250252   5.553   2.078  12.512  0.6514 -1.0838 -0.8550
 9613TIP3   OH250253   0.087   4.873  12.191  0.1899 -0.0944 -0.1889
 9613TIP3    H150254   0.156   4.899  12.252 -0.3599  2.2180 -0.4647
 9613TIP3    H250255   0.015   4.934  12.208  0.9833  2.6498 -4.8664
 9614TIP3   OH250256   2.187   5.844   4.242  0.2888  0.0471  0.0403
 9614TIP3    H150257   2.226   5.918   4.288  1.5536 -0.0818 -0.7774
 9614TIP3    H250258   2.141   5.883   4.167 -0.9089  0.1733  0.8280
 9615TIP3   OH250259   6.179   4.002  13.987  0.0743  0.1335 -0.4359
 9615TIP3    H150260   6.160   4.001  14.081  1.3964 -0.0133 -0.1476
 9615TIP3    H250261   6.207   3.913  13.968 -0.0261  0.2077 -0.9354
 9616TIP3   OH250262   3.931   2.885  10.721 -0.0476  0.3119 -0.2444
 9616TIP3    H150263   4.013   2.855  10.683 -0.3904 -0.8023 -0.1436
 9616TIP3    H250264   3.957   2.958  10.779  0.9689 -0.4892  0.3494
 9617TIP3   OH250265   0.594   0.836   3.257 -0.3720 -0.1033  0.0515
 9617TIP3    H150266   0.673   0.850   3.309  0.2031 -0.2969 -0.7512
 9617TIP3    H250267   0.625   0.795   3.177 -1.0187  1.6414 -1.1597
 9618TIP3   OH250268   2.472   2.807  13.825 -0.4689  0.1562  0.3030
 9618TIP3    H150269   2.442   2.743  13.760 -1.0712  1.1290 -0.4034
 9618TIP3    H250270   2.555   2.772  13.857  0.1847 -0.0216 -1.4886
 9619TIP3   OH250271   1.742   1.349  13.762  0.7143  0.2839  0.0337
 9619TIP3    H150272   1.797   1.350  13.684  0.4695  0.6613 -0.1365
 9619TIP3    H250273   1.804   1.346  13.836  0.9391 -0.5856 -0.1795
 9620TIP3   OH250274   2.435   4.415  11.202 -0.0535 -0.1900 -0.2781
 9620TIP3    H150275   2.374   4.367  11.259 -1.6410  1.7069 -0.2521
 9620TIP3    H250276   2.418   4.380  11.115 -1.5490  0.5964 -0.3359
 9621TIP3   OH250277   4.529   3.246   6.164 -0.5625 -0.4384 -0.3634
 9621TIP3    H150278   4.516   3.230   6.071  1.7659 -0.9905 -0.6596
 9621TIP3    H250279   4.614   3.207   6.184  0.7503  2.7735  1.1779
 9622TIP3   OH250280   1.733   0.867  16.546 -0.1899  0.3114 -0.4557
 9622TIP3    H150281   1.723   0.772  16.557 -0.5751 -0.0245 -3.0957
 9622TIP3    H250282   1.814   0.888  16.592 -0.0548 -1.2910  0.1143
 9623TIP3   OH250283   5.769   1.375   0.905  0.0763 -0.7487  0.1937
 9623TIP3    H150284   5.839   1.408   0.961  0.6868 -0.5142 -0.6808
 9623TIP3    H250285   5.699   1.349   0.965 -1.1522  3.5867  0.9983
 9624TIP3   OH250286   3.127   0.903  15.939 -0.1201 -0.0648 -0.1633
 9624TIP3    H150287   3.101   0.813  15.958  1.0823 -0.1859  1.1185
 9624TIP3    H250288   3.217   0.895  15.907  0.5197  0.7588  1.3223
 9625TIP3   OH250289   2.843   0.313  17.148 -0.0213 -0.3025 -0.1155
 9625TIP3    H150290   2.780   0.241  17.158 -0.7073  0.2476 -0.3982
 9625TIP3    H250291   2.872   0.332  17.237 -1.1890  0.2535  0.1574
 9626TIP3   OH250292   5.634   4.637  12.671 -0.1474 -0.4573  0.3336
 9626TIP3    H150293   5.607   4.599  12.754  1.3973  0.1055  1.1315
 9626TIP3    H250294   5.721   4.673  12.688 -0.6357  1.4692 -0.9830
 9627TIP3   OH250295   3.522   2.489   3.406 -0.0795 -0.0836 -0.0771
 9627TIP3    H150296   3.521   2.534   3.491 -1.3489  1.2968 -0.7773
 9627TIP3    H250297   3.612   2.500   3.374 -0.0216  0.8023  0.3617
 9628TIP3   OH250298   2.835   2.919   5.335  0.1118  0.1441  0.1111
 9628TIP3    H150299   2.802   2.992   5.387  0.5685  0.4762 -0.0589
 9628TIP3    H250300   2.891   2.870   5.396 -0.1144 -0.0079  0.1970
 9629TIP3   OH250301   1.322   1.120   3.047 -0.2387 -0.3701  0.5998
 9629TIP3    H150302   1.406   1.074   3.046 -0.3260 -0.5223  0.2370
 9629TIP3    H250303   1.256   1.051   3.052 -0.3405 -0.2458  1.0150
 9630TIP3   OH250304   4.541   2.785  17.223  0.5964  0.1214  0.5642
 9630TIP3    H150305   4.631   2.779  17.191  1.1980 -1.5843  2.4006
 9630TIP3    H250306   4.503   2.859  17.175  2.5136 -0.0256 -1.2994
 9631TIP3   OH250307   6.410   1.593  13.099 -0.4744  0.0284  0.2646
 9631TIP3    H150308   6.484   1.541  13.066 -0.3989  0.0138  0.4538
 9631TIP3    H250309   6.407   1.670  13.042  1.4010  1.4012  1.8726
 9632TIP3   OH250310   1.109   0.080   0.190  0.3027  0.0799  0.4688
 9632TIP3    H150311   1.197   0.116   0.180 -0.3254  1.6339  0.1806
 9632TIP3    H250312   1.115   0.022   0.265  0.7397  3.1753  3.0419
 9633TIP3   OH250313   5.590   1.724   1.082 -0.8092 -0.1531 -0.2625
 9633TIP3    H150314   5.582   1.630   1.064 -1.7193  0.0091 -0.7863
 9633TIP3    H250315   5.534   1.765   1.016 -2.0565  0.6371  1.2164
 9634TIP3   OH250316   3.603   2.547  13.210 -0.1940 -0.1652  0.0311
 9634TIP3    H150317   3.530   2.544  13.149  1.0186 -0.3863 -1.4896
 9634TIP3    H250318   3.644   2.461  13.203  1.5458  0.6966 -0.9076
 9635TIP3   OH250319   2.059   0.509   3.607  0.4973  0.8398 -0.0792
 9635TIP3    H150320   2.101   0.525   3.692 -1.0846  0.4867  0.7960
 9635TIP3    H250321   2.023   0.421   3.614  0.7140  0.6366 -1.2971
 9636TIP3   OH250322   1.980   3.233   1.674 -0.3933  0.3048  0.6063
 9636TIP3    H150323   1.919   3.208   1.605  0.1418  0.3950  0.0943
 9636TIP3    H250324   1.925   3.266   1.745 -0.8973  1.0876 -0.1432
 9637TIP3   OH250325   1.761   2.900   4.632 -0.6367  0.2428 -0.1161
 9637TIP3    H150326   1.755   2.958   4.556 -2.1771  0.1879 -0.0570
 9637TIP3    H250327   1.736   2.954   4.706 -1.9832 -0.4288 -0.0461
 9638TIP3   OH250328   6.522   2.955   3.436 -0.2928  0.1287  0.3552
 9638TIP3    H150329   6.591   2.914   3.487  0.7331  0.9806 -0.3033
 9638TIP3    H250330   6.553   2.950   3.345 -0.5229  1.5675  0.1756
 9639TIP3   OH250331   4.089   5.123  12.650 -0.3104  0.2137  0.3706
 9639TIP3    H150332   4.039   5.145  12.571 -0.4917 -0.7597  0.2082
 9639TIP3    H250333   4.168   5.177  12.643  0.4801 -1.0525 -1.3582
 9640TIP3   OH250334   3.174   1.900  16.221  0.3844  0.5202 -0.0278
 9640TIP3    H150335   3.232   1.967  16.256  2.1626 -0.2444 -1.4014
 9640TIP3    H250336   3.163   1.838  16.294 -0.0258  1.4627  0.7385
 9641TIP3   OH250337   4.495   5.343  12.970 -0.0160  0.1832  0.5164
 9641TIP3    H150338   4.571   5.401  12.960 -0.0409  0.1605  0.1898
 9641TIP3    H250339   4.433   5.394  13.021  0.3345  0.0957  1.0381
 9642TIP3   OH250340   4.870   3.123   3.811 -0.3052  0.2511  0.1248
 9642TIP3    H150341   4.829   3.131   3.725  2.8108  2.1555 -1.3600
 9642TIP3    H250342   4.879   3.213   3.842  0.6130 -0.2658  1.4496
 9643TIP3   OH250343   2.668   5.470  14.400  0.4292  0.2291  0.1948
 9643TIP3    H150344   2.587   5.428  14.429 -0.1636 -0.3133 -2.0460
 9643TIP3    H250345   2.713   5.403  14.349 -0.2768  2.0319 -3.0292
 9644TIP3   OH250346   3.830   4.201  14.212 -0.2536  0.0177  0.2597
 9644TIP3    H150347   3.783   4.279  14.240 -0.4653  0.0591 -0.1940
 9644TIP3    H250348   3.886   4.232  14.140 -1.3701 -0.5083 -0.8769
 9645TIP3   OH250349   4.864   0.430  13.568  0.4912  1.3349  0.4885
 9645TIP3    H150350   4.944   0.447  13.518 -0.0585  1.7664 -0.2690
 9645TIP3    H250351   4.888   0.450  13.658  1.5532  0.3920  0.4419
 9646TIP3   OH250352   0.243   5.944   3.577 -0.2159 -0.4316  0.2228
 9646TIP3    H150353   0.237   5.903   3.490 -1.8456 -2.2542  1.1134
 9646TIP3    H250354   0.209   5.878   3.637 -1.7499  1.7478  1.9373
 9647TIP3   OH250355   3.955   0.042  13.778  0.4565  0.9266 -0.3264
 9647TIP3    H150356   4.043   0.041  13.741 -0.1388 -0.9090 -1.8623
 9647TIP3    H250357   3.902  -0.005  13.714 -0.8168 -1.7561  2.4582
 9648TIP3   OH250358   0.196   5.197  10.670 -0.1119  0.3035  0.2494
 9648TIP3    H150359   0.212   5.277  10.719  0.2232  1.2134 -1.2889
 9648TIP3    H250360   0.204   5.222  10.578  1.3722 -1.7531 -0.2748
 9649TIP3   OH250361   3.327   6.590  11.732  0.2438  0.8817  0.2225
 9649TIP3    H150362   3.290   6.626  11.652  1.1525 -1.4598 -1.3394
 9649TIP3    H250363   3.416   6.564  11.709  0.1026 -1.0374  1.5797
 9650TIP3   OH250364   4.643   3.590   0.491  0.1632 -0.1860  0.1665
 9650TIP3    H150365   4.706   3.661   0.475  0.7284 -0.8761 -0.8069
 9650TIP3    H250366   4.619   3.560   0.403 -0.6041 -0.7399  0.5585
 9651TIP3   OH250367   2.362   1.980  14.965 -0.5231 -0.0824  0.6554
 9651TIP3    H150368   2.432   2.039  14.992 -0.4680  0.6188 -0.9487
 9651TIP3    H250369   2.309   1.968  15.045  1.0244 -0.1047  1.7182
 9652TIP3   OH250370   1.021   3.305   3.499  0.3509  0.0313 -0.6274
 9652TIP3    H150371   1.100   3.356   3.484  0.6189  0.1770  1.0187
 9652TIP3    H250372   1.039   3.256   3.580 -0.7415 -0.9548 -0.9476
 9653TIP3   OH250373   5.737   2.716   1.296  0.3880 -0.0142 -0.3513
 9653TIP3    H150374   5.669   2.649   1.305 -1.8290  1.8152 -2.0736
 9653TIP3    H250375   5.741   2.733   1.202 -0.6181  3.5378  0.0795
 9654TIP3   OH250376   1.013   4.877   5.947 -0.2724  0.1348  0.2164
 9654TIP3    H150377   1.107   4.890   5.963 -0.4015 -0.1945  1.3737
 9654TIP3    H250378   1.010   4.815   5.874  0.4484 -0.9121  1.0364
 9655TIP3   OH250379   1.146   0.961  13.839  0.0780 -0.0159 -0.0628
 9655TIP3    H150380   1.221   1.000  13.886 -0.9539  0.5331  1.1897
 9655TIP3    H250381   1.182   0.883  13.798  1.1476 -0.2621  1.2698
 9656TIP3   OH250382   1.912   5.073   5.740 -0.3934 -0.9909  0.1987
 9656TIP3    H150383   1.992   5.027   5.717 -0.9073 -1.7230 -0.1453
 9656TIP3    H250384   1.938   5.133   5.810 -0.0510 -3.1177  2.0061
 9657TIP3   OH250385   2.618   3.459  15.044 -0.2331 -0.7192  0.3226
 9657TIP3    H150386   2.584   3.370  15.049  0.7296 -1.1491 -0.5340
 9657TIP3    H250387   2.558   3.504  14.985  0.4887 -1.4066 -0.9803
 9658TIP3   OH250388   6.037   2.529   3.055  0.4043 -0.0458  0.9383
 9658TIP3    H150389   6.031   2.472   2.978  1.9603 -3.2264  2.9920
 9658TIP3    H250390   5.947   2.538   3.085  0.0941 -1.2740  0.4274
 9659TIP3   OH250391   5.975   6.613   3.091  0.5091 -0.0048 -0.5219
 9659TIP3    H150392   6.047   6.592   3.150  1.6513 -0.9167 -2.1888
 9659TIP3    H250393   5.942   6.528   3.061  0.6898  0.4222 -2.0324
 9660TIP3   OH250394   2.455   0.615   6.701 -0.3283 -0.2487 -0.0366
 9660TIP3    H150395   2.516   0.547   6.671 -0.5094 -0.3734 -0.1202
 9660TIP3    H250396   2.371   0.570   6.711 -0.0938 -0.3916  1.4396
 9661TIP3   OH250397   2.324   5.112   0.825 -0.3778  0.3612 -0.0489
 9661TIP3    H150398   2.388   5.151   0.765 -2.1935  1.8634 -1.1235
 9661TIP3    H250399   2.258   5.073   0.768 -0.3666 -1.3545  1.0353
 9662TIP3   OH250400   4.112   2.793  11.141  0.1753  0.3619  0.2337
 9662TIP3    H150401   4.121   2.862  11.075 -3.1210  0.3515 -0.3944
 9662TIP3    H250402   4.098   2.841  11.223  0.1405  0.4124  0.1987
 9663TIP3   OH250403   0.664   5.417   4.542  0.3412 -0.7650  0.0193
 9663TIP3    H150404   0.657   5.338   4.595  0.3869  1.0471  2.9234
 9663TIP3    H250405   0.597   5.476   4.577  0.7978  0.7745 -1.5452
 9664TIP3   OH250406   2.859   4.213   0.649 -0.5262 -0.0980 -0.5218
 9664TIP3    H150407   2.816   4.243   0.569 -0.7018 -0.9373 -0.7514
 9664TIP3    H250408   2.862   4.118   0.640 -1.0620 -0.2510  0.7394
 9665TIP3   OH250409   0.968   4.761  13.572  0.1740 -0.5089  0.2083
 9665TIP3    H150410   1.022   4.804  13.639 -0.7995  0.4814  0.3793
 9665TIP3    H250411   0.978   4.817  13.495 -0.6148 -0.2980  0.2529
 9666TIP3   OH250412   6.293   5.103  11.261  0.3566 -0.2104  0.4701
 9666TIP3    H150413   6.329   5.189  11.238  0.2539 -0.0967  0.7347
 9666TIP3    H250414   6.261   5.068  11.178 -0.6078  0.4693  0.5368
 9667TIP3   OH250415   6.753   6.016  12.264 -0.2577 -0.0832 -0.5799
 9667TIP3    H150416   6.677   5.958  12.277 -2.2657  1.5030 -3.8390
 9667TIP3    H250417   6.771   6.010  12.171  1.3425  2.3064 -0.4957
 9668TIP3   OH250418   1.624   6.754   4.621  0.7673 -0.8334 -0.5577
 9668TIP3    H150419   1.625   6.830   4.562  1.1245 -1.0588 -0.8413
 9668TIP3    H250420   1.666   6.786   4.701 -0.2923 -0.3342 -0.1778
 9669TIP3   OH250421   0.280   4.439   4.952  0.2331 -0.4098  0.1402
 9669TIP3    H150422   0.285   4.415   4.860 -0.3821  0.2107 -0.0629
 9669TIP3    H250423   0.307   4.361   4.999  1.5450 -0.4108 -0.5885
 9670TIP3   OH250424   1.851   1.679  14.646 -0.4269 -0.0290 -0.4193
 9670TIP3    H150425   1.889   1.760  14.611 -0.4794  0.4747  0.6396
 9670TIP3    H250426   1.894   1.667  14.731 -0.7539 -0.8684 -0.3633
 9671TIP3   OH250427   4.488   5.933  15.539 -0.3013  0.4047  0.1890
 9671TIP3    H150428   4.503   6.018  15.580  2.2953  0.0031  0.2345
 9671TIP3    H250429   4.502   5.948  15.445 -2.1767  0.4672 -0.1217
 9672TIP3   OH250430   3.267   4.124  16.016 -0.2886  0.5079  0.0707
 9672TIP3    H150431   3.174   4.109  16.001 -0.0005 -1.0147 -0.3740
 9672TIP3    H250432   3.307   4.117  15.930  0.1691  1.9909  0.1237
 9673TIP3   OH250433   6.121   0.260  16.739  0.4570 -0.2502 -0.7960
 9673TIP3    H150434   6.173   0.184  16.715  0.6944 -0.3744  0.0976
 9673TIP3    H250435   6.174   0.307  16.803 -0.9448 -0.9831  1.0143
 9674TIP3   OH250436   1.988   5.145   2.838  0.0649 -0.1806  0.2877
 9674TIP3    H150437   1.910   5.174   2.885 -0.2215 -0.3397 -0.0833
 9674TIP3    H250438   1.959   5.067   2.790  0.8724 -1.1926  1.4257
 9675TIP3   OH250439   3.639   3.813   1.243 -0.3355 -0.0606 -0.2021
 9675TIP3    H150440   3.614   3.722   1.259  1.4977 -0.2623  2.1783
 9675TIP3    H250441   3.604   3.860   1.319 -1.8605  1.4280 -1.7392
 9676TIP3   OH250442   1.498   3.148  14.723  0.1838 -0.2995  0.2513
 9676TIP3    H150443   1.536   3.174  14.639 -0.4158 -0.2886 -0.0183
 9676TIP3    H250444   1.524   3.057  14.734 -0.3241 -0.5112 -0.2840
 9677TIP3   OH250445   5.242   1.076  15.008  0.2322  0.7680  0.2876
 9677TIP3    H150446   5.225   1.170  15.001  0.8797  1.0486  1.8897
 9677TIP3    H250447   5.335   1.070  15.027  0.3199 -0.2528 -0.3904
 9678TIP3   OH250448   0.952   3.509   6.013 -0.3312 -0.4217  0.4940
 9678TIP3    H150449   0.863   3.539   5.992 -0.6911 -1.5399  0.3894
 9678TIP3    H250450   1.008   3.585   5.993 -1.3461  0.6059  1.4392
 9679TIP3   OH250451   3.035   2.881  16.883 -0.1829  0.3435 -0.4555
 9679TIP3    H150452   3.065   2.943  16.816 -2.0229 -1.0075 -2.7036
 9679TIP3    H250453   2.963   2.834  16.841 -1.5990 -0.4792  2.6025
 9680TIP3   OH250454   4.006   2.734  15.243  0.1670  0.2864  0.1736
 9680TIP3    H150455   3.959   2.722  15.160  0.8056 -1.5881  0.0208
 9680TIP3    H250456   4.052   2.651  15.256  0.9098  0.9234  1.8995
 9681TIP3   OH250457   4.114   5.671   5.851  0.1372 -0.0139  0.0177
 9681TIP3    H150458   4.072   5.746   5.892  1.6879  1.0580 -0.2427
 9681TIP3    H250459   4.198   5.705   5.820  0.7689 -1.7964 -0.3541
 9682TIP3   OH250460   2.477   2.051   2.611 -0.6322 -0.8803 -0.2373
 9682TIP3    H150461   2.382   2.044   2.609 -0.8774  1.6801 -1.4913
 9682TIP3    H250462   2.498   2.109   2.538  1.8648 -0.9312  0.3538
 9683TIP3   OH250463   0.960   2.049   5.693 -0.5718  0.0414  0.6592
 9683TIP3    H150464   0.916   1.980   5.742 -0.3763  0.8553  2.0399
 9683TIP3    H250465   0.941   2.129   5.742  0.3732  0.7683 -0.1150
 9684TIP3   OH250466   2.473   4.859  12.084  0.3279 -0.0518 -0.1797
 9684TIP3    H150467   2.380   4.835  12.086  0.9538 -2.8460  0.3482
 9684TIP3    H250468   2.498   4.849  11.993  0.3231 -0.3237 -0.1529
 9685TIP3   OH250469   3.923   1.319  16.584  0.5139 -0.2961  0.1257
 9685TIP3    H150470   3.928   1.376  16.507 -0.0177  1.7067  1.4795
 9685TIP3    H250471   3.835   1.282  16.580  0.4164 -0.0423 -0.1262
 9686TIP3   OH250472   6.696   3.440  16.493 -0.4349 -0.1142 -0.2066
 9686TIP3    H150473   6.619   3.496  16.487  0.8012  1.8117  0.6668
 9686TIP3    H250474   6.678   3.381  16.566 -0.2122  1.8948  1.5675
 9687TIP3   OH250475   0.521   6.582  11.645  0.2681 -0.4662 -0.7934
 9687TIP3    H150476   0.616   6.569  11.642  0.4097  0.5479 -2.1529
 9687TIP3    H250477   0.511   6.677  11.656 -0.6303 -0.7636  1.3727
 9688TIP3   OH250478   1.410   2.563   3.576 -0.2547  0.1142  0.3351
 9688TIP3    H150479   1.423   2.648   3.618  0.5946 -0.7698  1.9457
 9688TIP3    H250480   1.350   2.516   3.634 -0.4369 -0.5120 -0.3508
 9689TIP3   OH250481   3.987   5.456  11.536 -0.2406  0.3385  0.2250
 9689TIP3    H150482   3.900   5.480  11.503 -0.9612  0.3543  2.0139
 9689TIP3    H250483   3.990   5.494  11.624  1.3639 -0.1549  0.4052
 9690TIP3   OH250484   6.492   3.307  17.060  0.2996  0.0010 -0.1957
 9690TIP3    H150485   6.416   3.346  17.103 -0.5002 -1.3980 -0.2994
 9690TIP3    H250486   6.547   3.277  17.133  0.7314  0.9117 -0.1229
 9691TIP3   OH250487   5.020   6.132  15.829  0.4618  0.3990  0.3917
 9691TIP3    H150488   4.925   6.121  15.825  0.5660 -0.3153 -0.2969
 9691TIP3    H250489   5.032   6.225  15.848 -0.3750  1.0376 -1.8921
 9692TIP3   OH250490   2.735   6.527  16.251  0.1923 -0.0888  0.0643
 9692TIP3    H150491   2.644   6.523  16.222  0.8101 -0.4363 -2.0608
 9692TIP3    H250492   2.763   6.617  16.234  0.1754  0.0971  0.9843
 9693TIP3   OH250493   3.981   5.342  10.829  0.2964 -0.2189  0.1730
 9693TIP3    H150494   4.041   5.297  10.769  2.0941  2.3531 -0.1174
 9693TIP3    H250495   3.958   5.423  10.784 -1.9287 -0.2683  1.1176
 9694TIP3   OH250496   1.814   3.278  13.542  0.3965 -0.1401 -0.1202
 9694TIP3    H150497   1.748   3.209  13.550  2.2224 -1.8821  0.6309
 9694TIP3    H250498   1.819   3.296  13.448 -1.0888  0.0296 -0.1994
 9695TIP3   OH250499   4.122   6.730  12.823 -0.0931 -0.7019  0.1320
 9695TIP3    H150500   4.068   6.667  12.871 -1.4472  0.2782 -0.0317
 9695TIP3    H250501   4.175   6.773  12.891  0.3764 -1.5596  0.3167
 9696TIP3   OH250502   5.183   5.945  14.521  0.1105 -0.2565 -0.2420
 9696TIP3    H150503   5.213   5.971  14.434  0.3773  1.6521  0.3687
 9696TIP3    H250504   5.261   5.949  14.576 -0.2506 -0.3901  0.2905
 9697TIP3   OH250505   6.714   5.338   3.256 -0.1455 -0.3981  0.2072
 9697TIP3    H150506   6.744   5.371   3.340 -1.3874  0.7610  0.2312
 9697TIP3    H250507   6.768   5.383   3.191 -0.6088  0.3114  0.3110
 9698TIP3   OH250508   2.147   0.949  13.718  0.6140 -0.1383  0.1957
 9698TIP3    H150509   2.228   0.968  13.669  0.1863 -0.4260 -0.6537
 9698TIP3    H250510   2.167   0.975  13.808  0.6510  2.7081 -0.5357
 9699TIP3   OH250511   3.141   1.280  15.952 -0.1143 -0.1698  0.5646
 9699TIP3    H150512   3.128   1.364  15.995 -1.3407 -1.2912  2.5717
 9699TIP3    H250513   3.146   1.217  16.024 -0.1835 -1.9269 -0.8917
 9700TIP3   OH250514   2.904   2.903  11.805 -0.1184 -0.3612 -0.3125
 9700TIP3    H150515   2.830   2.848  11.834  0.1612 -0.1162  0.9025
 9700TIP3    H250516   2.932   2.862  11.723 -2.8560  0.6954 -1.9406
 9701TIP3   OH250517   0.235   2.109   0.117 -0.2516  0.3810 -0.0691
 9701TIP3    H150518   0.188   2.127   0.199 -0.2084 -1.0089  0.2897
 9701TIP3    H250519   0.176   2.139   0.048 -1.3407 -0.6036  0.4017
 9702TIP3   OH250520   3.321   3.681  11.106 -0.3554 -0.7072  0.0408
 9702TIP3    H150521   3.379   3.621  11.059 -0.5302 -1.3175  0.5918
 9702TIP3    H250522   3.241   3.683  11.054 -0.2761 -0.8029 -0.0846
 9703TIP3   OH250523   4.305   6.031   3.010  0.1019  0.7787  0.1997
 9703TIP3    H150524   4.222   5.985   3.023  1.5683 -2.1902 -0.0636
 9703TIP3    H250525   4.334   6.051   3.099  0.0237  0.0310  0.4010
 9704TIP3   OH250526   6.048   5.165  16.919 -0.2498  0.2710  0.4349
 9704TIP3    H150527   6.109   5.163  16.845  0.8728  0.9796  1.3060
 9704TIP3    H250528   5.976   5.220  16.890 -1.0981 -1.5025 -1.0365
 9705TIP3   OH250529   4.729   2.073  15.091  0.1006  0.1975  0.2584
 9705TIP3    H150530   4.775   2.145  15.134  1.7939 -0.3453 -0.5778
 9705TIP3    H250531   4.661   2.047  15.154  0.4461  1.5151  1.2088
 9706TIP3   OH250532   4.601   1.945   1.054 -0.2130  0.4756 -0.5496
 9706TIP3    H150533   4.560   2.028   1.032 -1.4653  0.3088  0.9949
 9706TIP3    H250534   4.618   1.951   1.148 -0.0957 -0.9098 -0.4636
 9707TIP3   OH250535   5.808   3.832  12.310 -0.7455  0.7024  0.5647
 9707TIP3    H150536   5.743   3.891  12.272 -1.0059 -0.7055 -1.2834
 9707TIP3    H250537   5.875   3.890  12.347 -1.6121  2.1456 -0.0756
 9708TIP3   OH250538   5.139   2.914  13.536  0.1849 -0.1590  0.2289
 9708TIP3    H150539   5.158   3.007  13.533  1.7250 -0.4455 -2.4903
 9708TIP3    H250540   5.206   2.877  13.594  1.5859  0.1313 -1.1184
 9709TIP3   OH250541   3.050   2.212   0.798 -0.2456  0.1989 -0.2603
 9709TIP3    H150542   3.024   2.243   0.712 -2.6264 -2.2534 -0.5465
 9709TIP3    H250543   3.145   2.215   0.797 -0.2356  0.9523 -2.6732
 9710TIP3   OH250544   3.270   6.066   1.495  0.1866 -0.5306 -0.1052
 9710TIP3    H150545   3.361   6.083   1.468  0.3658 -1.5375 -0.1979
 9710TIP3    H250546   3.246   5.986   1.447 -0.1433 -1.2829  1.2546
 9711TIP3   OH250547   0.168   4.974  15.323 -0.3392 -0.0781  0.0546
 9711TIP3    H150548   0.087   5.007  15.283 -0.4126 -0.7969 -0.4311
 9711TIP3    H250549   0.214   4.931  15.250  0.4560  0.2795  0.3437
 9712TIP3   OH250550   6.154   2.925  15.435  0.2580 -0.8588 -0.1768
 9712TIP3    H150551   6.207   3.003  15.421 -0.7542 -0.4086 -1.7595
 9712TIP3    H250552   6.126   2.899  15.347 -1.2761 -1.6796  0.5192
 9713TIP3   OH250553   4.541   5.134  12.379 -0.8384  0.7856 -0.1153
 9713TIP3    H150554   4.575   5.223  12.394 -1.5039  1.4591 -2.3163
 9713TIP3    H250555   4.446   5.145  12.375 -1.1601 -0.4821  2.0670
 9714TIP3   OH250556   5.796   0.544   5.283  0.0254 -0.6135  0.0948
 9714TIP3    H150557   5.864   0.496   5.331 -0.0315 -0.6767  0.1133
 9714TIP3    H250558   5.735   0.476   5.254 -0.6080 -0.4552  1.0148
 9715TIP3   OH250559   4.119   5.087   1.284 -0.0637 -0.0944 -0.2546
 9715TIP3    H150560   4.031   5.051   1.275 -1.3620  2.6371  0.3407
 9715TIP3    H250561   4.111   5.178   1.253  2.6679  0.1145 -0.6009
 9716TIP3   OH250562   1.109   5.819  11.815 -0.0410 -0.6782 -1.0686
 9716TIP3    H150563   1.124   5.887  11.880 -1.5830 -0.3599 -1.0047
 9716TIP3    H250564   1.190   5.816  11.764  0.4049  0.5406 -0.4699
 9717TIP3   OH250565   1.089   6.685  17.004  0.5207  0.0884 -0.5697
 9717TIP3    H150566   1.092   6.779  17.018  0.6329  0.0782 -0.5221
 9717TIP3    H250567   1.002   6.669  16.967  0.2344  0.1222  0.0753
 9718TIP3   OH250568   0.368   3.684   0.538  0.0433 -0.2483  0.0354
 9718TIP3    H150569   0.454   3.715   0.565 -0.5703 -0.5031  2.4655
 9718TIP3    H250570   0.370   3.689   0.442  2.6611 -0.0625  0.0364
 9719TIP3   OH250571   6.339   6.552  15.225 -0.5221 -0.3306 -0.0371
 9719TIP3    H150572   6.356   6.477  15.281  1.6117 -0.6674 -1.0342
 9719TIP3    H250573   6.289   6.517  15.152  0.9422 -0.9724 -0.7840
 9720TIP3   OH250574   4.733   6.633  15.022  0.0207  0.0399  0.0553
 9720TIP3    H150575   4.683   6.614  15.102 -2.2610  0.8069 -1.0935
 9720TIP3    H250576   4.759   6.725  15.033 -0.6429  0.2697 -0.2295
 9721TIP3   OH250577   3.129   2.446  11.413 -0.4854  0.0073 -0.4327
 9721TIP3    H150578   3.186   2.446  11.336 -0.3853 -1.3708 -0.3938
 9721TIP3    H250579   3.166   2.378  11.470 -0.0424  1.5855  1.2515
 9722TIP3   OH250580   2.375   1.004   3.097  0.0842 -0.0115  0.2526
 9722TIP3    H150581   2.305   0.952   3.136  0.4360  0.6480  1.8454
 9722TIP3    H250582   2.452   0.948   3.102 -0.0357 -0.2239 -0.2392
 9723TIP3   OH250583   2.418   6.441  15.548 -0.5072 -0.1230 -0.4093
 9723TIP3    H150584   2.456   6.386  15.617  0.0087 -2.1222 -2.1854
 9723TIP3    H250585   2.323   6.437  15.565 -0.6920 -3.1029 -1.3869
 9724TIP3   OH250586   1.990   0.394  15.265 -0.0141  1.0289  0.1775
 9724TIP3    H150587   2.004   0.488  15.248 -1.5951  1.3854  0.7134
 9724TIP3    H250588   2.024   0.380  15.353 -2.9410  1.9435  1.5725
 9725TIP3   OH250589   3.048   0.270  15.955 -0.3464 -0.0794  0.1474
 9725TIP3    H150590   3.114   0.208  15.987 -1.4815  0.2722  3.5894
 9725TIP3    H250591   2.980   0.214  15.916  1.3698 -0.4871 -2.5462
 9726TIP3   OH250592   0.166   0.860  16.428 -0.4467 -0.0842 -0.1233
 9726TIP3    H150593   0.102   0.828  16.492 -0.9540 -0.0808 -0.6255
 9726TIP3    H250594   0.199   0.942  16.467  0.1954 -0.7238  0.7313
 9727TIP3   OH250595   5.285   1.230  13.863  0.4608  0.0826  0.0371
 9727TIP3    H150596   5.296   1.306  13.921  1.8255 -0.4082  0.4647
 9727TIP3    H250597   5.338   1.251  13.786 -0.3998  0.2216 -0.5205
 9728TIP3   OH250598   0.845   4.909   1.857 -0.5315 -0.4310  0.1989
 9728TIP3    H150599   0.917   4.849   1.879  0.3804  0.7552  0.5659
 9728TIP3    H250600   0.798   4.921   1.939 -0.3062 -0.1207  0.2835
 9729TIP3   OH250601   5.651   0.011   4.669 -0.1984 -0.1984 -0.1779
 9729TIP3    H150602   5.658   0.020   4.764 -1.4246 -2.9800  0.2919
 9729TIP3    H250603   5.742   0.005   4.639  0.2089 -1.6092  1.1864
 9730TIP3   OH250604   1.208   4.949   4.566  0.4072  0.5330  0.0809
 9730TIP3    H150605   1.129   4.948   4.620 -0.9598  2.2475 -1.7538
 9730TIP3    H250606   1.275   4.987   4.623 -0.7758  1.5641  0.8442
 9731TIP3   OH250607   5.031   0.445   0.837 -0.8393 -0.1428 -0.1682
 9731TIP3    H150608   5.050   0.351   0.829 -0.3818 -0.0240 -0.5424
 9731TIP3    H250609   4.995   0.455   0.925  1.6645 -0.2737  0.9612
 9732TIP3   OH250610   1.185   4.210   2.884  0.0020 -0.2702  0.0386
 9732TIP3    H150611   1.255   4.202   2.820 -0.1057  0.5090 -0.1875
 9732TIP3    H250612   1.162   4.303   2.883  0.2620 -0.1702  1.4857
 9733TIP3   OH250613   0.564   1.358  16.002 -0.3865 -0.2922  0.0977
 9733TIP3    H150614   0.555   1.273  16.047 -0.5933  0.7725  2.2077
 9733TIP3    H250615   0.657   1.378  16.007 -0.4947  0.1085  0.6432
 9734TIP3   OH250616   2.878   4.197   1.729  0.2805 -0.1526 -0.1681
 9734TIP3    H150617   2.931   4.117   1.727 -0.5216 -0.7396  0.8236
 9734TIP3    H250618   2.788   4.166   1.718 -0.1842  0.4426  1.5507
 9735TIP3   OH250619   2.319   0.496  12.497  0.1670  0.2789 -0.2231
 9735TIP3    H150620   2.228   0.467  12.491  0.0319  0.7062 -0.3145
 9735TIP3    H250621   2.327   0.563  12.429  0.7081 -0.1614 -0.5999
 9736TIP3   OH250622   2.649   2.101  16.863 -0.1208  0.1027  0.3973
 9736TIP3    H150623   2.605   2.180  16.830  1.2956  0.8863  0.2801
 9736TIP3    H250624   2.625   2.033  16.801  1.0491  1.1527 -1.3198
 9737TIP3   OH250625   3.608   2.578  12.832 -0.4420 -0.2296  0.4987
 9737TIP3    H150626   3.570   2.658  12.869 -0.9146 -0.3562  0.2924
 9737TIP3    H250627   3.533   2.525  12.807 -0.2585  0.9114 -3.0988
 9738TIP3   OH250628   2.798   5.027   2.661 -0.2961  0.0581  0.2046
 9738TIP3    H150629   2.705   5.031   2.636 -0.3481 -1.9301 -0.1415
 9738TIP3    H250630   2.816   4.933   2.666  1.9057  0.3995 -0.4782
 9739TIP3   OH250631   2.898   2.281  13.333 -0.5072  0.7977 -0.4914
 9739TIP3    H150632   2.861   2.360  13.295 -0.7846  0.2636 -1.3581
 9739TIP3    H250633   2.904   2.219  13.260 -0.9120 -0.2025  0.2931
 9740TIP3   OH250634   4.114   1.163  16.685  0.5407 -0.5102 -0.3633
 9740TIP3    H150635   4.191   1.217  16.670 -0.3989  0.7239 -0.9568
 9740TIP3    H250636   4.042   1.212  16.644 -0.4671 -1.8812 -0.3033
 9741TIP3   OH250637   0.880   3.318  11.949 -0.4430 -0.1222  0.2276
 9741TIP3    H150638   0.845   3.399  11.913  0.9261  0.4236  0.0763
 9741TIP3    H250639   0.974   3.332  11.954 -0.0037 -2.1699 -1.0125
 9742TIP3   OH250640   2.645   1.781   0.726  0.3110 -0.4664  0.5766
 9742TIP3    H150641   2.596   1.699   0.715 -1.6829  0.7169  0.2753
 9742TIP3    H250642   2.617   1.813   0.812  0.0928  0.5336  0.1362
 9743TIP3   OH250643   3.425   2.081  11.183  1.0753  0.3898 -0.0917
 9743TIP3    H150644   3.449   2.059  11.272 -0.1690 -0.3362  0.0867
 9743TIP3    H250645   3.445   2.175  11.175  0.8402  0.5543  1.0687
 9744TIP3   OH250646   1.658   1.532  15.606 -0.0146  0.4437  0.2982
 9744TIP3    H150647   1.566   1.510  15.594  0.0725  0.6301 -0.8228
 9744TIP3    H250648   1.656   1.619  15.647 -0.3371  0.2938  0.6065
 9745TIP3   OH250649   4.163   2.787   4.670 -0.0602 -0.6716  0.0301
 9745TIP3    H150650   4.185   2.869   4.714 -1.9714  0.9082 -1.7859
 9745TIP3    H250651   4.245   2.738   4.670  1.0675  1.0686  1.4765
 9746TIP3   OH250652   3.829   3.488  12.307 -0.2754  0.3324 -0.0769
 9746TIP3    H150653   3.896   3.432  12.346 -0.4845 -0.7865 -1.2761
 9746TIP3    H250654   3.873   3.529  12.233 -0.9800 -0.6820 -1.0898
 9747TIP3   OH250655   4.341   3.604  12.074 -0.2920  0.1862 -0.5585
 9747TIP3    H150656   4.370   3.520  12.111 -0.7117 -0.6226 -2.0027
 9747TIP3    H250657   4.344   3.664  12.148 -0.1725 -1.1442  0.5720
 9748TIP3   OH250658   0.178   4.252  14.003 -0.0444 -0.0827  0.2092
 9748TIP3    H150659   0.095   4.205  14.013  0.0843 -0.5846 -0.8532
 9748TIP3    H250660   0.238   4.186  13.968  1.2540 -0.1395  2.3904
 9749TIP3   OH250661   0.849   1.156   3.734 -0.0841 -0.2402 -0.8720
 9749TIP3    H150662   0.846   1.099   3.811  0.1892 -1.6542 -1.8626
 9749TIP3    H250663   0.815   1.240   3.765  1.4213 -0.2928  1.1667
 9750TIP3   OH250664   2.084   5.889   3.459  0.0702 -0.3525 -0.2003
 9750TIP3    H150665   2.035   5.971   3.466  0.3209 -0.0213 -1.8499
 9750TIP3    H250666   2.162   5.903   3.513 -1.6517 -0.9743  2.6557
 9751TIP3   OH250667   3.357   3.362   1.852 -0.3879  0.5186 -0.1548
 9751TIP3    H150668   3.422   3.314   1.904 -0.0312  0.2125 -0.8705
 9751TIP3    H250669   3.402   3.382   1.770 -0.5113  2.1399  0.1489
 9752TIP3   OH250670   1.965   4.208   3.910 -0.1913  0.7693  0.1404
 9752TIP3    H150671   1.888   4.152   3.911  0.6069 -0.3803 -0.0053
 9752TIP3    H250672   1.982   4.224   3.818 -1.6447  3.0829  0.1993
 9753TIP3   OH250673   3.741   5.387  13.248 -0.2690 -0.3583  0.1542
 9753TIP3    H150674   3.649   5.363  13.253 -0.4300  0.3044  0.4545
 9753TIP3    H250675   3.742   5.467  13.196  0.0316  0.1728  0.9526
 9754TIP3   OH250676   0.398   2.860   1.509 -0.2925  0.0826  0.6617
 9754TIP3    H150677   0.447   2.825   1.434 -0.5238  1.0373  0.0422
 9754TIP3    H250678   0.336   2.922   1.470 -0.4544  0.5582  1.6354
 9755TIP3   OH250679   5.766   5.202   5.514 -0.7052 -0.2659 -0.0185
 9755TIP3    H150680   5.823   5.279   5.503  0.0534 -0.7518  0.3556
 9755TIP3    H250681   5.823   5.128   5.493 -1.1860 -0.7680  0.4353
 9756TIP3   OH250682   4.396   4.271   1.809 -0.0856  0.2608  0.2172
 9756TIP3    H150683   4.456   4.334   1.769 -0.4303  0.7060  0.4033
 9756TIP3    H250684   4.436   4.251   1.894 -1.5205  2.5783  1.5198
 9757TIP3   OH250685   2.331   1.691  15.263 -0.3271 -0.2024 -0.2183
 9757TIP3    H150686   2.359   1.683  15.355  0.8505  0.8903 -0.4450
 9757TIP3    H250687   2.237   1.703  15.268 -0.9094 -3.9195  0.6075
 9758TIP3   OH250688   3.529   6.075   3.164  0.1244 -0.3308  0.4393
 9758TIP3    H150689   3.514   6.165   3.135 -0.2899 -0.7187 -0.5828
 9758TIP3    H250690   3.578   6.085   3.247 -0.9322  0.8417  0.9618
 9759TIP3   OH250691   6.191   5.190  12.964  0.1923 -0.0727  0.1102
 9759TIP3    H150692   6.273   5.141  12.953  1.1479  1.2176  1.2123
 9759TIP3    H250693   6.154   5.155  13.045 -0.0620 -0.2502 -0.0813
 9760TIP3   OH250694   2.284   0.268   1.282  0.1481  0.4135 -0.2937
 9760TIP3    H150695   2.305   0.325   1.208 -0.3313 -1.4638 -1.9475
 9760TIP3    H250696   2.189   0.253   1.275 -0.3942  1.9647  2.0823
 9761TIP3   OH250697   4.519   5.041  15.762 -0.5958  0.6792  0.0855
 9761TIP3    H150698   4.504   5.008  15.850  0.0937  1.7388  0.6155
 9761TIP3    H250699   4.475   5.126  15.761 -2.7246 -0.3295 -1.3912
 9762TIP3   OH250700   1.967   0.068  11.659 -0.4205 -0.1369 -0.3753
 9762TIP3    H150701   2.027   0.137  11.687 -0.0235 -0.8834  0.7133
 9762TIP3    H250702   1.988   0.053  11.567  0.6292  0.0563 -0.1754
 9763TIP3   OH250703   5.386   2.819   3.609 -0.1777 -0.2375  0.5459
 9763TIP3    H150704   5.366   2.765   3.533  1.2899 -0.9182  0.5999
 9763TIP3    H250705   5.301   2.851   3.640 -0.9734 -1.5448 -0.2023
 9764TIP3   OH250706   1.638   3.987  11.651 -0.6524  0.5118  0.5652
 9764TIP3    H150707   1.687   4.065  11.673  0.1407 -0.2471  1.5758
 9764TIP3    H250708   1.616   3.947  11.735 -2.0464  0.2363  0.1022
 9765TIP3   OH250709   0.625   6.547  16.392 -0.2275  1.0036  0.1647
 9765TIP3    H150710   0.614   6.583  16.480 -3.0292  1.7161 -0.3960
 9765TIP3    H250711   0.542   6.564  16.348 -0.0703 -2.1247 -1.6265
 9766TIP3   OH250712   3.385   3.030   0.064 -0.4952  0.0223 -0.0945
 9766TIP3    H150713   3.328   3.025   0.141 -2.7054 -1.8508 -1.7137
 9766TIP3    H250714   3.397   2.939   0.036  1.3616  0.5513 -1.2156
 9767TIP3   OH250715   5.097   5.770   4.434 -0.1696 -0.2122 -0.6294
 9767TIP3    H150716   5.051   5.703   4.384 -0.7865  0.0473 -0.4163
 9767TIP3    H250717   5.182   5.731   4.453 -0.3520 -0.7540 -0.9058
 9768TIP3   OH250718   4.657   0.548   0.346 -0.0450 -0.1545  0.7826
 9768TIP3    H150719   4.749   0.522   0.355  0.1785  0.8785  1.6479
 9768TIP3    H250720   4.651   0.580   0.255  0.8974  1.3282  1.1887
 9769TIP3   OH250721   0.467   1.507   3.416 -0.7019 -0.1923 -0.6400
 9769TIP3    H150722   0.486   1.497   3.323  1.3184 -1.4079 -0.1450
 9769TIP3    H250723   0.483   1.421   3.453 -2.4600  0.0029  0.7224
 9770TIP3   OH250724   3.194   4.608   3.953 -0.2794  0.2527 -0.2118
 9770TIP3    H150725   3.192   4.681   4.014  2.2317 -0.0276  0.3119
 9770TIP3    H250726   3.285   4.600   3.927 -0.6088 -2.1265 -0.9566
 9771TIP3   OH250727   1.220   1.917   0.473  0.0789 -0.1377  0.0175
 9771TIP3    H150728   1.186   1.935   0.560 -0.6191 -1.5161  0.0594
 9771TIP3    H250729   1.164   1.968   0.414 -0.5172 -0.4850  0.2715
 9772TIP3   OH250730   4.290   6.157   3.804  0.0463  0.0169 -0.1464
 9772TIP3    H150731   4.245   6.151   3.720 -3.3206 -0.5179  1.5089
 9772TIP3    H250732   4.290   6.250   3.824 -0.1781  0.0418 -0.2546
 9773TIP3   OH250733   0.826   0.628  14.879 -0.2577 -0.1034 -0.5370
 9773TIP3    H150734   0.846   0.545  14.921  1.1338  0.1239 -0.6884
 9773TIP3    H250735   0.840   0.694  14.947  1.3703  0.2107 -1.1228
 9774TIP3   OH250736   3.572   1.446   3.025 -0.0009  0.1680  0.1734
 9774TIP3    H150737   3.631   1.500   2.972  1.9580 -1.8520  0.1776
 9774TIP3    H250738   3.574   1.485   3.112  0.0641  1.0279 -0.2037
 9775TIP3   OH250739   0.886   3.698  15.560 -0.1872 -0.0929 -0.2641
 9775TIP3    H150740   0.899   3.768  15.625 -2.3617 -0.9975  1.2475
 9775TIP3    H250741   0.900   3.617  15.609 -3.5973 -0.8701 -0.3399
 9776TIP3   OH250742   1.910   0.401  13.207  0.3767 -0.3878 -0.1956
 9776TIP3    H150743   1.935   0.493  13.201 -1.4163  0.1244 -0.4743
 9776TIP3    H250744   1.992   0.353  13.198  1.3833  1.1762  0.1887
 9777TIP3   OH250745   1.307   5.048   6.279  0.8058 -0.1069  0.2737
 9777TIP3    H150746   1.365   5.064   6.354  0.7901 -0.0563  0.2749
 9777TIP3    H250747   1.331   4.961   6.249  0.0557 -0.5893  1.0310
 9778TIP3   OH250748   5.976   5.981  11.621 -0.1479 -0.2634  0.2500
 9778TIP3    H150749   6.002   6.055  11.675 -1.6250  0.7711 -0.3887
 9778TIP3    H250750   6.045   5.974  11.554  0.5181 -0.1346  0.9136
 9779TIP3   OH250751   1.918   5.994   6.607 -0.1102 -0.5873  0.1097
 9779TIP3    H150752   2.003   6.037   6.606 -0.4427  0.0890  0.4327
 9779TIP3    H250753   1.854   6.065   6.597 -0.5850 -1.3702 -4.7193
 9780TIP3   OH250754   0.201   3.294   6.287  0.2145 -0.2369  0.1480
 9780TIP3    H150755   0.259   3.362   6.254 -0.9712  0.3056 -0.8877
 9780TIP3    H250756   0.131   3.341   6.332  0.4515 -0.8695  1.2099
 9781TIP3   OH250757   5.091   4.724   4.039 -0.4564  0.2308  0.3608
 9781TIP3    H150758   5.067   4.640   3.999  0.9132 -0.2045  0.3833
 9781TIP3    H250759   5.030   4.787   4.002 -2.1018 -0.8937  1.0006
 9782TIP3   OH250760   6.084   6.266  12.203  0.6746  0.1588  0.0067
 9782TIP3    H150761   6.021   6.240  12.135 -0.1865  0.5137  0.6542
 9782TIP3    H250762   6.166   6.280  12.155  0.6067 -1.5390 -0.6750
 9783TIP3   OH250763   5.394   2.317  14.362  0.4109 -0.2115  0.0403
 9783TIP3    H150764   5.403   2.226  14.390  1.1071  0.1235  0.9406
 9783TIP3    H250765   5.358   2.363  14.438 -0.9709  0.0770 -0.7614
 9784TIP3   OH250766   3.351   4.633  16.258  0.4201  0.4623  0.3626
 9784TIP3    H150767   3.298   4.604  16.184  1.7838 -0.8418 -0.1652
 9784TIP3    H250768   3.419   4.689  16.218 -0.4480  2.0539  1.0166
 9785TIP3   OH250769   6.457   5.520  13.518 -0.3410  0.2476 -0.4105
 9785TIP3    H150770   6.508   5.587  13.563 -1.1911  2.1009 -2.0750
 9785TIP3    H250771   6.367   5.535  13.548 -0.4467 -0.6088 -0.2838
 9786TIP3   OH250772   2.165   2.691  12.310  0.0253  0.4337 -0.0702
 9786TIP3    H150773   2.147   2.599  12.293 -0.4651  0.7368 -1.2133
 9786TIP3    H250774   2.109   2.713  12.385  0.2563 -0.2249  0.3048
 9787TIP3   OH250775   4.898   4.314   5.535 -0.7949 -0.0350 -0.3941
 9787TIP3    H150776   4.920   4.327   5.627  1.6716 -0.5890 -0.8296
 9787TIP3    H250777   4.887   4.219   5.526 -1.7380  0.0819 -0.5373
 9788TIP3   OH250778   2.081   4.854   1.841  0.9363  0.0497 -0.2670
 9788TIP3    H150779   2.001   4.868   1.792 -1.4079 -0.9640  2.9307
 9788TIP3    H250780   2.076   4.762   1.869  2.4879  0.3600  1.1907
 9789TIP3   OH250781   0.131   3.450   2.731  0.4936 -0.3813 -0.2543
 9789TIP3    H150782   0.218   3.461   2.769 -0.7811  0.4420  2.6572
 9789TIP3    H250783   0.110   3.535   2.692  0.1188  0.2051  1.1486
 9790TIP3   OH250784   0.123   2.613   5.159 -0.3735  0.2687  0.0973
 9790TIP3    H150785   0.084   2.656   5.235 -0.2938 -0.9719  0.8615
 9790TIP3    H250786   0.162   2.534   5.194  0.7947  0.3174 -1.0438
 9791TIP3   OH250787   1.883   3.566  16.629 -0.1145  0.5324  0.4290
 9791TIP3    H150788   1.942   3.496  16.601  1.4571  1.1392  2.0927
 9791TIP3    H250789   1.808   3.519  16.667 -0.0560 -0.2302 -0.3469
 9792TIP3   OH250790   1.034   4.371   1.024 -0.6054  0.0133 -0.4317
 9792TIP3    H150791   1.090   4.339   0.954  2.8641  1.3941  1.4770
 9792TIP3    H250792   0.995   4.292   1.061  2.1332 -1.4040 -0.2939
 9793TIP3   OH250793   5.473   3.632   3.081  0.5283 -0.0937 -0.1427
 9793TIP3    H150794   5.487   3.723   3.106 -0.9997 -0.4912  2.6707
 9793TIP3    H250795   5.553   3.587   3.108  1.4164  0.4165 -1.8317
 9794TIP3   OH250796   1.759   1.913   3.608 -0.1518 -0.3989  0.2850
 9794TIP3    H150797   1.813   1.875   3.539 -0.8443  1.1466 -1.1693
 9794TIP3    H250798   1.705   1.978   3.564 -1.4694 -0.1681  2.1047
 9795TIP3   OH250799   6.255   2.514   3.255  0.3837 -0.4460  0.2478
 9795TIP3    H150800   6.276   2.429   3.216  0.8374  0.1053 -0.7428
 9795TIP3    H250801   6.169   2.537   3.218  0.5818 -0.1533 -0.0309
 9796TIP3   OH250802   6.569   4.293  13.318 -0.2094 -0.3327 -0.3516
 9796TIP3    H150803   6.650   4.249  13.346 -0.4067 -0.3598  0.1924
 9796TIP3    H250804   6.566   4.374  13.369 -2.7715 -2.3582  3.1966
 9797TIP3   OH250805   3.761   3.173  11.539 -0.2382 -0.1484  0.7384
 9797TIP3    H150806   3.846   3.186  11.581 -1.1414 -1.3343  3.1361
 9797TIP3    H250807   3.762   3.081  11.511 -0.7595 -0.2028  0.8834
 9798TIP3   OH250808   3.209   2.072   0.362  0.4469  0.1681 -0.0490
 9798TIP3    H150809   3.284   2.027   0.323 -0.7631 -0.7010 -1.5178
 9798TIP3    H250810   3.245   2.150   0.402  2.3076 -0.9091  0.4650
 9799TIP3   OH250811   1.809   2.810  13.776  0.4458  0.4430 -0.0779
 9799TIP3    H150812   1.895   2.823  13.815  0.1493  0.3444  0.6312
 9799TIP3    H250813   1.748   2.851  13.837 -0.1579 -0.9088  0.2857
 9800TIP3   OH250814   1.662   2.792   2.601 -0.0735  0.1450  0.1979
 9800TIP3    H150815   1.587   2.776   2.659 -1.2057  0.6968 -1.0594
 9800TIP3    H250816   1.680   2.886   2.611  2.6151 -0.5168  2.9468
 9801TIP3   OH250817   3.792   0.793  12.117  0.2561 -0.0956 -0.0260
 9801TIP3    H150818   3.805   0.857  12.047  0.4518 -0.4762 -0.3477
 9801TIP3    H250819   3.697   0.786  12.127  0.2304  1.5414  1.2365
 9802TIP3   OH250820   1.208   6.360   0.278  0.1420  0.4507  0.1474
 9802TIP3    H150821   1.255   6.440   0.254  1.1726 -0.5443 -1.3440
 9802TIP3    H250822   1.145   6.347   0.207 -0.8828  0.5728  1.0092
 9803TIP3   OH250823   2.082   0.330   5.390 -0.4406  0.2149 -0.3212
 9803TIP3    H150824   2.055   0.256   5.445  0.7412 -0.6618 -0.8590
 9803TIP3    H250825   2.132   0.387   5.448  0.2601 -0.3856 -0.3141
 9804TIP3   OH250826   0.955   1.467   5.287  0.3107  0.2185  0.0100
 9804TIP3    H150827   1.018   1.456   5.216 -1.1236  0.8689 -1.4309
 9804TIP3    H250828   0.973   1.555   5.321  2.1444 -0.7418  1.6821
 9805TIP3   OH250829   4.546   5.802  16.485  0.3197  0.2041 -0.3269
 9805TIP3    H150830   4.631   5.779  16.523  0.5559 -0.1430 -1.0434
 9805TIP3    H250831   4.483   5.751  16.535  0.6969 -0.8499 -0.8866
 9806TIP3   OH250832   6.487   1.844  16.729 -0.1638 -0.0924 -0.8140
 9806TIP3    H150833   6.454   1.931  16.706 -0.2262  0.2641  0.5297
 9806TIP3    H250834   6.576   1.860  16.762  0.0527 -0.6181 -1.1333
 9807TIP3   OH250835   1.897   1.176  13.055 -0.1556  0.4404 -0.0062
 9807TIP3    H150836   1.913   1.099  13.000  2.0490  0.7501  0.1134
 9807TIP3    H250837   1.883   1.248  12.993  0.0095  0.3543 -0.1420
 9808TIP3   OH250838   6.383   2.277  15.812 -0.6052  0.1002  0.1049
 9808TIP3    H150839   6.459   2.333  15.828 -2.1086  2.1582  0.5026
 9808TIP3    H250840   6.324   2.294  15.885 -2.0622 -0.3157 -0.9151
 9809TIP3   OH250841   0.970   0.306  12.384  0.2190  0.0724  0.6248
 9809TIP3    H150842   0.999   0.289  12.295  0.3706 -1.8561  1.0043
 9809TIP3    H250843   1.046   0.342  12.429  1.0260 -1.6249  0.6867
 9810TIP3   OH250844   2.480   2.800  15.317  0.0166  0.4315 -0.0435
 9810TIP3    H150845   2.559   2.755  15.287 -1.2928 -1.5513 -0.7279
 9810TIP3    H250846   2.510   2.888  15.342  2.1720  0.2254 -1.6318
 9811TIP3   OH250847   2.316   0.294  13.553 -0.6686  0.4481 -0.2128
 9811TIP3    H150848   2.406   0.327  13.556 -0.7221  0.5934 -0.1347
 9811TIP3    H250849   2.321   0.208  13.594 -0.6710  0.7203  0.3841
 9812TIP3   OH250850   4.529   1.536  11.161  0.1491  0.1039 -0.1418
 9812TIP3    H150851   4.521   1.631  11.152 -4.9720 -0.1373 -1.1295
 9812TIP3    H250852   4.562   1.507  11.076  2.9832  0.8933  0.5684
 9813TIP3   OH250853   1.257   4.167  14.085  0.1982 -0.7279  0.3359
 9813TIP3    H150854   1.344   4.131  14.101  0.5011  0.7601  2.5858
 9813TIP3    H250855   1.208   4.147  14.165 -1.6540 -1.7311 -0.9675
 9814TIP3   OH250856   2.440   2.250  15.261 -0.2795  0.0803 -0.2037
 9814TIP3    H150857   2.458   2.207  15.178  0.6403 -1.9243  0.9564
 9814TIP3    H250858   2.373   2.195  15.302 -2.1042  2.0806 -0.3669
 9815TIP3   OH250859   5.084   6.403  15.861  0.0051  0.9944  0.5891
 9815TIP3    H150860   5.127   6.437  15.782  0.5463  2.6232  1.5377
 9815TIP3    H250861   5.149   6.415  15.930  0.5315 -2.7495  0.9149
 9816TIP3   OH250862   0.504   0.828   4.479 -0.0734 -0.2521 -0.1550
 9816TIP3    H150863   0.429   0.789   4.524  0.1307  0.5090  0.8811
 9816TIP3    H250864   0.564   0.755   4.464 -0.8679 -0.8101 -0.7076
 9817TIP3   OH250865   3.590   6.239  14.300 -0.3416 -0.3969  0.2090
 9817TIP3    H150866   3.620   6.298  14.370 -0.6447  1.1691 -0.9213
 9817TIP3    H250867   3.670   6.204  14.262 -0.1747 -1.2935  1.3335
 9818TIP3   OH250868   3.741   5.538  16.042 -0.0314 -0.4908 -0.0920
 9818TIP3    H150869   3.650   5.524  16.015 -0.3240 -0.4867  0.8837
 9818TIP3    H250870   3.763   5.624  16.006 -0.3949 -0.5143 -0.3784
 9819TIP3   OH250871   1.594   5.734   3.827  0.4934 -0.6555  0.4108
 9819TIP3    H150872   1.636   5.714   3.743  0.5076  1.1880 -0.0851
 9819TIP3    H250873   1.665   5.726   3.891  0.7027 -1.1788  0.1209
 9820TIP3   OH250874   5.626   2.682   1.620  0.0713 -0.4953  0.1902
 9820TIP3    H150875   5.534   2.657   1.619  0.0761 -0.5166 -0.2346
 9820TIP3    H250876   5.670   2.611   1.573  0.0709  0.3057 -1.0967
 9821TIP3   OH250877   4.460   1.105   0.583  0.0164 -0.1821 -0.1431
 9821TIP3    H150878   4.500   1.078   0.500 -1.2552  0.8212 -1.1169
 9821TIP3    H250879   4.375   1.141   0.558 -1.4178 -1.9344  1.8063
 9822TIP3   OH250880   4.618   4.654   4.947  0.5087 -0.0675  0.0729
 9822TIP3    H150881   4.564   4.662   5.025 -0.2777  0.4941 -0.5141
 9822TIP3    H250882   4.556   4.631   4.877  1.2948 -1.3368 -0.2493
 9823TIP3   OH250883   4.513   3.393  17.394 -0.4094 -0.0511  0.1421
 9823TIP3    H150884   4.431   3.439  17.411 -0.4794 -0.7393  1.8435
 9823TIP3    H250885   4.555   3.445  17.325 -0.0890  3.1149  2.5177
 9824TIP3   OH250886   4.293   1.432   4.029 -0.1776 -0.2699  0.1128
 9824TIP3    H150887   4.271   1.340   4.013  0.7402 -0.4110 -0.4023
 9824TIP3    H250888   4.264   1.478   3.950  2.3217 -0.6312 -1.0971
 9825TIP3   OH250889   6.206   2.970  12.813  0.6843 -0.3715  0.4081
 9825TIP3    H150890   6.250   2.975  12.728  0.1586 -1.0748  0.0784
 9825TIP3    H250891   6.118   3.003  12.797  0.7737  0.0901  0.8334
 9826TIP3   OH250892   2.580   6.509   2.295  0.4568 -0.0910  0.5148
 9826TIP3    H150893   2.608   6.449   2.225 -1.6063 -0.1567 -0.3140
 9826TIP3    H250894   2.651   6.573   2.301  0.7703 -0.1827 -1.5404
 9827TIP3   OH250895   6.240   2.248   0.882 -0.4986 -0.3906  0.3582
 9827TIP3    H150896   6.214   2.157   0.869  1.8710 -1.0517 -0.1971
 9827TIP3    H250897   6.265   2.252   0.975  0.7076 -0.7014  0.0626
 9828TIP3   OH250898   5.825   3.466   4.536  0.0302 -0.0826 -0.1399
 9828TIP3    H150899   5.823   3.372   4.549 -0.1690 -0.1027 -0.3019
 9828TIP3    H250900   5.756   3.500   4.594 -0.0638 -0.0608 -0.2638
 9829TIP3   OH250901   5.877   6.734  12.979  0.2869 -0.5632  0.1432
 9829TIP3    H150902   5.845   6.648  13.007 -2.0101 -0.3848 -1.6437
 9829TIP3    H250903   5.823   6.796  13.027 -1.1081 -0.2288 -1.7501
 9830TIP3   OH250904   6.578   6.196   5.399 -0.6640  0.4951 -0.2187
 9830TIP3    H150905   6.673   6.193   5.392 -0.7358  0.5077 -1.4397
 9830TIP3    H250906   6.558   6.286   5.423 -0.3540  0.4426  0.2298
 9831TIP3   OH250907   0.270   1.916   6.335 -1.0270  0.0120  0.7154
 9831TIP3    H150908   0.313   1.954   6.411 -1.3035  0.3504  0.7017
 9831TIP3    H250909   0.329   1.934   6.262  0.2795 -2.1333  1.1615
 9832TIP3   OH250910   6.274   0.673   4.948  0.4339  0.9151  0.2139
 9832TIP3    H150911   6.281   0.604   5.014  0.5892 -0.6330 -1.3362
 9832TIP3    H250912   6.202   0.728   4.978 -1.1885 -1.1925  0.4311
 9833TIP3   OH250913   2.855   0.862   4.859  0.6200  0.3781  0.5953
 9833TIP3    H150914   2.920   0.792   4.859  0.0653 -0.1583 -0.6750
 9833TIP3    H250915   2.772   0.817   4.843  0.2759  1.3363 -0.3916
 9834TIP3   OH250916   1.413   4.592   0.604  0.1872 -0.0121 -0.7294
 9834TIP3    H150917   1.454   4.556   0.683 -0.8200  1.5976  0.5835
 9834TIP3    H250918   1.462   4.672   0.586  0.4744 -0.4206 -1.8262
 9835TIP3   OH250919   1.054   4.080  15.396  0.9177 -0.3373 -0.1213
 9835TIP3    H150920   1.057   4.175  15.408  1.0564 -0.1418 -1.5355
 9835TIP3    H250921   0.969   4.064  15.355  1.1503 -0.7453 -0.4434
 9836TIP3   OH250922   5.855   3.561   0.294 -0.9510 -0.2351  0.2977
 9836TIP3    H150923   5.797   3.486   0.283 -1.9634  0.4714  0.7542
 9836TIP3    H250924   5.827   3.624   0.228 -0.8505  0.1943  0.6565
 9837TIP3   OH250925   3.590   6.341  16.282  0.3010  0.4547  0.1667
 9837TIP3    H150926   3.617   6.430  16.304 -0.4702  0.3950  1.4549
 9837TIP3    H250927   3.501   6.334  16.315 -0.9569  0.2551 -2.9344
 9838TIP3   OH250928   5.105   3.592  13.153  0.4650  0.1625 -0.1000
 9838TIP3    H150929   5.053   3.549  13.221  1.2976  1.0989  1.1745
 9838TIP3    H250930   5.074   3.682  13.152 -0.9849 -0.2775 -2.4791
 9839TIP3   OH250931   2.582   0.389   6.979  0.3773 -0.7561 -0.7255
 9839TIP3    H150932   2.565   0.336   7.057 -0.0416  0.4272  0.0065
 9839TIP3    H250933   2.548   0.336   6.906 -0.5314 -1.2509  0.0369
 9840TIP3   OH250934   5.145   3.660  16.844  0.0033  0.6768  0.2646
 9840TIP3    H150935   5.055   3.627  16.839  0.1167  0.3085  0.6060
 9840TIP3    H250936   5.176   3.660  16.754  1.6057 -4.6191  0.4854
 9841TIP3   OH250937   0.217   3.187   0.069  0.1491  0.1938 -0.3788
 9841TIP3    H150938   0.135   3.235   0.081 -1.8435 -2.6476 -1.3658
 9841TIP3    H250939   0.226   3.137   0.150  1.9106  1.7061  0.4266
 9842TIP3   OH250940   4.948   2.881   2.401 -0.2875 -0.1296  0.3161
 9842TIP3    H150941   4.912   2.798   2.432 -0.7927 -0.4150 -0.9580
 9842TIP3    H250942   5.038   2.882   2.433 -0.2584 -1.2048  0.2980
 9843TIP3   OH250943   1.566   6.240  15.202 -0.9330  0.0107 -0.4394
 9843TIP3    H150944   1.640   6.229  15.143 -0.5359 -0.2544  0.0986
 9843TIP3    H250945   1.494   6.268  15.146 -0.1712  1.2956 -0.8326
 9844TIP3   OH250946   0.810   6.531  11.219 -0.0371  0.2043  0.0157
 9844TIP3    H150947   0.799   6.535  11.124 -0.2796 -0.0318  0.0328
 9844TIP3    H250948   0.832   6.620  11.245  1.7990 -0.0540 -0.4838
 9845TIP3   OH250949   1.245   0.642  14.781  0.1640 -0.3389  0.3024
 9845TIP3    H150950   1.335   0.672  14.796  0.2894 -0.2154 -0.6206
 9845TIP3    H250951   1.244   0.615  14.689 -1.2200  1.3619 -0.2310
 9846TIP3   OH250952   0.363   5.111  11.350  0.1706 -0.4442 -0.3727
 9846TIP3    H150953   0.277   5.138  11.317  0.0036 -1.3254 -0.6993
 9846TIP3    H250954   0.383   5.174  11.419 -0.3633  0.2667 -0.8558
 9847TIP3   OH250955   1.515   5.634  16.982 -0.2404  0.1925  0.1038
 9847TIP3    H150956   1.420   5.632  16.991 -0.1394 -2.3151  1.5746
 9847TIP3    H250957   1.534   5.568  16.916  0.5549 -0.9248  1.4009
 9848TIP3   OH250958   1.821   1.953  14.912  0.4894 -0.0497  0.4127
 9848TIP3    H150959   1.733   1.972  14.879  0.2596  3.2714  2.4116
 9848TIP3    H250960   1.879   1.973  14.839 -0.3281 -0.8889 -0.4936
 9849TIP3   OH250961   5.185   3.222   0.226  0.1163  0.4567  0.1993
 9849TIP3    H150962   5.202   3.203   0.134  0.0634  2.6888 -0.3446
 9849TIP3    H250963   5.193   3.318   0.232  0.9938  0.2976  2.7021
 9850TIP3   OH250964   0.934   3.893   6.341  0.1403  0.2064 -0.1983
 9850TIP3    H150965   0.992   3.821   6.366 -0.4205 -0.2368 -0.1705
 9850TIP3    H250966   0.911   3.875   6.250 -0.5733 -0.0348  0.0277
 9851TIP3   OH250967   4.837   4.808   5.973 -0.7352 -0.2058 -0.1656
 9851TIP3    H150968   4.864   4.775   6.059 -1.6932 -0.1184  0.1827
 9851TIP3    H250969   4.876   4.747   5.910 -1.4860 -1.3224  0.4140
 9852TIP3   OH250970   0.836   4.587   1.431 -0.3951  0.2236 -0.1048
 9852TIP3    H150971   0.899   4.531   1.385 -1.9087 -0.2156 -1.7409
 9852TIP3    H250972   0.870   4.675   1.418  1.8517 -0.1573  2.2370
 9853TIP3   OH250973   3.070   4.231  14.709 -0.3887  0.3497 -0.1079
 9853TIP3    H150974   3.114   4.302  14.660 -0.1319  0.3977  0.1866
 9853TIP3    H250975   3.000   4.275  14.757 -1.1010  0.1955 -0.9811
 9854TIP3   OH250976   5.969   6.144   6.267 -0.3442  0.3929 -0.3360
 9854TIP3    H150977   5.996   6.198   6.342 -0.5020 -0.8779  0.6706
 9854TIP3    H250978   5.877   6.124   6.284 -0.3167 -0.1000 -0.7610
 9855TIP3   OH250979   1.636   4.072   3.319 -0.2028 -0.4632  0.6465
 9855TIP3    H150980   1.568   4.032   3.265  0.0601  1.4379 -1.2457
 9855TIP3    H250981   1.605   4.062   3.409 -2.7182 -0.1375 -0.1168
 9856TIP3   OH250982   2.568   0.824  12.955  0.0852  0.1426  0.1283
 9856TIP3    H150983   2.519   0.889  13.005  0.7279 -0.9557  2.3022
 9856TIP3    H250984   2.517   0.744  12.964  1.1073 -0.4831  0.5354
 9857TIP3   OH250985   5.970   4.921   4.972  0.1204  0.4173 -0.2175
 9857TIP3    H150986   5.948   4.838   5.015 -0.5603  0.9106  0.3948
 9857TIP3    H250987   6.009   4.975   5.041 -0.2994  0.9489 -0.3904
 9858TIP3   OH250988   2.931   3.045   1.068  0.7983 -0.0538  0.4641
 9858TIP3    H150989   2.901   3.133   1.092  0.2116  0.0570 -0.5959
 9858TIP3    H250990   2.942   3.000   1.151 -2.1878 -0.0467  0.9873
 9859TIP3   OH250991   6.537   6.068  17.002 -0.3680  0.0954  0.0810
 9859TIP3    H150992   6.456   6.119  17.001 -0.2499  0.3658  1.5846
 9859TIP3    H250993   6.509   5.977  17.002 -0.7654  0.1736  1.9262
 9860TIP3   OH250994   1.735   2.960  15.054  0.4993  0.0399  0.1732
 9860TIP3    H150995   1.778   2.876  15.040 -0.4360 -0.1216 -2.1748
 9860TIP3    H250996   1.752   2.981  15.146  0.1698 -3.0261  1.0219
 9861TIP3   OH250997   4.617   0.696   4.050 -0.3078  0.2780 -0.0552
 9861TIP3    H150998   4.546   0.646   4.090 -0.8901  1.2142  0.1083
 9861TIP3    H250999   4.697   0.651   4.078 -0.7643  0.1193  1.0224
 9862TIP3   OH251000   5.872   1.478  15.563 -0.7566 -0.2573 -0.5697
 9862TIP3    H151001   5.911   1.419  15.498 -1.4547 -0.5219 -0.7590
 9862TIP3    H251002   5.910   1.564  15.544  1.1564 -0.8283  0.4320
 9863TIP3   OH251003   2.545   0.093  14.899 -0.0416  0.4955  1.0808
 9863TIP3    H151004   2.616   0.037  14.869 -0.2440  0.9813 -0.3828
 9863TIP3    H251005   2.520   0.057  14.984  0.9904 -0.5569  0.9563
 9864TIP3   OH251006   1.472   5.362   0.215 -0.2129 -0.4459  0.4028
 9864TIP3    H151007   1.489   5.437   0.272 -1.4969  1.1350 -1.1927
 9864TIP3    H251008   1.401   5.314   0.258  0.9961 -1.1378  1.7223
 9865TIP3   OH251009   4.074   3.797  14.511 -0.0575 -0.6026  0.0141
 9865TIP3    H151010   4.004   3.856  14.484  0.4170  0.0857  0.2724
 9865TIP3    H251011   4.065   3.721  14.452  0.0856  0.2557 -1.1484
 9866TIP3   OH251012   3.142   2.277  13.741 -0.4330 -0.5062  0.0241
 9866TIP3    H151013   3.075   2.249  13.803 -1.5347 -1.0873 -1.3672
 9866TIP3    H251014   3.106   2.355  13.699  1.8046  2.1038  2.5025
 9867TIP3   OH251015   5.043   1.149   1.549  0.2216  0.2076  0.1384
 9867TIP3    H151016   5.108   1.093   1.507 -1.2474 -1.4303 -0.0693
 9867TIP3    H251017   5.010   1.097   1.622 -1.3995  0.6643 -0.2255
 9868TIP3   OH251018   6.524   5.759  13.889 -0.3545 -0.4315  0.1908
 9868TIP3    H151019   6.583   5.820  13.933  0.1414  0.1677 -1.2448
 9868TIP3    H251020   6.445   5.809  13.872  0.2441  0.0205 -1.4510
 9869TIP3   OH251021   3.182   3.578   4.087 -0.0127 -0.0754 -0.5841
 9869TIP3    H151022   3.205   3.540   4.172 -0.0962  1.3440  0.1150
 9869TIP3    H251023   3.087   3.576   4.085 -0.0024 -0.3682 -0.7695
 9870TIP3   OH251024   5.787   1.626   4.509  0.0442  0.3743 -0.2199
 9870TIP3    H151025   5.842   1.696   4.473  0.2462  0.0477 -0.5570
 9870TIP3    H251026   5.724   1.671   4.565  0.5407  0.7736  0.0263
 9871TIP3   OH251027   1.030   2.211  13.457 -0.4837 -0.1850  0.4007
 9871TIP3    H151028   0.964   2.188  13.391 -0.4219 -1.9972  0.9156
 9871TIP3    H251029   0.995   2.176  13.539  0.8981 -0.7770  0.7604
 9872TIP3   OH251030   4.207   5.386   4.608 -0.0837  0.6412 -0.0791
 9872TIP3    H151031   4.183   5.450   4.674  2.0848 -0.4342  1.9077
 9872TIP3    H251032   4.233   5.308   4.658  1.0983 -0.4273 -2.2057
 9873TIP3   OH251033   4.331   3.660   3.030  0.3808 -0.0262 -0.1019
 9873TIP3    H151034   4.300   3.750   3.043  1.7838  0.5666 -0.6395
 9873TIP3    H251035   4.280   3.629   2.955 -0.5746  0.0739  0.4843
 9874TIP3   OH251036   4.009   4.177   1.431  0.6621  0.2532  0.4767
 9874TIP3    H151037   4.064   4.197   1.507  0.3729  1.6282  0.3536
 9874TIP3    H251038   3.921   4.202   1.457  0.7781  2.1917 -0.7818
 9875TIP3   OH251039   6.694   1.143  12.809  0.1190  0.2866  0.1244
 9875TIP3    H151040   6.784   1.118  12.830 -0.2520 -0.2676  1.0748
 9875TIP3    H251041   6.645   1.061  12.810 -0.2466  0.4633 -1.2646
 9876TIP3   OH251042   3.715   3.947   2.584  0.4314  0.1175 -0.4492
 9876TIP3    H151043   3.719   3.939   2.679 -0.1501  0.2170 -0.4102
 9876TIP3    H251044   3.651   3.882   2.557  0.4561  0.2179 -0.7548
 9877TIP3   OH251045   2.798   0.572  16.327 -0.1811 -0.4990 -0.3354
 9877TIP3    H151046   2.844   0.656  16.328  1.1859 -1.0564  3.5944
 9877TIP3    H251047   2.799   0.545  16.236  0.5487  3.0701 -1.5576
 9878TIP3   OH251048   0.849   4.811   0.741 -0.3418  0.2523  0.1002
 9878TIP3    H151049   0.869   4.764   0.821  0.1634  3.1469  1.8117
 9878TIP3    H251050   0.799   4.749   0.688  2.5668 -3.0709  0.9120
 9879TIP3   OH251051   0.226   3.779   5.742 -0.0282 -0.6096 -0.6726
 9879TIP3    H151052   0.301   3.817   5.698  0.2820 -1.4351 -0.8742
 9879TIP3    H251053   0.186   3.852   5.789  1.7514 -0.4190  0.6384
 9880TIP3   OH251054   2.835   1.289  11.442 -0.0090 -0.0773  0.0162
 9880TIP3    H151055   2.861   1.243  11.522  1.8697  0.5691 -0.1822
 9880TIP3    H251056   2.875   1.239  11.371 -0.4431  0.2021 -0.4344
 9881TIP3   OH251057   2.612   1.788  12.070 -0.1850  0.0445  0.0059
 9881TIP3    H151058   2.547   1.770  12.001 -0.4144  0.5650  0.0820
 9881TIP3    H251059   2.564   1.775  12.151 -0.5557  1.6443  0.0687
 9882TIP3   OH251060   6.199   4.912  13.363 -0.1752 -0.2239  0.3883
 9882TIP3    H151061   6.245   4.907  13.279 -1.0427 -3.4643 -0.0210
 9882TIP3    H251062   6.263   4.881  13.427 -0.7347 -1.7255  0.2641
 9883TIP3   OH251063   5.461   5.359  13.580 -0.3015 -0.8406 -0.1802
 9883TIP3    H151064   5.526   5.408  13.529 -2.1430  0.8963 -0.9883
 9883TIP3    H251065   5.418   5.302  13.517 -1.6133  0.2683 -0.3279
 9884TIP3   OH251066   2.675   1.906   1.772 -0.4238 -0.5729  0.0175
 9884TIP3    H151067   2.715   1.828   1.734  2.2245  1.3590 -1.4848
 9884TIP3    H251068   2.748   1.958   1.804 -2.0508  1.4803  0.6471
 9885TIP3   OH251069   0.746   2.792  15.005  0.4003  0.0859  0.2008
 9885TIP3    H151070   0.697   2.766  15.082 -0.1137  0.2595 -0.0646
 9885TIP3    H251071   0.805   2.861  15.036  0.3958 -0.0408  0.4938
 9886TIP3   OH251072   4.233   6.455  12.351 -0.2261  0.4467  0.0631
 9886TIP3    H151073   4.201   6.373  12.314  1.7011 -0.9420  1.3012
 9886TIP3    H251074   4.178   6.470  12.428  0.1543 -0.3050  0.4851
 9887TIP3   OH251075   1.569   4.555  12.161  0.0645  0.7697  0.1262
 9887TIP3    H151076   1.557   4.525  12.071 -0.8853 -2.8470  1.2857
 9887TIP3    H251077   1.658   4.526  12.184 -0.5196 -0.4551  0.9817
 9888TIP3   OH251078   4.292   1.527   4.612 -0.7217  0.5214 -0.1949
 9888TIP3    H151079   4.338   1.450   4.578 -0.2344  0.3796  0.7407
 9888TIP3    H251080   4.261   1.500   4.699  0.5434  1.7545  0.6898
 9889TIP3   OH251081   0.204   6.103  11.830  0.0568  0.1390 -0.5956
 9889TIP3    H151082   0.210   6.192  11.795 -0.1248  0.1935 -0.4898
 9889TIP3    H251083   0.289   6.087  11.871  0.5090 -0.1642 -1.6241
 9890TIP3   OH251084   2.092   6.555   5.214 -0.1035  0.5010  0.1068
 9890TIP3    H151085   2.119   6.465   5.199 -0.4869  0.1653  1.3441
 9890TIP3    H251086   2.000   6.549   5.240 -0.0044  1.2036  0.6524
 9891TIP3   OH251087   1.608   2.084   3.447  0.1520  0.2431 -0.1081
 9891TIP3    H151088   1.575   2.101   3.359  1.4672  0.4991 -0.5786
 9891TIP3    H251089   1.669   2.156   3.464 -0.4232  0.4334  1.1943
 9892TIP3   OH251090   6.204   1.179  15.153 -0.0752  0.2708  0.3302
 9892TIP3    H151091   6.237   1.164  15.242  1.1019  1.1986  0.0736
 9892TIP3    H251092   6.268   1.136  15.097 -1.1608 -0.8796 -0.0748
 9893TIP3   OH251093   0.476   5.191   5.962 -0.0178  0.1007  0.2521
 9893TIP3    H151094   0.449   5.273   5.919 -0.1314 -0.4102 -0.6729
 9893TIP3    H251095   0.402   5.168   6.018  0.5114  1.2785  1.5138
 9894TIP3   OH251096   1.808   6.188  13.617  0.2748  0.0973  0.4362
 9894TIP3    H151097   1.888   6.144  13.585  0.0149  0.3908 -0.6488
 9894TIP3    H251098   1.823   6.281  13.600 -0.7229  0.0637 -0.7869
 9895TIP3   OH251099   6.167   6.035  14.420  0.8757 -0.0751 -0.1279
 9895TIP3    H151100   6.259   6.056  14.436  0.5713 -0.9429  3.5327
 9895TIP3    H251101   6.161   5.940  14.433 -0.9476  0.3295  2.9412
 9896TIP3   OH251102   2.086   3.577   3.936  0.2857  0.2592 -0.3706
 9896TIP3    H151103   2.085   3.658   3.886  0.8132  0.2782 -0.3633
 9896TIP3    H251104   2.169   3.580   3.984 -0.6296  0.6947  1.2571
 9897TIP3   OH251105   0.413   2.991  13.502  0.1518  0.3033  0.1437
 9897TIP3    H151106   0.362   2.989  13.421 -0.1028  1.4760  0.2583
 9897TIP3    H251107   0.408   3.082  13.531 -0.8068 -0.3450  2.1490
 9898TIP3   OH251108   6.758   1.401  17.181  0.1799  0.6711  0.6156
 9898TIP3    H151109   6.780   1.309  17.170  0.0148  0.8025 -1.2413
 9898TIP3    H251110   6.729   1.409  17.272  0.9173 -0.9407  1.0216
 9899TIP3   OH251111   6.640   6.599   6.007  0.6396 -0.3002  0.2465
 9899TIP3    H151112   6.735   6.594   6.004  0.6226 -0.8487  0.4907
 9899TIP3    H251113   6.620   6.637   6.092  0.6683  0.9012 -0.2672
 9900TIP3   OH251114   5.967   6.313  14.822  0.1924  0.2787  0.2712
 9900TIP3    H151115   6.037   6.371  14.793 -1.0669  0.8056 -1.9170
 9900TIP3    H251116   5.907   6.369  14.870  0.0703  0.3296  0.0596
 9901TIP3   OH251117   4.655   2.585   1.631  0.2868  0.6459  0.0651
 9901TIP3    H151118   4.743   2.594   1.668  0.0795  0.9695  0.4900
 9901TIP3    H251119   4.666   2.528   1.555  0.8813  0.7673  0.0599
 9902TIP3   OH251120   1.492   4.346   5.685 -0.5995 -0.2605  0.3963
 9902TIP3    H151121   1.501   4.255   5.715 -2.0853  0.2050  2.4593
 9902TIP3    H251122   1.456   4.338   5.597  0.2935 -1.6708  0.1270
 9903TIP3   OH251123   2.643   6.610   2.924 -0.8900 -0.2073 -0.6287
 9903TIP3    H151124   2.595   6.528   2.910  0.8466 -2.0726  3.0817
 9903TIP3    H251125   2.727   6.597   2.880 -0.6182 -0.4015 -0.0498
 9904TIP3   OH251126   2.776   3.457  16.537 -0.1364  0.1158 -0.1989
 9904TIP3    H151127   2.745   3.525  16.596  0.7963  0.9608 -0.6666
 9904TIP3    H251128   2.817   3.504  16.465  0.2317 -0.9377 -0.6970
 9905TIP3   OH251129   3.745   2.821  14.367 -0.1123 -0.6193  0.2762
 9905TIP3    H151130   3.731   2.778  14.282  0.6025 -1.6786  0.6772
 9905TIP3    H251131   3.778   2.752  14.424 -0.5126  0.0982  1.4128
 9906TIP3   OH251132   2.158   5.740  11.787  0.5244 -0.1669 -0.5408
 9906TIP3    H151133   2.218   5.709  11.856  2.1824  0.4688 -1.6213
 9906TIP3    H251134   2.114   5.661  11.757  0.8611 -0.6723  0.2521
 9907TIP3   OH251135   6.452   3.240   0.749 -0.0824  0.4352  0.2087
 9907TIP3    H151136   6.453   3.327   0.708 -1.1082  0.2525 -0.2415
 9907TIP3    H251137   6.362   3.210   0.739  0.0766 -0.3621  1.0573
 9908TIP3   OH251138   0.188   6.082   0.528 -0.5431  0.6142 -0.2434
 9908TIP3    H151139   0.151   5.995   0.542 -2.2780  1.2289 -0.8592
 9908TIP3    H251140   0.226   6.078   0.440  0.8368  0.0248  0.3421
 9909TIP3   OH251141   5.883   1.039  15.682  0.2963 -0.3159 -0.4488
 9909TIP3    H151142   5.873   1.133  15.693 -2.6699 -0.6010  0.0786
 9909TIP3    H251143   5.794   1.006  15.669  0.9316 -3.3029  1.5295
 9910TIP3   OH251144   5.019   3.585  12.721  0.2468 -0.4241 -0.3751
 9910TIP3    H151145   4.937   3.599  12.674  0.9285 -1.6927 -2.0597
 9910TIP3    H251146   5.029   3.662  12.777  0.1369  2.0375 -3.4660
 9911TIP3   OH251147   3.067   5.466  16.225 -0.0306 -0.3851 -0.1324
 9911TIP3    H151148   3.157   5.439  16.206  1.2937  2.2232  1.7550
 9911TIP3    H251149   3.038   5.509  16.145  0.2703 -1.4433 -0.8405
 9912TIP3   OH251150   6.505   0.013  13.045 -0.3246 -0.0314  0.3586
 9912TIP3    H151151   6.552   0.067  12.981  0.2685 -0.6084  0.2954
 9912TIP3    H251152   6.433   0.069  13.075 -0.7125  0.1893 -0.9388
 9913TIP3   OH251153   6.750   3.530  15.094 -0.8982 -0.1105  0.1805
 9913TIP3    H151154   6.779   3.443  15.120  0.1890  0.4847  1.0427
 9913TIP3    H251155   6.738   3.577  15.177  0.4620  1.1479 -0.2951
 9914TIP3   OH251156   4.628   2.371  14.058 -0.5496 -0.5677 -0.6296
 9914TIP3    H151157   4.693   2.312  14.095  0.0830 -0.3679 -1.3784
 9914TIP3    H251158   4.567   2.389  14.130 -0.0884 -1.1977 -0.0717
 9915TIP3   OH251159   4.391   6.581  13.578  0.2312  0.2031 -0.9482
 9915TIP3    H151160   4.340   6.623  13.647  1.4193 -0.3466  0.3027
 9915TIP3    H251161   4.363   6.489  13.580  0.3482  0.1636 -1.1187
 9916TIP3   OH251162   1.575   2.538  11.863 -0.0067  0.1567 -0.1227
 9916TIP3    H151163   1.596   2.492  11.782 -0.3257 -0.8764  0.3594
 9916TIP3    H251164   1.639   2.505  11.926 -0.7220 -0.2093  0.4240
 9917TIP3   OH251165   2.614   1.907   4.538  0.1389  0.3741  0.4740
 9917TIP3    H151166   2.568   1.962   4.475  0.8036  2.1031  1.4286
 9917TIP3    H251167   2.700   1.893   4.499 -0.3756 -0.9287 -0.2536
 9918TIP3   OH251168   3.030   4.289   3.518 -0.1723  0.3377 -0.1286
 9918TIP3    H151169   3.010   4.352   3.587  1.2956  1.1889 -0.4377
 9918TIP3    H251170   3.047   4.343   3.441  0.2733 -0.4889 -0.6194
 9919TIP3   OH251171   1.637   0.535   3.506 -0.1950  0.1568 -0.2502
 9919TIP3    H151172   1.728   0.538   3.477  0.7364 -2.1821  2.0676
 9919TIP3    H251173   1.595   0.473   3.447 -0.4133  1.3645 -1.4297
 9920TIP3   OH251174   2.460   4.130   6.297  0.2747  0.2596 -0.3535
 9920TIP3    H151175   2.529   4.196   6.308  0.1801  0.3718 -0.4254
 9920TIP3    H251176   2.430   4.112   6.387  0.2385  0.3833 -0.3398
 9921TIP3   OH251177   4.460   0.334  12.099  0.0037 -0.2819 -0.4196
 9921TIP3    H151178   4.417   0.254  12.070  1.3554 -1.3770  0.4358
 9921TIP3    H251179   4.514   0.360  12.024 -0.3955 -0.1867 -0.6788
 9922TIP3   OH251180   1.385   6.703   5.875  0.0766 -0.0147  0.0460
 9922TIP3    H151181   1.290   6.703   5.860 -0.0360 -0.7752  0.6739
 9922TIP3    H251182   1.401   6.784   5.924  0.2218  1.6508 -2.5640
 9923TIP3   OH251183   2.907   1.164   4.708 -0.0220  0.1468 -0.1438
 9923TIP3    H151184   2.888   1.167   4.802 -0.2310 -0.9425 -0.1446
 9923TIP3    H251185   2.873   1.080   4.678  1.1483 -0.0809 -0.9451
 9924TIP3   OH251186   4.662   3.024  12.701 -0.2066  0.0283  0.0162
 9924TIP3    H151187   4.719   3.047  12.776 -1.6850  2.1164  0.5875
 9924TIP3    H251188   4.630   2.937  12.722  1.1767 -0.3601  0.6817
 9925TIP3   OH251189   1.725   6.634  15.766  1.0366  0.2485  0.2525
 9925TIP3    H151190   1.647   6.630  15.711  0.8833 -1.0426  0.5309
 9925TIP3    H251191   1.757   6.544  15.769  1.3502  0.3840  1.8406
 9926TIP3   OH251192   1.791   5.553   4.026  0.4366 -0.1348  0.3840
 9926TIP3    H151193   1.857   5.561   3.958 -2.6424  0.1348 -2.8530
 9926TIP3    H251194   1.773   5.643   4.053 -0.8811  0.1336 -1.2346
 9927TIP3   OH251195   6.102   1.006  12.476 -0.1025  0.0601  0.4213
 9927TIP3    H151196   6.024   1.005  12.421  0.2853  0.5264 -0.1474
 9927TIP3    H251197   6.088   1.079  12.537 -0.7162 -0.7124  1.2315
 9928TIP3   OH251198   3.567   4.380   0.147 -0.4054 -0.1499 -0.3429
 9928TIP3    H151199   3.594   4.441   0.215 -1.3506 -0.3713  0.2450
 9928TIP3    H251200   3.551   4.298   0.194 -0.3458 -0.5091 -0.9454
 9929TIP3   OH251201   6.235   6.313   3.984 -0.4028 -0.0556  0.0360
 9929TIP3    H151202   6.247   6.219   3.994 -0.5727 -0.2472 -1.3430
 9929TIP3    H251203   6.142   6.328   4.002 -0.8616 -0.4899 -1.7722
 9930TIP3   OH251204   5.307   4.095   3.380 -0.0134  0.0876 -0.5408
 9930TIP3    H151205   5.233   4.141   3.419 -0.2241 -1.0001  0.4159
 9930TIP3    H251206   5.310   4.011   3.427  1.0544 -0.3941 -1.4266
 9931TIP3   OH251207   3.363   2.532   5.787  0.2279  0.3254 -0.4768
 9931TIP3    H151208   3.308   2.587   5.843  1.8171  1.1098  0.3782
 9931TIP3    H251209   3.448   2.533   5.830  1.2331  0.1021 -2.3876
 9932TIP3   OH251210   6.487   1.814  11.867  0.2548 -0.4831 -0.1799
 9932TIP3    H151211   6.515   1.759  11.941  1.6652 -2.1489 -1.8293
 9932TIP3    H251212   6.423   1.760  11.821  0.0937  0.1484 -0.6951
 9933TIP3   OH251213   4.360   3.912   2.194 -0.3711  0.0931 -0.0677
 9933TIP3    H151214   4.448   3.896   2.229 -0.6324 -0.3384  0.4079
 9933TIP3    H251215   4.366   3.887   2.102  0.0386  0.1754 -0.0640
 9934TIP3   OH251216   4.849   6.476   2.785 -0.1259 -0.0298 -0.5020
 9934TIP3    H151217   4.771   6.487   2.731 -1.0647 -1.3432  0.5493
 9934TIP3    H251218   4.902   6.554   2.766 -1.0051  0.1721 -2.3171
 9935TIP3   OH251219   4.947   3.685  14.210  0.7566 -0.2676 -0.3346
 9935TIP3    H151220   5.012   3.660  14.144  0.4589  0.7727 -1.0438
 9935TIP3    H251221   4.876   3.725  14.160  0.0532 -0.4061  0.5330
 9936TIP3   OH251222   3.463   3.298  15.968 -0.1081  0.2355  0.4232
 9936TIP3    H151223   3.445   3.266  15.880  2.1688 -0.5207  0.1590
 9936TIP3    H251224   3.391   3.358  15.987 -0.8907  0.0864 -1.7704
 9937TIP3   OH251225   2.267   0.671  16.814  0.0859 -0.4315 -0.0463
 9937TIP3    H151226   2.359   0.678  16.839 -0.2945  0.9733  1.1464
 9937TIP3    H251227   2.261   0.715  16.729  0.5478 -0.6548 -0.1903
 9938TIP3   OH251228   1.322   4.348  14.825  0.1616 -0.2521 -0.6933
 9938TIP3    H151229   1.303   4.255  14.830 -1.6357  0.1349  0.4161
 9938TIP3    H251230   1.286   4.385  14.906 -0.2832  1.5861 -1.6754
 9939TIP3   OH251231   3.790   2.466  16.758 -0.6699 -0.0892  0.0853
 9939TIP3    H151232   3.811   2.548  16.803 -1.9297  0.8253 -0.9167
 9939TIP3    H251233   3.810   2.483  16.666 -0.7939 -0.9593 -0.1125
 9940TIP3   OH251234   3.521   3.772   2.494 -0.3010  0.1904  0.1008
 9940TIP3    H151235   3.519   3.677   2.508 -0.9848  0.2828  0.6414
 9940TIP3    H251236   3.436   3.793   2.457 -0.2917  0.6569  0.3471
 9941TIP3   OH251237   1.788   2.559   1.561  0.6050  0.1502 -0.1050
 9941TIP3    H151238   1.755   2.556   1.651 -0.3839  0.7890 -0.4351
 9941TIP3    H251239   1.822   2.471   1.545  0.3978 -0.0943  0.7525
 9942TIP3   OH251240   4.180   6.341  12.731 -0.0920  0.1004 -0.1716
 9942TIP3    H151241   4.151   6.256  12.765  0.9198 -0.1666  0.0547
 9942TIP3    H251242   4.275   6.342  12.745  0.5062 -0.1931 -3.2802
 9943TIP3   OH251243   2.679   0.627   3.504 -0.5052 -0.0722 -0.2819
 9943TIP3    H151244   2.694   0.551   3.449  0.0894  0.7897 -1.3533
 9943TIP3    H251245   2.762   0.640   3.550 -0.5462  0.0491 -0.2411
 9944TIP3   OH251246   5.830   2.317  14.434 -0.0405 -0.3908  0.5708
 9944TIP3    H151247   5.892   2.254  14.398  0.0532 -0.8023  1.4175
 9944TIP3    H251248   5.787   2.270  14.506  0.6030  0.7382  1.7538
 9945TIP3   OH251249   3.250   1.814   2.517  0.1764  0.1985  0.2940
 9945TIP3    H151250   3.314   1.865   2.468  0.4002  0.0381  0.4172
 9945TIP3    H251251   3.171   1.868   2.517  0.1938  0.2261 -0.1876
 9946TIP3   OH251252   4.269   0.106  13.008  0.3099 -0.1289 -0.0407
 9946TIP3    H151253   4.273   0.063  13.093  1.1681  0.2711  0.1248
 9946TIP3    H251254   4.349   0.157  13.002 -0.4951  1.1391 -0.4098
 9947TIP3   OH251255   0.531   5.617   2.513  0.0577 -0.1275 -0.1624
 9947TIP3    H151256   0.507   5.602   2.605 -2.6533 -0.1452 -0.7838
 9947TIP3    H251257   0.533   5.713   2.505  1.2821 -0.1115  0.0965
 9948TIP3   OH251258   4.627   2.647  14.421  0.5661 -0.0733 -0.3605
 9948TIP3    H151259   4.620   2.737  14.452  1.2116  0.3884 -1.4826
 9948TIP3    H251260   4.686   2.652  14.345  2.2309 -1.7344  0.7259
 9949TIP3   OH251261   2.932   4.000  14.230  0.4969 -0.9246 -0.5304
 9949TIP3    H151262   2.909   4.056  14.303 -2.2139 -2.1961 -0.3050
 9949TIP3    H251263   3.028   3.999  14.230  0.6626 -1.5622  3.5694
 9950TIP3   OH251264   6.006   5.469   5.942  1.0071  0.3584 -0.1038
 9950TIP3    H151265   6.013   5.537   5.875  0.2143  0.6434  0.0992
 9950TIP3    H251266   5.969   5.394   5.896 -1.9212  1.3179  0.4959
 9951TIP3   OH251267   3.019   3.803  11.603  0.1779  0.1423 -0.1685
 9951TIP3    H151268   2.943   3.832  11.654 -0.5902 -2.1772  0.1668
 9951TIP3    H251269   3.013   3.852  11.521 -0.1160  1.9568  0.8818
 9952TIP3   OH251270   1.042   1.259  13.403  0.3934 -0.4169  0.2456
 9952TIP3    H151271   0.966   1.245  13.346  2.8681 -2.2554 -2.9468
 9952TIP3    H251272   1.034   1.193  13.471 -0.0361 -1.7563 -1.0543
 9953TIP3   OH251273   1.393   5.870   0.419 -0.3256  0.1058 -0.3847
 9953TIP3    H151274   1.460   5.855   0.351 -1.3928  1.3045 -1.7707
 9953TIP3    H251275   1.310   5.853   0.374 -1.0997  1.5712  0.4296
 9954TIP3   OH251276   2.178   0.339  13.903  0.6829 -0.0585 -0.2230
 9954TIP3    H151277   2.268   0.372  13.896  0.4977  0.3400 -0.7511
 9954TIP3    H251278   2.171   0.310  13.994  2.2938 -2.8449 -0.8818
 9955TIP3   OH251279   3.611   2.644   0.296 -0.1220 -0.2924  0.4815
 9955TIP3    H151280   3.650   2.687   0.371  1.2256  1.3096 -1.0484
 9955TIP3    H251281   3.517   2.654   0.307  0.0631 -0.0143  1.8825
 9956TIP3   OH251282   0.026   1.410   0.966 -0.0324 -0.4988  0.1760
 9956TIP3    H151283   0.088   1.455   1.024 -1.5751 -0.1699  1.6314
 9956TIP3    H251284   0.081   1.370   0.899  1.5303  3.1322 -0.9697
 9957TIP3   OH251285   3.266   0.132   1.893  0.1040  0.1573 -0.6761
 9957TIP3    H151286   3.362   0.131   1.895  0.1409  1.6743  0.6806
 9957TIP3    H251287   3.242   0.203   1.953 -1.9137 -1.1226  0.1332
 9958TIP3   OH251288   3.288   5.162  12.585 -0.2222  0.3338  0.1782
 9958TIP3    H151289   3.300   5.219  12.508  0.1055  0.5235  0.3699
 9958TIP3    H251290   3.375   5.128  12.603 -0.2949  0.3190  0.4934
 9959TIP3   OH251291   3.646   3.985  16.705  0.9698  0.3677  0.5698
 9959TIP3    H151292   3.626   4.076  16.684  1.0620  0.4127  0.6707
 9959TIP3    H251293   3.604   3.934  16.636  0.3973  0.4472  0.8523
 9960TIP3   OH251294   2.148   4.022  13.841  0.0791  0.4204 -0.3127
 9960TIP3    H151295   2.218   4.053  13.899  0.6574 -2.1520  0.5023
 9960TIP3    H251296   2.194   3.977  13.770 -0.7429  0.1679 -0.6992
 9961TIP3   OH251297   0.038   6.710  15.028  0.3926 -0.1263 -0.5496
 9961TIP3    H151298  -0.033   6.753  14.981 -0.4233 -0.9565 -0.1134
 9961TIP3    H251299   0.070   6.776  15.090  0.0238  0.2625 -0.7691
 9962TIP3   OH251300   1.237   5.542   1.916 -0.5604  0.1670  0.2545
 9962TIP3    H151301   1.276   5.455   1.929  0.6758  0.7472  0.5734
 9962TIP3    H251302   1.239   5.555   1.821  1.5125  0.8097  0.3366
 9963TIP3   OH251303   5.079   5.721  13.117 -0.1625  0.2985 -0.2809
 9963TIP3    H151304   5.137   5.797  13.106 -1.1035  0.9651 -0.8249
 9963TIP3    H251305   5.007   5.737  13.055 -0.2123 -1.2134 -0.6429
 9964TIP3   OH251306   3.876   1.147   1.936  1.0113 -0.2565 -0.8097
 9964TIP3    H151307   3.877   1.052   1.946 -0.5000 -0.2134  0.2127
 9964TIP3    H251308   3.922   1.180   2.013 -0.2834 -0.1592 -0.0341
 9965TIP3   OH251309   3.288   3.456   4.313  0.3102 -0.3863 -0.4583
 9965TIP3    H151310   3.370   3.407   4.319  0.3412 -0.2535  0.3508
 9965TIP3    H251311   3.302   3.533   4.369  0.1639  0.4202 -1.4932
 9966TIP3   OH251312   1.236   6.118   0.541  0.0730 -0.1552 -0.4861
 9966TIP3    H151313   1.186   6.052   0.492  0.0190 -0.7761  0.3740
 9966TIP3    H251314   1.239   6.083   0.631  2.0333 -0.1283 -0.5099
 9967TIP3   OH251315   3.073   0.905   1.917  0.4468 -0.2948  0.3994
 9967TIP3    H151316   3.077   0.811   1.900  1.1908 -0.3464  0.8110
 9967TIP3    H251317   3.076   0.912   2.012 -1.5740  0.0804  0.4910
 9968TIP3   OH251318   6.641   5.487  14.966 -0.2340 -0.2049  0.3522
 9968TIP3    H151319   6.597   5.413  15.007  0.6942 -2.0201 -1.6744
 9968TIP3    H251320   6.688   5.448  14.892  2.8482  1.9346  0.9808
 9969TIP3   OH251321   0.066   3.546   0.707  0.2941  0.5854  0.2792
 9969TIP3    H151322   0.131   3.476   0.710  0.2455  0.5212 -0.1401
 9969TIP3    H251323  -0.013   3.506   0.746 -0.1479 -0.0475 -1.1835
 9970TIP3   OH251324   5.778   5.502   2.562  0.0888  0.5424  0.1196
 9970TIP3    H151325   5.798   5.456   2.480 -0.8930  0.0240  0.1610
 9970TIP3    H251326   5.727   5.578   2.535 -0.4598  0.2282  0.2716
 9971TIP3   OH251327   5.752   1.684   0.810 -0.0253 -0.2094 -0.2509
 9971TIP3    H151328   5.660   1.659   0.806  0.0491 -0.5041 -0.1104
 9971TIP3    H251329   5.799   1.603   0.828  0.0975  0.2561  1.6783
 9972TIP3   OH251330   2.013   1.199  15.598 -0.0385  0.3625  0.2482
 9972TIP3    H151331   2.046   1.288  15.591  0.1119  0.3510  0.7478
 9972TIP3    H251332   2.087   1.144  15.572 -0.8086  0.4172 -2.3362
 9973TIP3   OH251333   1.979   4.147  16.318  0.0592 -0.3585  0.4255
 9973TIP3    H151334   2.020   4.185  16.395  1.0036 -1.2746  0.3923
 9973TIP3    H251335   2.011   4.057  16.315 -2.0514 -1.1702  0.4634
 9974TIP3   OH251336   5.548   4.455  13.709 -0.1061  0.1837  0.4241
 9974TIP3    H151337   5.640   4.454  13.737  0.5194  0.0931 -1.4782
 9974TIP3    H251338   5.523   4.363  13.703 -0.2570  0.2038  0.7425
 9975TIP3   OH251339   1.660   1.873   4.723 -0.1534  0.0861 -0.7613
 9975TIP3    H151340   1.707   1.943   4.677  0.5206 -0.1921 -0.4972
 9975TIP3    H251341   1.618   1.823   4.653 -0.7770  0.8463 -0.9451
 9976TIP3   OH251342   2.068   1.978   3.929  0.0620 -0.0146 -0.0691
 9976TIP3    H151343   2.032   1.948   4.013  0.3350  0.9498  0.3967
 9976TIP3    H251344   2.036   1.913   3.865 -1.0259 -0.1639  0.6055
 9977TIP3   OH251345   4.297   5.832   2.626 -0.5316  0.7918 -0.1627
 9977TIP3    H151346   4.269   5.745   2.598 -0.0869  0.7918 -0.6235
 9977TIP3    H251347   4.216   5.876   2.652 -0.7112  0.0829  0.5434
 9978TIP3   OH251348   5.896   0.964   4.288  0.3329 -0.0061  0.5968
 9978TIP3    H151349   5.852   1.004   4.213  0.3539 -0.4745  0.3302
 9978TIP3    H251350   5.960   1.030   4.316  0.7812 -0.0868 -0.2109
 9979TIP3   OH251351   0.413   0.873   3.458 -0.3709 -0.2265 -0.2087
 9979TIP3    H151352   0.468   0.875   3.380 -0.5171 -2.3403 -0.4240
 9979TIP3    H251353   0.414   0.781   3.486  0.4930  0.6179  2.8861
 9980TIP3   OH251354   6.422   0.080  14.602  0.7029 -0.6002  0.3047
 9980TIP3    H151355   6.398   0.063  14.511 -2.1701  0.9402  0.6519
 9980TIP3    H251356   6.464   0.166  14.600  2.3785 -1.3971  0.2407
 9981TIP3   OH251357   3.548   2.509  16.990 -0.7948  0.8323 -0.2526
 9981TIP3    H151358   3.530   2.419  16.963 -0.8804 -0.0970  2.5414
 9981TIP3    H251359   3.472   2.534  17.043 -0.6588  2.4921 -0.7856
 9982TIP3   OH251360   6.406   4.947   0.276  0.4199 -0.2329  0.2616
 9982TIP3    H151361   6.462   4.883   0.233  1.8722  1.0370  0.1924
 9982TIP3    H251362   6.437   4.951   0.366 -0.1616 -0.1590  0.4672
 9983TIP3   OH251363   2.484   5.525   6.387 -0.0064 -0.4639  0.0098
 9983TIP3    H151364   2.509   5.526   6.294  1.8852  4.7614  0.2526
 9983TIP3    H251365   2.561   5.490   6.431  1.3734  2.0185 -0.2256
 9984TIP3   OH251366   4.082   1.457   0.988 -0.2575  0.3690 -0.2400
 9984TIP3    H151367   4.029   1.490   1.060  1.1542 -0.6930  1.3497
 9984TIP3    H251368   4.065   1.363   0.985  1.7305 -0.0781  0.5667
 9985TIP3   OH251369   3.412   6.533  17.126 -0.0419  0.5849 -0.0145
 9985TIP3    H151370   3.459   6.514  17.207 -1.4122  0.3071  0.7552
 9985TIP3    H251371   3.462   6.603  17.084  0.0227  1.6214  1.7099
 9986TIP3   OH251372   4.369   0.634   0.140  0.1445  0.5984 -0.5442
 9986TIP3    H151373   4.364   0.717   0.189 -0.1246  0.5923 -0.5617
 9986TIP3    H251374   4.306   0.644   0.069  0.8960  0.8072 -1.2003
 9987TIP3   OH251375   6.172   6.247   1.532 -0.7390 -0.5176 -0.3532
 9987TIP3    H151376   6.249   6.193   1.512 -0.2045 -0.6546  1.7978
 9987TIP3    H251377   6.208   6.335   1.546 -1.1961 -0.2437 -0.9121
 9988TIP3   OH251378   4.279   3.488   0.599 -0.1903  0.2620  0.5000
 9988TIP3    H151379   4.224   3.428   0.649 -1.8512  0.7350 -0.6896
 9988TIP3    H251380   4.317   3.433   0.530 -4.0988  0.9195 -2.5067
 9989TIP3   OH251381   6.585   4.861  16.011 -0.0011  0.1220  0.2228
 9989TIP3    H151382   6.677   4.885  16.002  0.0142 -0.3564 -1.0938
 9989TIP3    H251383   6.581   4.809  16.091  0.5439  1.6096  1.2587
 9990TIP3   OH251384   4.380   5.226  16.866  0.3188  0.1026 -0.5639
 9990TIP3    H151385   4.315   5.186  16.925  0.3272  0.4729 -0.2980
 9990TIP3    H251386   4.332   5.242  16.785  0.5176 -1.1551 -0.9446
 9991TIP3   OH251387   3.190   6.419   5.145  0.1211 -0.5075  0.1424
 9991TIP3    H151388   3.153   6.352   5.086 -0.6559  0.6933 -0.7863
 9991TIP3    H251389   3.114   6.458   5.187  0.5218  0.1867  0.2377
 9992TIP3   OH251390   5.515   3.920   0.195 -0.0042  0.2189  0.4608
 9992TIP3    H151391   5.527   3.833   0.157 -2.2777 -0.1893  0.4999
 9992TIP3    H251392   5.524   3.980   0.121 -1.6947 -0.3608 -0.2761
 9993TIP3   OH251393   5.909   4.272  14.020  0.4657 -0.3148 -0.1140
 9993TIP3    H151394   5.915   4.229  13.935  0.1246 -0.7199  0.0615
 9993TIP3    H251395   5.880   4.361  14.001  0.4411 -0.3897 -0.4235
 9994TIP3   OH251396   0.097   6.684  16.108  0.8027  0.0451  0.3586
 9994TIP3    H151397   0.005   6.691  16.083  0.9600  0.1968 -0.2001
 9994TIP3    H251398   0.100   6.712  16.199  0.6419  2.4440 -0.3090
 9995TIP3   OH251399   6.112   5.550   0.580 -0.7705  0.2244  0.3592
 9995TIP3    H151400   6.168   5.607   0.632 -0.2216  1.0702 -1.1086
 9995TIP3    H251401   6.134   5.570   0.489 -2.0587 -0.8366 -0.2295
 9996TIP3   OH251402   5.540   4.430  17.212 -0.4792  0.5133  0.0031
 9996TIP3    H151403   5.504   4.407  17.298  0.2265 -1.5881 -0.2146
 9996TIP3    H251404   5.614   4.371  17.200  0.1849  1.5865 -1.5581
 9997TIP3   OH251405   0.682   6.046  12.961  0.9769  0.1543 -0.1925
 9997TIP3    H151406   0.727   6.009  12.886  0.3923 -1.3066  0.1490
 9997TIP3    H251407   0.595   6.005  12.960  0.0222  2.0452 -0.1819
 9998TIP3   OH251408   4.932   1.839   4.012  0.6468 -0.2506  0.6921
 9998TIP3    H151409   4.901   1.929   4.018 -1.2245 -0.6342 -1.4127
 9998TIP3    H251410   5.027   1.846   4.006  0.4519  1.8036 -1.5455
 9999TIP3   OH251411   0.703   3.136   4.147  0.1410  0.4276  0.5397
 9999TIP3    H151412   0.766   3.125   4.076 -0.5041 -2.1266  0.2505
 9999TIP3    H251413   0.625   3.173   4.104  1.0655  2.7491  0.7391
10000TIP3   OH251414   5.711   2.756   6.097  0.5648 -0.0018 -0.3872
10000TIP3    H151415   5.656   2.757   6.175  1.5995  0.6400  0.3585
10000TIP3    H251416   5.652   2.731   6.026 -0.4312 -0.4151  0.5689
10001TIP3   OH251417   5.925   3.669   4.218  0.6307  0.2605 -0.4684
10001TIP3    H151418   5.942   3.762   4.237 -0.0123  0.8571 -2.4608
10001TIP3    H251419   6.012   3.630   4.207  0.9023  0.7183  0.0249
10002TIP3   OH251420   2.639   4.566  14.747  0.0081 -0.1033  0.5674
10002TIP3    H151421   2.569   4.509  14.780  0.3475 -0.6758  0.3283
10002TIP3    H251422   2.628   4.648  14.795 -1.2682  0.0750  0.0118
10003TIP3   OH251423   4.556   2.687  13.544  0.4543 -0.0126  0.4479
10003TIP3    H151424   4.468   2.694  13.582 -0.2863  0.6888 -1.2455
10003TIP3    H251425   4.612   2.735  13.604 -0.4785  0.2146  1.1578
10004TIP3   OH251426   0.394   3.437   4.522 -0.4625 -0.1788  0.8861
10004TIP3    H151427   0.477   3.476   4.549 -0.4249  1.1488 -0.9974
10004TIP3    H251428   0.408   3.410   4.432 -1.0922 -2.9827  1.5177
10005TIP3   OH251429   6.270   1.808   4.318  0.0687  0.1346  0.0829
10005TIP3    H151430   6.206   1.811   4.247 -0.3720 -0.6644  0.4313
10005TIP3    H251431   6.272   1.716   4.344  0.7172  0.3079  0.6593
10006TIP3   OH251432   2.180   4.729   1.313  0.6813  0.2079  0.1951
10006TIP3    H151433   2.234   4.665   1.360 -0.7252 -1.1889 -0.0203
10006TIP3    H251434   2.218   4.733   1.226  0.7621 -0.3806  0.2000
10007TIP3   OH251435   6.219   5.948   5.194  0.4648  0.2024  0.3239
10007TIP3    H151436   6.125   5.966   5.200  0.5279  1.0023 -0.7652
10007TIP3    H251437   6.225   5.853   5.193 -0.2498  0.1328  1.4288
10008TIP3   OH251438   4.515   0.299   5.210  0.0815 -0.3111  0.8265
10008TIP3    H151439   4.483   0.210   5.227 -2.7289  0.7770  1.9403
10008TIP3    H251440   4.590   0.288   5.152 -0.8634 -3.3350  0.0355
10009TIP3   OH251441   4.580   0.671  15.933 -0.5105  0.6722 -0.2244
10009TIP3    H151442   4.629   0.589  15.940 -0.2080  1.0243  3.5666
10009TIP3    H251443   4.516   0.655  15.864  1.1252 -1.8492 -1.2937
10010TIP3   OH251444   0.089   2.424  13.720  0.2047 -0.0041 -0.7112
10010TIP3    H151445   0.142   2.344  13.719  1.1423  0.5995 -1.6889
10010TIP3    H251446   0.145   2.490  13.680 -0.1264  1.4437  1.0653
10011TIP3   OH251447   3.483   5.305  13.259 -0.7203  0.6237 -0.5008
10011TIP3    H151448   3.435   5.261  13.188  0.5214 -0.2547 -0.8325
10011TIP3    H251449   3.416   5.354  13.306 -1.8372 -0.0397 -1.3399
10012TIP3   OH251450   6.495   0.937  12.066 -0.0048  0.3550 -0.1027
10012TIP3    H151451   6.555   0.912  12.135 -0.2253 -1.5743 -0.5620
10012TIP3    H251452   6.444   0.858  12.048  0.1501  0.7182 -2.5519
10013TIP3   OH251453   5.774   2.469   6.613 -0.5378  0.1590  0.2943
10013TIP3    H151454   5.823   2.515   6.682 -0.0324 -1.3401  0.9752
10013TIP3    H251455   5.682   2.480   6.639 -0.5608  1.9928 -0.3648
10014TIP3   OH251456   0.205   6.024   0.074  0.1112  0.2443  0.4639
10014TIP3    H151457   0.162   5.956   0.023  0.5554  0.5786 -0.3741
10014TIP3    H251458   0.298   6.013   0.055  0.1550  1.3479 -0.0298
10015TIP3   OH251459   0.934   2.348   2.966  0.2612 -0.0657  0.7227
10015TIP3    H151460   0.930   2.259   2.930 -2.0405  0.1059  0.4273
10015TIP3    H251461   0.992   2.395   2.906 -3.4571  0.2413 -3.1391
10016TIP3   OH251462   6.637   5.050  16.293  0.1781  0.3287 -0.0066
10016TIP3    H151463   6.623   5.006  16.377 -1.8077 -1.3147 -1.1129
10016TIP3    H251464   6.730   5.038  16.275  0.0523 -2.0024  0.5552
10017TIP3   OH251465   3.590   4.098  15.441  0.7360 -0.3101 -0.5059
10017TIP3    H151466   3.608   4.029  15.376  1.7736 -0.2307 -0.3323
10017TIP3    H251467   3.652   4.079  15.512 -1.2079 -1.1350  1.0572
10018TIP3   OH251468   0.835   4.801   5.152 -0.1917  0.0628 -0.1485
10018TIP3    H151469   0.764   4.821   5.213 -1.2140 -1.3094 -0.8304
10018TIP3    H251470   0.909   4.777   5.209 -1.0333 -0.9135  0.5793
10019TIP3   OH251471   0.892   5.741   6.219  0.0104 -0.3408  0.7516
10019TIP3    H151472   0.799   5.755   6.236 -0.2164 -1.0320  0.1443
10019TIP3    H251473   0.927   5.828   6.200 -0.5060 -0.0762  1.0002
10020TIP3   OH251474   1.463   0.385  14.846 -0.3385 -0.7061  0.7202
10020TIP3    H151475   1.446   0.398  14.752  0.4794  0.2625  0.6832
10020TIP3    H251476   1.386   0.338  14.878 -0.1990 -1.9087 -0.6233
10021TIP3   OH251477   0.525   3.508   3.325 -0.0925  0.1630  0.2261
10021TIP3    H151478   0.441   3.490   3.282 -0.0707  1.4077 -0.3772
10021TIP3    H251479   0.591   3.485   3.260  0.0135 -0.1796  0.4546
10022TIP3   OH251480   0.695   0.513   1.960 -0.0506  0.2619  0.5352
10022TIP3    H151481   0.620   0.454   1.971 -0.5999  0.5151 -1.4300
10022TIP3    H251482   0.709   0.551   2.047 -0.6293 -1.6251  1.5057
10023TIP3   OH251483   1.990   5.924  10.593  0.1694  0.4463 -0.4823
10023TIP3    H151484   2.024   5.988  10.656 -1.4533  1.2197 -0.3337
10023TIP3    H251485   1.953   5.855  10.648 -1.1057  1.0467 -0.5394
10024TIP3   OH251486   5.655   2.315   6.069 -0.5582 -0.1245 -0.2000
10024TIP3    H151487   5.661   2.269   5.985  1.0620  0.2798 -0.3477
10024TIP3    H251488   5.647   2.245   6.134  0.3923 -0.5716 -0.5392
10025TIP3   OH251489   2.509   3.083  13.772  0.5850  0.2145 -0.1358
10025TIP3    H151490   2.589   3.107  13.820  1.4945 -1.8726 -0.4962
10025TIP3    H251491   2.506   2.988  13.777 -0.8828  0.1296 -1.7429
10026TIP3   OH251492   2.979   2.245   5.671 -0.0378  0.7615 -0.7906
10026TIP3    H151493   2.927   2.309   5.622 -0.5955  0.9779  0.0638
10026TIP3    H251494   3.001   2.289   5.753 -2.3476 -0.8329  0.8252
10027TIP3   OH251495   4.783   4.395   4.303  0.3281 -0.2843 -0.3695
10027TIP3    H151496   4.852   4.458   4.280  1.1866 -1.0921 -0.0631
10027TIP3    H251497   4.763   4.414   4.395  0.8571 -0.6929 -0.1641
10028TIP3   OH251498   6.654   4.444  12.002 -0.1128  0.7581 -0.4200
10028TIP3    H151499   6.662   4.494  12.083 -0.1165  0.2588 -0.1117
10028TIP3    H251500   6.699   4.498  11.937 -1.9251  2.2082 -0.5676
10029TIP3   OH251501   3.582   6.422   3.268 -0.3490 -0.1611  0.3010
10029TIP3    H151502   3.524   6.419   3.193  0.5017 -1.5330 -0.3504
10029TIP3    H251503   3.622   6.510   3.264 -1.1835  0.2068 -0.1512
10030TIP3   OH251504   3.468   5.884  12.204 -0.2346 -0.5617 -0.6086
10030TIP3    H151505   3.402   5.945  12.170  0.5252 -0.3618 -1.7648
10030TIP3    H251506   3.551   5.929  12.192  0.2113 -1.2408 -0.1240
10031TIP3   OH251507   0.291   0.012  15.916 -0.1916 -0.0384 -0.2093
10031TIP3    H151508   0.223   0.023  15.982 -0.4819  0.2687 -0.5577
10031TIP3    H251509   0.315  -0.081  15.921 -0.1398  0.0019  0.3906
10032TIP3   OH251510   3.614   2.186  10.967 -0.3396  0.0388  0.1293
10032TIP3    H151511   3.541   2.235  10.930  0.2483  2.0448  1.5026
10032TIP3    H251512   3.573   2.114  11.014 -1.3968  0.7684  0.3592
10033TIP3   OH251513   4.580   5.653  12.767  0.1876  0.3200  0.0708
10033TIP3    H151514   4.629   5.572  12.749 -2.8222 -1.4176 -0.9398
10033TIP3    H251515   4.603   5.712  12.695 -0.0719 -0.9003 -1.0454
10034TIP3   OH251516   0.855   5.430   1.593 -0.8859 -0.9937 -0.1278
10034TIP3    H151517   0.856   5.472   1.679 -0.3670  0.5014 -0.8140
10034TIP3    H251518   0.905   5.349   1.605  0.9470  0.1673  0.5374
10035TIP3   OH251519   2.249   5.315  17.088  0.0687  0.2062 -0.1209
10035TIP3    H151520   2.173   5.307  17.030  0.1062 -1.6457  0.0500
10035TIP3    H251521   2.315   5.358  17.033 -0.3515 -0.2437 -1.0120
10036TIP3   OH251522   1.822   0.321  10.894  0.3832  0.2451 -0.3366
10036TIP3    H151523   1.853   0.232  10.880  0.6024  0.3323 -0.4101
10036TIP3    H251524   1.812   0.357  10.806 -0.7753 -0.0672 -0.3469
10037TIP3   OH251525   6.290   5.571   4.792  0.6008  0.1339 -1.4180
10037TIP3    H151526   6.257   5.503   4.733 -2.1625  0.3672 -0.2940
10037TIP3    H251527   6.222   5.638   4.791  0.0580 -0.1270  2.4393
10038TIP3   OH251528   1.025   3.399  13.144  0.7134 -0.4372  0.1640
10038TIP3    H151529   0.932   3.379  13.137 -0.1603  3.1517 -0.4261
10038TIP3    H251530   1.050   3.372  13.232 -1.7589  1.3591  1.5190
10039TIP3   OH251531   4.538   6.081   3.919 -0.6323 -0.0685  0.2253
10039TIP3    H151532   4.550   6.156   3.976 -0.0434  0.4048 -0.5002
10039TIP3    H251533   4.480   6.112   3.849 -1.9357 -0.8487  0.9226
10040TIP3   OH251534   5.543   0.358   1.784 -0.2724 -0.1099  0.0517
10040TIP3    H151535   5.631   0.321   1.781  0.1343  0.8773 -1.4127
10040TIP3    H251536   5.539   0.403   1.869  1.2515  1.1846 -0.5046
10041TIP3   OH251537   4.167   5.714  11.555 -0.1244 -0.3343 -0.2054
10041TIP3    H151538   4.117   5.742  11.478  0.1148  0.3052 -0.1343
10041TIP3    H251539   4.100   5.680  11.615 -0.1227 -2.8657 -1.4981
10042TIP3   OH251540   4.865   5.476  16.101  0.0750 -0.1649  0.3865
10042TIP3    H151541   4.896   5.556  16.060  1.4233 -0.7363  0.2175
10042TIP3    H251542   4.920   5.467  16.180 -1.3371  0.0489  1.4285
10043TIP3   OH251543   4.575   4.901  15.033 -0.2849  0.0193  0.4090
10043TIP3    H151544   4.561   4.918  15.126 -1.7912  3.3425 -0.2740
10043TIP3    H251545   4.487   4.890  14.997  0.3189 -2.1426 -0.5684
10044TIP3   OH251546   4.959   4.557  11.198  0.5524  0.5884 -0.5965
10044TIP3    H151547   5.014   4.482  11.175  0.6569 -0.0547  1.5448
10044TIP3    H251548   4.981   4.576  11.289  0.7915  3.4771 -1.1543
10045TIP3   OH251549   2.905   0.220   4.046 -0.1461 -0.1418 -0.4129
10045TIP3    H151550   2.985   0.214   3.993  0.5497  1.6829  0.3709
10045TIP3    H251551   2.936   0.232   4.135 -1.3070 -0.2212  0.0188
10046TIP3   OH251552   0.529   5.276   0.761 -0.4276  0.4900 -0.7584
10046TIP3    H151553   0.484   5.215   0.703 -0.6946  0.3805 -0.4396
10046TIP3    H251554   0.553   5.222   0.837 -0.3926  0.7135 -0.6121
10047TIP3   OH251555   3.492   1.406   0.172 -0.5863 -0.4060 -0.4839
10047TIP3    H151556   3.533   1.362   0.097 -0.3594 -1.4185  0.2163
10047TIP3    H251557   3.473   1.335   0.233  1.2647  0.6009  1.3986
10048TIP3   OH251558   2.133   2.023   0.140  0.2441 -0.1373 -0.7099
10048TIP3    H151559   2.166   1.944   0.097  0.9074 -0.4979  0.4182
10048TIP3    H251560   2.208   2.083   0.139  0.6634 -0.5824  0.9557
10049TIP3   OH251561   5.211   0.747   1.881 -0.3318  0.7899  0.2371
10049TIP3    H151562   5.147   0.702   1.937  0.1077 -0.4813 -0.2499
10049TIP3    H251563   5.198   0.709   1.794  1.6255 -0.1320  0.2844
10050TIP3   OH251564   5.172   5.281   0.199  0.1274 -0.0667 -0.6509
10050TIP3    H151565   5.181   5.323   0.113 -0.8470  0.7389 -0.3832
10050TIP3    H251566   5.250   5.307   0.247  0.8091 -0.7337 -1.3668
10051TIP3   OH251567   5.305   3.893  12.206  0.1276  0.0926  0.4483
10051TIP3    H151568   5.254   3.843  12.142  0.8334 -0.3866  0.2465
10051TIP3    H251569   5.312   3.835  12.282  1.2432 -0.2787  0.0836
10052TIP3   OH251570   2.469   1.068   3.403  0.0973 -0.1652  0.1077
10052TIP3    H151571   2.546   1.065   3.460 -0.3828 -0.7737  0.7389
10052TIP3    H251572   2.453   0.977   3.380 -0.0371  0.0256 -0.5749
10053TIP3   OH251573   0.724   6.701   0.892  0.9757 -0.3416 -0.7198
10053TIP3    H151574   0.770   6.748   0.823  1.1879 -1.6225 -1.4864
10053TIP3    H251575   0.651   6.758   0.916  1.1319  0.3031 -1.7234
10054TIP3   OH251576   5.555   1.039  12.025  0.2511  0.1408 -0.3952
10054TIP3    H151577   5.553   1.101  11.952  2.1921  0.8256  0.0858
10054TIP3    H251578   5.584   0.957  11.986  2.5245  0.8222 -0.2385
10055TIP3   OH251579   1.999   4.048   1.066 -0.5381 -0.5307  0.4432
10055TIP3    H151580   2.029   4.010   0.983  0.5025 -0.1270  0.6108
10055TIP3    H251581   1.950   4.126   1.040 -0.1313 -0.3488  0.1930
10056TIP3   OH251582   6.435   3.591  16.900 -0.2669  0.3426  0.0480
10056TIP3    H151583   6.488   3.608  16.822  0.2394  1.0823  0.5395
10056TIP3    H251584   6.465   3.656  16.964 -0.6149 -0.2995  0.8899
10057TIP3   OH251585   3.622   1.689  11.662 -0.3895  0.5285  0.5794
10057TIP3    H151586   3.647   1.753  11.728 -2.3661  1.1599  0.7749
10057TIP3    H251587   3.539   1.653  11.692 -1.6133  1.1743 -1.7371
10058TIP3   OH251588   0.691   3.938  14.851 -0.0310 -0.0804 -0.3727
10058TIP3    H151589   0.610   3.979  14.881  0.5099  0.1543  0.8075
10058TIP3    H251590   0.663   3.857  14.808 -0.9810  0.6339 -1.1512
10059TIP3   OH251591   5.831   2.896  13.522 -0.9428  0.0877  0.2889
10059TIP3    H151592   5.868   2.832  13.581 -1.0685 -0.7280 -0.4911
10059TIP3    H251593   5.738   2.898  13.543 -0.7137  1.1833  1.3612
10060TIP3   OH251594   5.381   1.254  13.056  0.1927 -0.4129 -0.2733
10060TIP3    H151595   5.361   1.160  13.058 -0.7491 -0.2506  2.0878
10060TIP3    H251596   5.304   1.293  13.014  0.7900 -0.6826 -1.6899
10061TIP3   OH251597   6.518   1.304   2.500  0.5365  0.5990  0.0410
10061TIP3    H151598   6.489   1.243   2.432  0.2141  0.1896  0.5366
10061TIP3    H251599   6.443   1.362   2.514  0.8621  1.1654 -0.4721
10062TIP3   OH251600   5.988   6.014   3.664 -0.2358 -0.3330  0.1816
10062TIP3    H151601   6.019   5.930   3.696 -1.8761 -0.7424  0.7725
10062TIP3    H251602   6.035   6.079   3.716  1.7319 -0.7955 -0.8962
10063TIP3   OH251603   5.719   4.623   1.270  0.3742  0.0661  0.4674
10063TIP3    H151604   5.777   4.623   1.194  2.2219 -0.0003  1.7933
10063TIP3    H251605   5.633   4.645   1.235  1.7079  3.1690 -1.2605
10064TIP3   OH251606   4.902   6.061  10.811 -0.5285 -0.5253 -0.2493
10064TIP3    H151607   4.892   6.122  10.738  1.2123 -0.4562 -0.4640
10064TIP3    H251608   4.981   6.011  10.790 -0.1197 -0.6541  1.4624
10065TIP3   OH251609   1.978   2.644   2.697  0.3832 -0.3561 -0.0741
10065TIP3    H151610   1.886   2.634   2.720 -0.0290  2.6841 -0.0061
10065TIP3    H251611   1.983   2.622   2.604  0.3863 -3.9812  0.6140
10066TIP3   OH251612   2.764   1.947  15.335  0.5790  0.1038 -0.5662
10066TIP3    H151613   2.724   1.966  15.420  2.0864  1.0456 -0.0383
10066TIP3    H251614   2.689   1.934  15.276 -0.5689  2.5780  0.2047
10067TIP3   OH251615   0.602   5.710  15.319  0.6136  0.2977  0.7531
10067TIP3    H151616   0.641   5.705  15.232 -0.4318  3.0881 -0.0018
10067TIP3    H251617   0.609   5.621  15.354 -0.3255 -1.3720 -2.7864
10068TIP3   OH251618   3.240   2.256   4.253  0.3962  0.0815  0.1258
10068TIP3    H151619   3.159   2.307   4.253 -1.2826 -2.3824  1.1034
10068TIP3    H251620   3.239   2.208   4.170  0.6992 -0.1830  0.2719
10069TIP3   OH251621   5.268   3.606  14.654 -0.1196  0.4161 -0.3155
10069TIP3    H151622   5.226   3.598  14.740  0.4056  2.4616  0.1804
10069TIP3    H251623   5.207   3.657  14.602 -0.8462 -1.5682 -1.5017
10070TIP3   OH251624   3.130   4.635  16.660 -0.2255  0.3762  0.0406
10070TIP3    H151625   3.157   4.656  16.571  0.3572 -0.3813  0.0381
10070TIP3    H251626   3.134   4.719  16.706  1.0946  0.4761 -0.2275
10071TIP3   OH251627   0.926   6.291   3.314 -0.2024  0.1356  0.2474
10071TIP3    H151628   0.915   6.203   3.276  1.2216  0.0075  0.0926
10071TIP3    H251629   0.953   6.275   3.404  0.2123  0.4052  0.1727
10072TIP3   OH251630   0.234   5.335   5.320  0.1584 -0.1017  0.3921
10072TIP3    H151631   0.169   5.362   5.385  0.0044  0.7750 -0.0929
10072TIP3    H251632   0.182   5.292   5.251  0.0211  0.9061 -0.1593
10073TIP3   OH251633   2.179   2.297   1.974  0.4567 -0.0007 -0.3479
10073TIP3    H151634   2.111   2.269   1.913 -0.6182  1.2819  0.1880
10073TIP3    H251635   2.135   2.297   2.060  0.4454  2.7958 -0.2476
10074TIP3   OH251636   6.516   4.789  13.172  0.2599  0.6276  0.5625
10074TIP3    H151637   6.467   4.711  13.150  0.4776  1.1397 -2.0726
10074TIP3    H251638   6.602   4.757  13.200  0.5605 -0.1270 -1.0972
10075TIP3   OH251639   6.540   1.894  14.995 -0.5043  0.0784 -0.3729
10075TIP3    H151640   6.502   1.813  15.029  0.4029 -0.3803 -0.4269
10075TIP3    H251641   6.465   1.944  14.963 -1.2026 -0.2133  0.7461
10076TIP3   OH251642   0.504   3.241   2.189 -0.0571  0.0279  0.2968
10076TIP3    H151643   0.565   3.187   2.138  0.9775  1.5702 -0.1630
10076TIP3    H251644   0.446   3.178   2.231  1.0743 -1.4382 -0.2495
10077TIP3   OH251645   1.622   4.183  16.194 -0.5807  0.2728  0.0483
10077TIP3    H151646   1.654   4.119  16.258 -1.0363  0.2360  0.2477
10077TIP3    H251647   1.606   4.132  16.115 -0.3577  0.2528  0.0165
10078TIP3   OH251648   4.831   0.207   0.172 -0.4530  0.3086  0.1423
10078TIP3    H151649   4.917   0.193   0.212 -0.3472 -1.1304 -0.5545
10078TIP3    H251650   4.849   0.257   0.092 -0.2069 -0.3356 -0.2105
10079TIP3   OH251651   5.951   1.545   3.633  0.5887 -0.1174  0.0036
10079TIP3    H151652   6.045   1.540   3.613  0.6580  0.1102  0.2697
10079TIP3    H251653   5.918   1.616   3.578  0.6382  0.0187  0.1466
10080TIP3   OH251654   5.493   6.750  13.957  0.2510 -0.1167  0.1357
10080TIP3    H151655   5.502   6.845  13.962  0.5896 -0.2096  1.6279
10080TIP3    H251656   5.437   6.736  13.880 -0.8764  1.3560  0.6237
10081TIP3   OH251657   4.058   0.603   3.792 -0.3334  0.2833 -0.3579
10081TIP3    H151658   4.028   0.537   3.729 -0.7729  0.3197 -0.1885
10081TIP3    H251659   4.144   0.571   3.820  0.0699  0.4899 -1.2967
10082TIP3   OH251660   5.818   2.614   4.789 -0.4664 -0.3306  0.6484
10082TIP3    H151661   5.872   2.553   4.840 -1.3487 -1.5643  0.1456
10082TIP3    H251662   5.881   2.663   4.737  0.3311 -0.1819  1.7135
10083TIP3   OH251663   6.650   5.052   3.266  0.0759 -0.2073 -0.4017
10083TIP3    H151664   6.660   5.147   3.274  1.0475 -0.3162 -0.2342
10083TIP3    H251665   6.739   5.019   3.256 -0.2901 -1.0677 -0.9229
10084TIP3   OH251666   1.578   4.111   0.866 -0.2881 -0.3297 -0.3312
10084TIP3    H151667   1.583   4.084   0.775  0.1788  0.2299 -0.4787
10084TIP3    H251668   1.537   4.037   0.911  0.6515 -1.1470 -0.7727
10085TIP3   OH251669   4.109   5.640   2.131 -0.4694 -0.2034  0.2309
10085TIP3    H151670   4.202   5.619   2.117 -0.3604  0.5568 -0.2420
10085TIP3    H251671   4.062   5.565   2.096 -0.0554 -0.1363 -0.4946
10086TIP3   OH251672   0.897   5.831   2.701  0.2944 -0.5193  0.4242
10086TIP3    H151673   0.975   5.777   2.690 -0.1859 -0.9143 -1.3429
10086TIP3    H251674   0.848   5.790   2.772  1.5188 -0.4521  1.3281
10087TIP3   OH251675   1.978   5.155  16.501 -0.0647 -0.5719  0.0823
10087TIP3    H151676   2.067   5.124  16.485  0.1173 -1.0879  1.8907
10087TIP3    H251677   1.989   5.234  16.554 -0.6226  1.3216 -2.4217
10088TIP3   OH251678   0.646   2.692  16.091  0.2880 -0.1771 -0.6738
10088TIP3    H151679   0.629   2.638  16.168  0.5995 -0.0173 -0.4935
10088TIP3    H251680   0.722   2.746  16.114  0.8937 -0.6985 -1.3794
10089TIP3   OH251681   0.843   2.280   2.379 -0.3583  0.2767  0.0448
10089TIP3    H151682   0.755   2.278   2.341 -0.1432 -1.0726 -0.4739
10089TIP3    H251683   0.864   2.372   2.387 -1.6031  0.6178 -0.3479
10090TIP3   OH251684   1.537   6.707   6.182  0.1859 -0.2051  0.0254
10090TIP3    H151685   1.481   6.765   6.130  0.2063 -0.5300 -0.3671
10090TIP3    H251686   1.546   6.628   6.128 -1.1590 -1.2412  1.2226
10091TIP3   OH251687   1.702   1.726  14.219  0.2646  0.0929 -0.5879
10091TIP3    H151688   1.755   1.790  14.266 -0.5507  0.2462  0.1421
10091TIP3    H251689   1.689   1.655  14.282 -0.8937  0.3302 -0.5284
10092TIP3   OH251690   3.134   4.030  17.270 -0.0345  0.4617  0.2159
10092TIP3    H151691   3.229   4.016  17.275 -0.1714 -0.6339  0.0409
10092TIP3    H251692   3.115   4.092  17.340  1.0244  1.9506 -0.7595
10093TIP3   OH251693   5.839   6.427  13.828 -0.7270  0.4740  0.5897
10093TIP3    H151694   5.846   6.515  13.791 -0.5861 -0.2375 -1.1552
10093TIP3    H251695   5.924   6.412  13.869  0.0976  0.3037 -1.1111
10094TIP3   OH251696   5.262   1.894  14.349 -0.3064  0.7201 -0.4454
10094TIP3    H151697   5.278   1.975  14.300  0.5172  0.8604  0.0403
10094TIP3    H251698   5.244   1.828  14.281  1.8099  0.6768 -1.0238
10095TIP3   OH251699   0.002   1.237  11.423  0.3972  0.2889  0.3070
10095TIP3    H151700   0.044   1.293  11.487  2.6895  0.6659 -1.3881
10095TIP3    H251701  -0.001   1.151  11.465 -0.0096  0.9315  1.6425
10096TIP3   OH251702   1.200   2.163   0.936 -0.5939 -0.1333 -0.9252
10096TIP3    H151703   1.217   2.237   0.995 -1.1174  0.0694 -1.0250
10096TIP3    H251704   1.287   2.125   0.919 -0.5015 -0.7197  0.6598
10097TIP3   OH251705   3.681   1.026  15.937 -0.2510  0.1191 -0.5209
10097TIP3    H151706   3.671   0.955  16.000  1.0905  0.2868 -0.0713
10097TIP3    H251707   3.769   1.060  15.954 -1.2382  2.6124  0.0256
10098TIP3   OH251708   0.162   3.557   0.168 -0.2870  0.4701 -0.0964
10098TIP3    H151709   0.163   3.507   0.250 -3.4747  0.7742  0.2552
10098TIP3    H251710   0.145   3.491   0.101 -0.2795  0.5509 -0.1780
10099TIP3   OH251711   6.261   5.130  16.720  0.0515 -0.1437  0.3900
10099TIP3    H151712   6.347   5.108  16.756 -0.2762 -1.3093  0.4966
10099TIP3    H251713   6.279   5.195  16.652  1.2541 -1.7876 -0.9456
10100TIP3   OH251714   2.871   0.110  13.419 -0.3787 -0.2915  0.1897
10100TIP3    H151715   2.957   0.102  13.459  0.3132 -0.1701 -1.1939
10100TIP3    H251716   2.817   0.152  13.486  1.2314  1.7241  0.3279
10101TIP3   OH251717   4.343   4.761   3.585 -0.3487  0.5102  0.9145
10101TIP3    H151718   4.313   4.697   3.649  0.8544 -0.0362  0.9592
10101TIP3    H251719   4.391   4.710   3.520 -0.4367  1.2157  0.2816
10102TIP3   OH251720   3.794   1.930  15.967  0.2282 -0.6144 -0.0148
10102TIP3    H151721   3.875   1.932  15.915  0.1972 -1.5835 -0.1127
10102TIP3    H251722   3.823   1.916  16.057  0.2311  0.2616  0.1320
10103TIP3   OH251723   2.062   4.970  15.727  0.5065  0.4988  0.1970
10103TIP3    H151724   1.987   4.943  15.779 -0.3833  1.2759 -0.6640
10103TIP3    H251725   2.025   4.997  15.643  2.0136 -2.6771 -1.7173
10104TIP3   OH251726   0.228   1.585   4.827 -0.5313 -0.2465 -0.1852
10104TIP3    H151727   0.286   1.568   4.902  0.7112 -0.9222 -1.2471
10104TIP3    H251728   0.151   1.531   4.843 -0.0734 -0.7487  0.3841
10105TIP3   OH251729   1.372   3.523   5.443  0.0259  0.2548  0.4703
10105TIP3    H151730   1.295   3.500   5.391  0.0929  0.1837  0.4046
10105TIP3    H251731   1.440   3.462   5.415 -0.3458 -0.7505  1.6633
10106TIP3   OH251732   3.828   0.523  12.115 -0.0227  0.2487 -0.1790
10106TIP3    H151733   3.874   0.501  12.034  2.4554  0.3406  1.1197
10106TIP3    H251734   3.833   0.618  12.121  0.4114  0.1951  0.4049
10107TIP3   OH251735   4.838   0.605  16.444  0.4319  0.3208 -0.0892
10107TIP3    H151736   4.760   0.563  16.408  1.2457 -0.4619 -1.0190
10107TIP3    H251737   4.852   0.682  16.389  0.0674  0.7149  0.3636
10108TIP3   OH251738   6.110   6.230   0.218  0.0022 -0.7312 -0.4005
10108TIP3    H151739   6.016   6.238   0.233  0.0512 -0.5516 -0.1862
10108TIP3    H251740   6.117   6.213   0.124 -0.2683 -1.2483 -0.3331
10109TIP3   OH251741   5.453   4.359  13.320  0.0343 -0.0146  0.2180
10109TIP3    H151742   5.411   4.443  13.301 -0.1992  0.0977  1.1985
10109TIP3    H251743   5.439   4.307  13.241  0.3413  0.9263 -0.4740
10110TIP3   OH251744   2.666   4.867   4.813 -0.2451 -0.5811 -0.1672
10110TIP3    H151745   2.688   4.893   4.723  0.8633 -0.5992  0.0936
10110TIP3    H251746   2.658   4.772   4.809 -1.6232 -0.4705 -0.5403
10111TIP3   OH251747   4.012   6.439   4.925 -0.1394  0.2429 -0.1185
10111TIP3    H151748   3.963   6.377   4.979  2.0307 -2.0883 -0.6107
10111TIP3    H251749   4.062   6.491   4.988  1.4103 -1.6048  0.2605
10112TIP3   OH251750   6.072   2.935   4.582  0.1418  0.4351 -0.0028
10112TIP3    H151751   6.083   2.946   4.676  1.4511 -1.9309  0.1874
10112TIP3    H251752   6.038   2.847   4.572  0.7109  0.3815 -1.7858
10113TIP3   OH251753   1.993   1.872  14.250 -0.0246  0.1862 -0.0030
10113TIP3    H151754   1.994   1.777  14.261 -0.1374  0.0879 -0.7727
10113TIP3    H251755   2.006   1.885  14.156 -0.0490  0.9300  0.0934
10114TIP3   OH251756   0.794   5.073  13.872 -0.1540 -0.4905  0.1743
10114TIP3    H151757   0.875   5.107  13.835 -0.0728 -1.7043 -0.8652
10114TIP3    H251758   0.794   5.102  13.963  0.7179  0.7633 -0.2020
10115TIP3   OH251759   0.826   5.990  14.112 -0.0504 -0.1289 -0.0798
10115TIP3    H151760   0.807   5.898  14.095 -1.4732  0.3623 -1.4360
10115TIP3    H251761   0.744   6.035  14.091  0.8387  1.5234 -0.1447
10116TIP3   OH251762   3.477   4.340  11.892  0.0166  0.1411  0.0627
10116TIP3    H151763   3.426   4.396  11.950 -0.7927 -0.5220  0.0026
10116TIP3    H251764   3.516   4.274  11.949 -1.5805 -1.1126 -0.2249
10117TIP3   OH251765   0.711   4.283   5.161 -0.4408 -0.7714 -0.0396
10117TIP3    H151766   0.650   4.254   5.093  1.7899 -1.5421 -1.8236
10117TIP3    H251767   0.659   4.341   5.216 -2.0037  1.3933 -3.4239
10118TIP3   OH251768   4.566   4.536  13.020 -0.1676  0.1766 -0.2003
10118TIP3    H151769   4.558   4.441  13.013  1.6723  0.0860 -1.8092
10118TIP3    H251770   4.637   4.550  13.082 -1.0713  0.5714  0.7915
10119TIP3   OH251771   0.039   5.718   4.259 -0.6470  0.3810 -0.3941
10119TIP3    H151772   0.041   5.625   4.239  0.0401  0.3023 -0.0003
10119TIP3    H251773  -0.017   5.726   4.336  0.1765  0.1472  0.2458
10120TIP3   OH251774   2.992   6.122   6.601 -0.3718 -0.3394 -0.1552
10120TIP3    H151775   2.968   6.205   6.559  1.4255  0.2557 -0.1046
10120TIP3    H251776   2.950   6.126   6.687 -1.4193 -0.1140 -0.6568
10121TIP3   OH251777   6.702   3.186  17.218  0.5609  0.7316  0.1341
10121TIP3    H151778   6.722   3.103  17.261  1.7911  1.9775  2.1079
10121TIP3    H251779   6.739   3.178  17.130 -1.2544 -1.5622 -0.5322
10122TIP3   OH251780   1.313   2.629  15.265 -0.3479 -0.1341 -0.1149
10122TIP3    H151781   1.353   2.640  15.351 -0.0609 -3.0437  0.2357
10122TIP3    H251782   1.241   2.692  15.263  0.9643  1.4869  1.3507
10123TIP3   OH251783   2.945   0.008  13.154 -0.4496 -0.6544  0.8684
10123TIP3    H151784   2.983   0.018  13.241 -2.1147 -1.1397  1.6673
10123TIP3    H251785   2.973  -0.079  13.125  0.3799 -0.3611  0.7506
10124TIP3   OH251786   5.945   0.772   1.749  0.8363 -0.1546  0.1602
10124TIP3    H151787   5.920   0.698   1.804 -2.8893 -0.6176 -1.8298
10124TIP3    H251788   5.918   0.746   1.661  0.0890  3.2464 -0.7457
10125TIP3   OH251789   1.536   2.271   1.933  0.3719 -0.4333  0.3044
10125TIP3    H151790   1.555   2.287   2.026  0.8118  0.2758  0.0994
10125TIP3    H251791   1.614   2.225   1.900  1.4601  1.7567 -0.3453
10126TIP3   OH251792   2.433   1.537  15.808 -0.1576 -0.3204 -0.2146
10126TIP3    H151793   2.468   1.613  15.855  0.5847  1.0599 -2.8307
10126TIP3    H251794   2.496   1.521  15.738 -1.8997 -1.3924 -1.6097
10127TIP3   OH251795   1.078   4.726  16.639 -0.0046 -0.5709 -0.0655
10127TIP3    H151796   1.023   4.657  16.603  1.4223 -1.0466 -1.4485
10127TIP3    H251797   1.146   4.680  16.687  0.7156 -0.1250 -0.6356
10128TIP3   OH251798   4.397   2.368  12.363  0.1680 -0.3805  0.3014
10128TIP3    H151799   4.385   2.274  12.375 -2.9073 -0.1854 -0.2704
10128TIP3    H251800   4.470   2.391  12.420  0.9227 -3.0663  0.5543
10129TIP3   OH251801   3.169   5.813  15.112 -0.1077  0.6697  0.2759
10129TIP3    H151802   3.126   5.884  15.065  0.6746  0.6887 -0.4262
10129TIP3    H251803   3.217   5.856  15.183 -0.5316  0.7288  0.5310
10130TIP3   OH251804   4.135   5.952  14.614 -0.4649  0.1250 -0.1702
10130TIP3    H151805   4.193   5.951  14.538 -0.0115  0.1067  0.1681
10130TIP3    H251806   4.047   5.953  14.577 -0.2494  0.2442 -0.6954
10131TIP3   OH251807   2.897   3.795   0.921  0.0164 -0.2458  0.0799
10131TIP3    H151808   2.923   3.734   0.853  0.1459 -0.3773  0.2485
10131TIP3    H251809   2.804   3.779   0.933 -0.2879  0.6366 -0.9469
10132TIP3   OH251810   3.295   1.811  10.624 -0.5529  0.5401 -0.2012
10132TIP3    H151811   3.272   1.789  10.533 -0.5800  1.1538 -0.3451
10132TIP3    H251812   3.260   1.739  10.675 -0.7282  0.2943 -0.6571
10133TIP3   OH251813   6.158   3.723   2.175  0.3178  0.2060 -0.0297
10133TIP3    H151814   6.250   3.697   2.176  0.1533 -0.7411 -2.4802
10133TIP3    H251815   6.160   3.818   2.167  1.1221  0.1258 -1.0112
10134TIP3   OH251816   5.691   0.485   2.710 -0.4187 -0.1589  0.1813
10134TIP3    H151817   5.731   0.402   2.736 -0.1554  0.6063  2.4743
10134TIP3    H251818   5.602   0.481   2.745  0.4858  1.6100  3.0554
10135TIP3   OH251819   2.178   2.977   2.489 -0.2528  0.1547 -0.4134
10135TIP3    H151820   2.250   2.914   2.496 -0.0063  0.5723  1.7614
10135TIP3    H251821   2.102   2.931   2.522 -0.1987  0.7679  0.6256
10136TIP3   OH251822   5.335   1.968  13.921 -0.1254  0.8108  0.2753
10136TIP3    H151823   5.308   1.878  13.899  0.9390  0.1351  1.5834
10136TIP3    H251824   5.399   1.991  13.854  0.9548 -0.1239  0.9559
10137TIP3   OH251825   4.233   5.435   0.242 -0.2913 -0.1199 -0.2873
10137TIP3    H151826   4.143   5.407   0.229  0.5486 -3.2463 -0.3324
10137TIP3    H251827   4.260   5.471   0.157 -0.5893 -2.3112 -1.4045
10138TIP3   OH251828   4.657   4.785   3.456 -0.1499 -0.6816 -0.0622
10138TIP3    H151829   4.686   4.745   3.374 -1.3882 -0.3892 -0.6699
10138TIP3    H251830   4.585   4.842   3.430  0.7472  0.9898  0.9626
10139TIP3   OH251831   1.251   5.903  11.304  0.4032 -0.1919  0.8139
10139TIP3    H151832   1.215   5.842  11.368 -1.8835 -0.4232 -0.5764
10139TIP3    H251833   1.217   5.871  11.220 -0.0573  2.4044 -0.0552
10140TIP3   OH251834   1.459   4.267  16.457  0.1674 -0.0004  0.0475
10140TIP3    H151835   1.475   4.277  16.551 -0.0573  1.2274 -0.0306
10140TIP3    H251836   1.364   4.253  16.451 -0.0688  1.4808 -0.0794
10141TIP3   OH251837   4.238   1.520  17.235 -0.4008 -0.2064 -0.5856
10141TIP3    H151838   4.201   1.457  17.298 -0.3689  0.9951  0.6891
10141TIP3    H251839   4.314   1.475  17.198  0.3968 -0.4807  1.2568
10142TIP3   OH251840   6.050   4.117  12.684 -0.0022  0.4858  0.1211
10142TIP3    H151841   6.075   4.134  12.775  1.2499  0.0801 -0.1231
10142TIP3    H251842   6.124   4.150  12.633 -0.5606  0.4331 -0.7377
10143TIP3   OH251843   6.677   3.490   6.141 -0.5694  0.3076  0.4109
10143TIP3    H151844   6.764   3.531   6.138 -0.4245 -0.0336 -0.1431
10143TIP3    H251845   6.675   3.445   6.225  0.6343 -1.4793 -0.4431
10144TIP3   OH251846   2.038   4.290  12.199 -0.3532 -1.0844 -0.6767
10144TIP3    H151847   2.077   4.299  12.112  0.1566 -1.2480 -0.4688
10144TIP3    H251848   1.946   4.317  12.187 -0.0854 -0.3153 -1.0832
10145TIP3   OH251849   6.317   6.131  12.879 -0.2073 -0.7400 -0.2787
10145TIP3    H151850   6.347   6.110  12.790 -1.2101  0.1025 -0.8370
10145TIP3    H251851   6.275   6.051  12.910  1.0168 -1.3641 -0.1606
10146TIP3   OH251852   6.692   1.316  16.218  0.3455  0.2516 -0.0458
10146TIP3    H151853   6.662   1.375  16.287 -1.4901 -0.1991 -0.4076
10146TIP3    H251854   6.735   1.374  16.154 -1.5747  1.2825 -0.4865
10147TIP3   OH251855   0.391   1.440  15.816  0.3723  0.0248 -0.0913
10147TIP3    H151856   0.314   1.396  15.852 -0.9886  2.1986 -0.1771
10147TIP3    H251857   0.463   1.412  15.872 -0.6974 -1.0491  0.8006
10148TIP3   OH251858   2.835   3.344  11.476 -0.0772  0.4870  0.0125
10148TIP3    H151859   2.837   3.258  11.518 -0.0354 -0.3495 -1.6052
10148TIP3    H251860   2.742   3.364  11.466 -0.0869  0.2998 -0.2609
10149TIP3   OH251861   4.849   6.066   3.383  0.1173 -0.3259 -0.1968
10149TIP3    H151862   4.831   6.037   3.293 -1.1629 -2.4329  0.6761
10149TIP3    H251863   4.937   6.103   3.379  0.6861 -1.7204 -2.0370
10150TIP3   OH251864   4.052   1.837  12.618  0.0681  0.4487 -0.8521
10150TIP3    H151865   3.992   1.773  12.654  1.1001  0.7559  1.5798
10150TIP3    H251866   3.997   1.898  12.569 -1.3907 -0.0747  0.0969
10151TIP3   OH251867   6.048   4.814   3.307  0.9128  0.0116  0.2976
10151TIP3    H151868   5.979   4.758   3.270 -0.7804  2.0296  0.2096
10151TIP3    H251869   6.075   4.770   3.387  0.1920 -1.3028 -0.1534
10152TIP3   OH251870   2.565   4.771  11.494 -0.1024  0.1334  0.0321
10152TIP3    H151871   2.629   4.797  11.561  2.1972 -1.4018 -1.4401
10152TIP3    H251872   2.545   4.852  11.447 -1.4607  1.1646  2.2050
10153TIP3   OH251873   5.221   6.732   3.193  0.3207  0.0054 -0.3960
10153TIP3    H151874   5.159   6.693   3.132 -0.6076  0.8550 -0.0331
10153TIP3    H251875   5.260   6.805   3.145  1.6705 -1.0124 -0.8994
10154TIP3   OH251876   1.031   2.076  12.159 -0.4102 -0.4360 -0.2244
10154TIP3    H151877   0.970   2.145  12.185 -2.6715 -2.5886  0.5405
10154TIP3    H251878   1.010   2.057  12.068  1.1802  0.7575 -0.8924
10155TIP3   OH251879   5.689   0.037  12.671  0.1363 -0.2957 -0.0900
10155TIP3    H151880   5.716  -0.012  12.749 -0.4291  0.3640  0.5288
10155TIP3    H251881   5.712   0.128  12.690 -0.4253 -0.0621 -0.5013
10156TIP3   OH251882   5.552   1.837  14.894  0.2822 -0.4841 -0.2154
10156TIP3    H151883   5.517   1.812  14.809  0.6181 -1.5913 -0.0449
10156TIP3    H251884   5.519   1.925  14.909  0.4186 -0.1802 -1.5993
10157TIP3   OH251885   2.914   2.456  16.055 -0.1392 -0.3240  0.2089
10157TIP3    H151886   2.931   2.394  16.126 -1.0022  0.8818  1.5197
10157TIP3    H251887   2.976   2.527  16.069 -0.4432  0.0138 -0.1308
10158TIP3   OH251888   5.861   0.210   5.619 -0.3928  0.9505  0.3593
10158TIP3    H151889   5.792   0.245   5.675 -1.0653 -0.4960  0.4609
10158TIP3    H251890   5.936   0.268   5.635 -1.3263  2.0771  0.8280
10159TIP3   OH251891   0.140   4.054   0.173 -0.2500  0.0653 -0.1538
10159TIP3    H151892   0.078   4.050   0.101  1.4024 -0.0421 -1.6380
10159TIP3    H251893   0.137   3.966   0.212  0.0779 -0.4191 -1.1912
10160TIP3   OH251894   1.595   5.532   2.732  0.3342  0.3338  0.8147
10160TIP3    H151895   1.629   5.610   2.775  0.2246 -0.2988  2.1230
10160TIP3    H251896   1.669   5.472   2.730  0.2540  0.2485  0.3915
10161TIP3   OH251897   1.884   6.678   4.435  0.0035  0.2951  0.0192
10161TIP3    H151898   1.795   6.693   4.404 -0.1458 -0.1372  0.2196
10161TIP3    H251899   1.894   6.736   4.511 -0.2246  0.1027  0.1982
10162TIP3   OH251900   5.228   4.091   1.022 -0.1353 -0.1935  0.0567
10162TIP3    H151901   5.299   4.037   1.055  1.2913  1.9306  0.7309
10162TIP3    H251902   5.212   4.155   1.092 -1.5388  0.4406 -0.7824
10163TIP3   OH251903   5.861   2.840  16.905  0.5092  0.2056  0.1358
10163TIP3    H151904   5.792   2.809  16.847  0.8284 -1.1523  0.4489
10163TIP3    H251905   5.821   2.910  16.955 -0.4291 -0.0902 -0.1840
10164TIP3   OH251906   6.405   5.607  12.183  0.1552 -0.4673 -1.1193
10164TIP3    H151907   6.353   5.600  12.103 -0.3370  0.4873 -0.8935
10164TIP3    H251908   6.490   5.567  12.160 -0.4972 -1.6102 -1.6312
10165TIP3   OH251909   6.624   4.918   4.039  0.5786 -0.7039 -0.1366
10165TIP3    H151910   6.594   4.849   3.979  1.5344 -1.5898  0.3663
10165TIP3    H251911   6.642   4.993   3.983  2.0571 -1.7063 -1.0575
10166TIP3   OH251912   2.643   2.913  13.508  0.4825  0.7519 -0.2739
10166TIP3    H151913   2.565   2.957  13.473 -0.6444  0.5865  1.8460
10166TIP3    H251914   2.698   2.985  13.538  1.1522  0.8645 -1.6750
10167TIP3   OH251915   5.839   1.813  11.031  0.2807  0.2017 -0.0496
10167TIP3    H151916   5.750   1.838  11.007  0.0112 -0.0711  0.6321
10167TIP3    H251917   5.858   1.735  10.979  0.7359  1.1859 -1.4041
10168TIP3   OH251918   3.313   4.711   5.048 -0.6043 -0.3948  0.2160
10168TIP3    H151919   3.390   4.669   5.010 -1.3693 -0.2034 -1.6762
10168TIP3    H251920   3.346   4.792   5.086  0.3592 -1.0883  0.9026
10169TIP3   OH251921   2.385   6.166   6.699 -0.4891  0.3219 -0.4513
10169TIP3    H151922   2.395   6.261   6.705 -0.8414  0.2603  2.1293
10169TIP3    H251923   2.301   6.153   6.655 -0.4036  1.1986 -0.8853
10170TIP3   OH251924   0.873   2.302  11.215 -0.4046  0.0260 -0.0405
10170TIP3    H151925   0.834   2.371  11.268  0.0472  1.5870 -1.6342
10170TIP3    H251926   0.966   2.303  11.237 -0.5924 -1.0198  0.8959
10171TIP3   OH251927   1.757   2.050   0.201 -0.1711  0.2738 -0.5919
10171TIP3    H151928   1.744   2.000   0.281  2.1032  1.4079  0.5912
10171TIP3    H251929   1.767   1.985   0.132 -0.1686 -0.7892  0.3939
10172TIP3   OH251930   4.478   2.807  13.955 -0.4621  0.4918  1.0662
10172TIP3    H151931   4.442   2.776  14.038  0.3066 -2.4083  0.4413
10172TIP3    H251932   4.437   2.752  13.889  1.3802  0.4634 -0.1188
10173TIP3   OH251933   6.447   3.244   4.325  0.1982 -0.4909  0.2656
10173TIP3    H151934   6.388   3.319   4.334  0.8389  0.2825 -1.4876
10173TIP3    H251935   6.534   3.280   4.339  0.3546 -1.5482  2.4424
10174TIP3   OH251936   4.442   1.808   4.944 -0.2635 -0.5004  0.0125
10174TIP3    H151937   4.390   1.749   4.889 -0.4272  0.0344 -0.4096
10174TIP3    H251938   4.390   1.815   5.025 -0.6288 -0.3229 -0.2346
10175TIP3   OH251939   5.032   4.930   1.746  0.4469 -0.2502 -0.0665
10175TIP3    H151940   5.018   4.920   1.652 -0.5570  0.5874 -0.0252
10175TIP3    H251941   5.126   4.917   1.758  0.5025 -0.8843 -1.1087
10176TIP3   OH251942   5.702   2.234   5.595 -0.1646  0.0939 -0.2122
10176TIP3    H151943   5.789   2.194   5.587  1.6982  3.1294  2.3466
10176TIP3    H251944   5.688   2.277   5.510  0.7643 -0.5344 -0.7057
10177TIP3   OH251945   0.604   4.465  12.391 -0.1016 -0.1056  0.3739
10177TIP3    H151946   0.661   4.522  12.340  1.6778  1.0701  3.3863
10177TIP3    H251947   0.618   4.378  12.356 -0.5115  0.8206 -2.3205
10178TIP3   OH251948   4.145   0.259  16.969  0.1771 -0.3019 -0.0557
10178TIP3    H151949   4.207   0.297  16.907  0.7859 -0.5241  0.4120
10178TIP3    H251950   4.090   0.201  16.917  1.1430 -1.0403 -0.2729
10179TIP3   OH251951   5.620   0.810  11.886  0.0574 -0.0225  0.6183
10179TIP3    H151952   5.577   0.731  11.920  2.0911 -0.7535  1.6334
10179TIP3    H251953   5.608   0.804  11.791  0.5951 -1.8648  0.6201
10180TIP3   OH251954   2.937   5.085   0.840 -0.0081  0.1975 -0.5001
10180TIP3    H151955   3.025   5.090   0.877  0.2803 -0.2993 -1.0977
10180TIP3    H251956   2.883   5.053   0.912  0.2761  0.6242 -0.0913
10181TIP3   OH251957   5.929   4.794   2.218 -0.2492  0.8160  0.3673
10181TIP3    H151958   5.922   4.755   2.131 -0.6116  1.9895 -0.1474
10181TIP3    H251959   6.014   4.838   2.218  0.5950 -0.7235  1.2824
10182TIP3   OH251960   3.511   2.452  16.439  0.2158 -0.4699 -0.7522
10182TIP3    H151961   3.486   2.484  16.352 -0.2710 -0.6291 -0.6761
10182TIP3    H251962   3.594   2.496  16.458  0.3106 -0.4116 -1.2850
10183TIP3   OH251963   5.273   1.684  15.381 -0.1751 -0.6600  0.0196
10183TIP3    H151964   5.188   1.666  15.341  0.7555 -3.5211 -0.9657
10183TIP3    H251965   5.326   1.606  15.361  3.2170  1.6336 -0.8214
10184TIP3   OH251966   5.237   1.054  17.367  0.4997 -0.1913 -0.6410
10184TIP3    H151967   5.165   1.038  17.428  1.1394 -1.5019 -0.2063
10184TIP3    H251968   5.305   0.992  17.393  1.4819  0.4644 -1.5629
10185TIP3   OH251969   0.010   2.367  17.054  0.5281 -0.1651  0.3923
10185TIP3    H151970  -0.027   2.444  17.011  0.2250 -1.3665 -1.6117
10185TIP3    H251971  -0.052   2.346  17.123  0.3989  1.1099  0.6936
10186TIP3   OH251972   5.807   2.865   2.765  0.2654  0.0468  0.0351
10186TIP3    H151973   5.737   2.921   2.732  1.0756  0.4658 -1.0283
10186TIP3    H251974   5.886   2.899   2.724  0.8963 -1.3419  0.0502
10187TIP3   OH251975   0.152   4.115  13.029 -0.1224  0.3375  0.1574
10187TIP3    H151976   0.175   4.040  13.084  0.8798  0.1413 -0.4878
10187TIP3    H251977   0.215   4.182  13.054  0.1294  0.3564 -0.4948
10188TIP3   OH251978   4.325   3.240  16.670 -0.6580  0.1769 -0.1780
10188TIP3    H151979   4.411   3.242  16.628 -0.8282 -1.1758 -0.6420
10188TIP3    H251980   4.285   3.324  16.648  0.5704  0.8596  0.1184
10189TIP3   OH251981   5.799   2.019  12.615  0.2238 -0.0356 -0.0021
10189TIP3    H151982   5.879   2.001  12.565  1.0723  1.0997  0.8672
10189TIP3    H251983   5.765   1.933  12.637  0.5693 -0.5490 -1.3631
10190TIP3   OH251984   2.425   0.051   3.865  0.0020 -0.2568  0.0298
10190TIP3    H151985   2.519   0.032   3.860 -0.1842 -1.0688 -0.6406
10190TIP3    H251986   2.420   0.146   3.875  0.8730  0.0772 -2.0590
10191TIP3   OH251987   6.178   3.082  15.005  0.2963 -0.5086 -0.3574
10191TIP3    H151988   6.202   3.112  14.917 -0.4593 -1.1752 -0.7991
10191TIP3    H251989   6.188   2.987  15.002  2.0542 -0.4150  0.8425
10192TIP3   OH251990   3.351   2.494  12.794 -0.6676  0.0293 -0.8419
10192TIP3    H151991   3.324   2.447  12.715 -0.3818 -0.5508 -0.6018
10192TIP3    H251992   3.303   2.576  12.790 -0.7451 -0.0373 -1.5645
10193TIP3   OH251993   4.629   0.895   4.316 -0.5920  0.3741 -0.1316
10193TIP3    H151994   4.541   0.867   4.340  0.0634 -1.4237  0.3752
10193TIP3    H251995   4.636   0.878   4.223 -1.3232  2.1846 -0.5590
10194TIP3   OH251996   4.097   2.345  14.357  0.5029 -0.0884 -0.2303
10194TIP3    H151997   4.172   2.342  14.298  1.8550 -1.4943  1.4775
10194TIP3    H251998   4.129   2.392  14.434 -0.3404 -0.7508  0.5433
10195TIP3   OH251999   2.446   5.242   5.595 -0.0013  0.5768 -0.1714
10195TIP3    H152000   2.481   5.329   5.614  0.0601  0.6114 -0.4460
10195TIP3    H252001   2.437   5.239   5.500  0.5448  0.0686 -0.2159
10196TIP3   OH252002   3.093   3.229  10.480 -0.4376 -0.0394  0.6666
10196TIP3    H152003   3.028   3.169  10.516  0.1130  0.0510  1.8766
10196TIP3    H252004   3.160   3.172  10.442 -1.1329 -0.1330 -0.4474
10197TIP3   OH252005   0.656   1.667   4.144 -0.2404 -0.2477  0.6016
10197TIP3    H152006   0.726   1.731   4.156  1.4767 -2.0150  0.6132
10197TIP3    H252007   0.605   1.700   4.070  1.2283  0.5959 -0.0733
10198TIP3   OH252008   6.417   3.458  13.242 -0.0476 -0.0545  0.1167
10198TIP3    H152009   6.431   3.504  13.159  1.1794 -0.7588 -0.0892
10198TIP3    H252010   6.451   3.370  13.226 -0.2297 -0.3335  1.2213
10199TIP3   OH252011   4.636   1.797   6.201 -0.5676 -0.1202  0.1813
10199TIP3    H152012   4.560   1.811   6.259  0.5440  1.3633  1.3593
10199TIP3    H252013   4.711   1.796   6.260  0.3883 -1.3623 -0.9923
10200TIP3   OH252014   0.962   2.896  12.734  0.0272 -0.2297  0.1166
10200TIP3    H152015   0.979   2.986  12.762  0.0819  0.3795 -1.7462
10200TIP3    H252016   1.005   2.889  12.649  0.4986 -2.2143  0.4725
10201TIP3   OH252017   3.179   4.691  17.275 -0.6336  0.6918  0.7719
10201TIP3    H152018   3.234   4.698  17.353  1.3773 -0.2036 -0.4602
10201TIP3    H252019   3.185   4.777  17.234 -0.3489  0.6771  0.7772
10202TIP3   OH252020   6.129   0.818   2.434 -0.0033  0.2372  0.3876
10202TIP3    H152021   6.071   0.749   2.468 -1.0920  0.6469 -0.5496
10202TIP3    H252022   6.137   0.798   2.341  0.7128  0.6682  0.3505
10203TIP3   OH252023   3.003   2.057  16.635  0.4878 -0.1327  0.2056
10203TIP3    H152024   3.079   2.020  16.681  0.2627 -1.8744 -0.7714
10203TIP3    H252025   3.038   2.135  16.591  1.2392  0.2043  1.3485
10204TIP3   OH252026   0.001   5.829   2.921 -0.4393  0.1179  0.1962
10204TIP3    H152027   0.050   5.865   2.994 -1.6801 -1.2361  1.7601
10204TIP3    H252028   0.067   5.809   2.855  0.6208  2.0372  0.5998
10205TIP3   OH252029   3.013   0.366   3.160  0.8969 -0.4626  0.3896
10205TIP3    H152030   2.926   0.337   3.132  1.7498 -3.4099  0.5418
10205TIP3    H252031   3.064   0.370   3.080  0.9688  0.0969  0.4558
10206TIP3   OH252032   4.686   2.573  11.536  0.3877  0.0119 -0.0168
10206TIP3    H152033   4.668   2.604  11.447 -0.0925 -0.4681 -0.0961
10206TIP3    H252034   4.760   2.625  11.565  0.4584  0.2775 -0.6478
10207TIP3   OH252035   5.391   0.504   6.370 -0.4799  0.1765 -0.6316
10207TIP3    H152036   5.340   0.430   6.402 -2.3640  1.0186 -1.5212
10207TIP3    H252037   5.421   0.548   6.450 -0.3512 -0.8436 -0.0989
10208TIP3   OH252038   2.049   3.088  15.472 -0.3979 -0.6583 -0.5903
10208TIP3    H152039   2.119   3.032  15.504 -1.5933 -1.6815  0.3666
10208TIP3    H252040   2.004   3.117  15.552 -0.2410  1.1023 -1.1103
10209TIP3   OH252041   5.896   2.268   3.399 -0.0738 -1.1108 -0.7564
10209TIP3    H152042   5.864   2.243   3.312 -2.2329  0.0572 -0.3580
10209TIP3    H252043   5.926   2.358   3.389 -0.5241 -0.9013 -0.2537
10210TIP3   OH252044   6.639   6.371   5.080 -0.1417  0.4297 -0.3738
10210TIP3    H152045   6.609   6.286   5.049  2.4709 -1.7896  2.5143
10210TIP3    H252046   6.717   6.389   5.027 -0.3651  0.7709 -0.5925
10211TIP3   OH252047   3.723   1.083  16.638  0.5202  0.1447  0.3812
10211TIP3    H152048   3.664   1.093  16.563 -0.6872  0.9557  1.3918
10211TIP3    H252049   3.664   1.072  16.713  1.6580  0.8040  1.4010
10212TIP3   OH252050   1.360   2.030   1.940  0.3092  0.7458  0.3461
10212TIP3    H152051   1.398   2.117   1.931  0.7446  0.6404  1.1468
10212TIP3    H252052   1.296   2.039   2.011  0.7355  0.2897  0.7903
10213TIP3   OH252053   2.974   2.665   6.508 -0.7387 -0.3614 -0.5872
10213TIP3    H152054   2.965   2.739   6.449 -0.0156 -1.5984 -2.3177
10213TIP3    H252055   2.885   2.651   6.542 -0.6484  2.1422  0.9613
10214TIP3   OH252056   5.134   2.253   4.692 -0.2018  0.3844  0.3711
10214TIP3    H152057   5.201   2.189   4.716 -1.0950 -0.0698  1.8529
10214TIP3    H252058   5.116   2.237   4.600 -0.8091 -1.9384  0.8331
10215TIP3   OH252059   0.091   2.579  13.952 -0.5584  0.2820  0.4237
10215TIP3    H152060   0.149   2.650  13.924  0.3597 -0.2230  0.9903
10215TIP3    H252061   0.089   2.519  13.878 -1.3456  0.8878 -0.0610
10216TIP3   OH252062   4.616   1.321  17.298 -0.2867  0.2178  0.6365
10216TIP3    H152063   4.530   1.303  17.261  0.2157  0.2692 -0.6123
10216TIP3    H252064   4.661   1.373  17.232  1.2282 -1.0648  0.5893
10217TIP3   OH252065   3.734   4.443   3.332  0.5615  0.8148  0.3125
10217TIP3    H152066   3.676   4.368   3.348  1.6173 -0.1879 -0.3811
10217TIP3    H252067   3.690   4.495   3.266  0.7953 -0.3667 -0.8044
10218TIP3   OH252068   3.225   4.620  14.568 -0.2487 -0.2883 -0.5332
10218TIP3    H152069   3.152   4.682  14.564 -0.2633 -0.2868 -0.2949
10218TIP3    H252070   3.297   4.664  14.522  0.0123  0.2872  0.3859
10219TIP3   OH252071   0.819   3.524   1.190  0.3463  0.1346  0.0427
10219TIP3    H152072   0.904   3.548   1.152  0.0984 -0.0870 -0.6586
10219TIP3    H252073   0.774   3.477   1.120 -0.3628  0.2597  0.4121
10220TIP3   OH252074   5.168   5.912  12.736 -0.1480 -0.7043  0.1421
10220TIP3    H152075   5.227   5.987  12.726  0.1229 -1.0402 -0.9473
10220TIP3    H252076   5.224   5.835  12.725 -0.8121 -1.0261 -1.1916
10221TIP3   OH252077   5.958   0.491  15.218 -0.3653 -0.4105 -1.1257
10221TIP3    H152078   5.953   0.504  15.312  1.4349 -0.7573 -0.9530
10221TIP3    H252079   5.868   0.471  15.192 -0.8890 -0.3171  0.5048
10222TIP3   OH252080   0.877   4.788   3.330  0.0845  0.1731  0.3990
10222TIP3    H152081   0.828   4.823   3.256 -0.2150 -1.1751 -0.0770
10222TIP3    H252082   0.968   4.789   3.301  0.0984  0.7179  0.4598
10223TIP3   OH252083   3.885   1.076   4.053 -0.7310  0.0108  0.0284
10223TIP3    H152084   3.974   1.087   4.018 -1.4901 -1.3044 -2.5413
10223TIP3    H252085   3.868   1.159   4.099  1.0229  1.1847 -1.2768
10224TIP3   OH252086   0.168   0.528   0.901  0.1657 -0.4838 -0.4176
10224TIP3    H152087   0.238   0.505   0.962  0.4987  0.7465 -0.3016
10224TIP3    H252088   0.145   0.446   0.858  2.3809 -0.7587 -1.1863
10225TIP3   OH252089   0.381   4.147   4.694  0.7221  0.0397 -0.3219
10225TIP3    H152090   0.449   4.170   4.632  0.7279  1.4290  0.1722
10225TIP3    H252091   0.301   4.184   4.657  0.2940 -1.1768 -0.6647
10226TIP3   OH252092   1.140   5.452   4.407 -0.1626 -0.1376  0.8378
10226TIP3    H152093   1.218   5.468   4.354 -0.7854 -0.6219 -0.2511
10226TIP3    H252094   1.173   5.403   4.483  0.7922  0.8910  1.1074
10227TIP3   OH252095   3.572   1.750   3.146 -0.5211  0.4580 -0.1152
10227TIP3    H152096   3.588   1.843   3.135 -1.3318  0.4415 -1.7183
10227TIP3    H252097   3.626   1.708   3.080  0.7756 -0.3412  1.3726
10228TIP3   OH252098   2.288   5.462   4.525  0.1436 -0.6931 -0.2182
10228TIP3    H152099   2.349   5.398   4.487 -1.1675 -2.6855  0.8469
10228TIP3    H252100   2.209   5.455   4.471  0.3472  0.8768 -0.7601
10229TIP3   OH252101   3.416   3.711   1.460  0.1344  0.1324  0.2236
10229TIP3    H152102   3.457   3.625   1.455  0.4422  0.2557  0.5751
10229TIP3    H252103   3.329   3.699   1.422  0.6726 -0.0164 -1.0033
10230TIP3   OH252104   4.347   0.690   1.792  0.0374 -0.1716 -0.5612
10230TIP3    H152105   4.416   0.716   1.732  1.5965 -0.2292  1.1129
10230TIP3    H252106   4.304   0.772   1.815  1.2579  0.2425  0.3489
10231TIP3   OH252107   3.378   3.629  11.386  0.1321 -0.1770 -0.2767
10231TIP3    H152108   3.334   3.649  11.304  0.3618 -2.0011 -0.8883
10231TIP3    H252109   3.311   3.640  11.454 -0.9320 -1.6236 -1.0479
10232TIP3   OH252110   2.644   0.980   3.656 -0.3200  0.2167  0.3666
10232TIP3    H152111   2.732   0.990   3.692  1.0779 -0.5979 -2.5429
10232TIP3    H252112   2.602   0.916   3.714  1.1038  0.3358  1.5983
10233TIP3   OH252113   0.641   3.920   5.144 -0.3122 -0.3961  0.0341
10233TIP3    H152114   0.708   3.897   5.079 -0.8315  1.4688 -1.2542
10233TIP3    H252115   0.568   3.952   5.092 -0.3505  2.1772  1.5282
10234TIP3   OH252116   6.262   5.725   6.693  0.6071 -0.7244  0.5380
10234TIP3    H152117   6.259   5.814   6.728  1.8572 -1.3735  2.4641
10234TIP3    H252118   6.354   5.711   6.672  0.3425 -1.4110 -0.1818
10235TIP3   OH252119   5.646   0.437  15.558 -0.0067  0.2180 -0.3394
10235TIP3    H152120   5.587   0.512  15.570  1.0114  0.7381  1.8209
10235TIP3    H252121   5.650   0.395  15.644  1.0279 -1.1496 -1.0145
10236TIP3   OH252122   2.571   4.624   5.905  0.1580 -0.1555 -0.4220
10236TIP3    H152123   2.600   4.649   5.817 -0.1932  1.2730 -0.1614
10236TIP3    H252124   2.522   4.700   5.936  3.3416  0.9968  2.4491
10237TIP3   OH252125   3.188   6.155   4.149  0.4793 -0.3255  0.0452
10237TIP3    H152126   3.163   6.072   4.188 -0.6895 -0.3867 -0.7776
10237TIP3    H252127   3.122   6.171   4.081  0.3860  1.5123  0.5166
10238TIP3   OH252128   1.532   2.834   0.276 -0.3477 -0.5563  0.1242
10238TIP3    H152129   1.627   2.835   0.285 -0.4440  0.9644  1.3146
10238TIP3    H252130   1.499   2.849   0.365 -1.7210 -1.3152 -0.2223
10239TIP3   OH252131   5.139   0.696  15.011 -0.0491 -0.7608  0.0413
10239TIP3    H152132   5.192   0.760  14.963 -0.2285 -0.2325  0.5376
10239TIP3    H252133   5.099   0.643  14.942  0.1175 -0.3488 -0.3801
10240TIP3   OH252134   3.941   3.361   6.151  1.0057  0.0208 -0.0630
10240TIP3    H152135   3.987   3.435   6.112  0.5961 -0.4095 -1.4142
10240TIP3    H252136   3.850   3.390   6.156  0.8345 -0.4110 -0.6551
10241TIP3   OH252137   0.894   1.518  14.106  0.0624  0.5384 -0.0309
10241TIP3    H152138   0.832   1.490  14.173  0.3967  1.0305  0.4884
10241TIP3    H252139   0.895   1.446  14.042 -0.3260  0.1102  0.4423
10242TIP3   OH252140   6.125   3.007   0.854 -0.8855 -0.4977  0.4127
10242TIP3    H152141   6.120   2.915   0.830 -0.8191  0.1722 -2.5774
10242TIP3    H252142   6.160   3.007   0.943 -1.6206 -3.3467  0.8031
10243TIP3   OH252143   1.532   4.296   6.434 -0.7559 -0.0992  1.1873
10243TIP3    H152144   1.593   4.222   6.435 -1.3478 -0.6590 -0.5176
10243TIP3    H252145   1.585   4.370   6.402 -1.0858 -0.7770 -1.1329
10244TIP3   OH252146   0.004   5.189  16.811 -0.8754  0.2851  0.6414
10244TIP3    H152147   0.052   5.116  16.850 -0.6284 -0.2458 -0.5839
10244TIP3    H252148   0.069   5.232  16.756 -1.1355  1.1780  1.0242
10245TIP3   OH252149   3.070   0.806   3.358 -0.5286 -0.7120  0.3407
10245TIP3    H152150   3.030   0.861   3.290 -0.6362 -1.9319 -0.6254
10245TIP3    H252151   3.074   0.862   3.435 -0.8687  0.5593 -0.5313
10246TIP3   OH252152   1.442   4.907  16.847 -0.4553 -0.6038 -0.7457
10246TIP3    H152153   1.347   4.910  16.837 -0.5190 -0.6838 -0.2088
10246TIP3    H252154   1.464   4.990  16.891 -0.3024 -0.6752 -0.6859
10247TIP3   OH252155   4.022   6.005  11.527  0.1474 -0.3053 -0.0563
10247TIP3    H152156   3.972   5.956  11.462 -0.4768 -0.1312  0.2886
10247TIP3    H252157   3.960   6.022  11.598 -0.2213  2.5826 -0.9496
10248TIP3   OH252158   3.973   4.042   1.861  0.3101  0.1382  0.0757
10248TIP3    H152159   3.910   3.970   1.874  0.8758 -0.1096  1.7366
10248TIP3    H252160   4.022   4.017   1.783  0.6712 -1.4608  0.7671
10249TIP3   OH252161   3.446   5.886   5.616  0.3352 -0.6755  0.0760
10249TIP3    H152162   3.396   5.805   5.604 -0.4951 -0.1657 -0.0348
10249TIP3    H252163   3.418   5.941   5.543  0.6526 -0.1737  0.3313
10250TIP3   OH252164   4.939   0.526   5.260 -0.2818 -0.4985  0.1128
10250TIP3    H152165   4.967   0.594   5.199  0.4600 -0.1603  0.8215
10250TIP3    H252166   5.010   0.519   5.323 -0.4674 -1.7461  0.2105
10251TIP3   OH252167   5.200   3.831   2.588 -0.2014 -0.0561 -0.8899
10251TIP3    H152168   5.184   3.910   2.537  2.0996  0.5743 -0.7121
10251TIP3    H252169   5.170   3.852   2.676  1.8454  1.2443 -0.4559
10252TIP3   OH252170   2.758   5.985  16.838 -0.4384 -0.1127 -0.0618
10252TIP3    H152171   2.823   5.952  16.900 -0.8043  0.5321  0.6854
10252TIP3    H252172   2.736   5.909  16.784  1.9995 -0.0233 -1.3403
10253TIP3   OH252173   1.434   5.773  12.055  0.2944 -0.2128  0.0259
10253TIP3    H152174   1.440   5.799  12.147  0.6232 -2.6969  0.7914
10253TIP3    H252175   1.519   5.797  12.018  0.0230  1.1523  0.2331
10254TIP3   OH252176   3.099   2.922  12.770 -0.3960  0.4609 -0.3912
10254TIP3    H152177   3.173   2.866  12.748  0.5996  1.4278  0.3399
10254TIP3    H252178   3.022   2.869  12.752  0.4764 -1.9681  2.1772
10255TIP3   OH252179   4.483   0.093   5.609 -0.0169  0.1018 -0.2228
10255TIP3    H152180   4.534   0.054   5.538  0.5868  2.2253 -1.0306
10255TIP3    H252181   4.399   0.115   5.568  1.1608  3.5364 -1.0667
10256TIP3   OH252182   6.408   2.869   1.785 -0.0314 -0.0784  0.3399
10256TIP3    H152183   6.481   2.898   1.729 -0.4694 -0.4351 -0.4404
10256TIP3    H252184   6.443   2.871   1.874  0.0996  2.4076  0.3022
10257TIP3   OH252185   3.582   1.490  17.093 -0.0809 -0.3866 -0.0654
10257TIP3    H152186   3.677   1.492  17.103 -0.0623 -1.0845 -0.0621
10257TIP3    H252187   3.553   1.413  17.144 -0.8581  0.9095  1.5620
10258TIP3   OH252188   3.901   4.640   4.395  0.2446  0.4079  0.4594
10258TIP3    H152189   3.860   4.651   4.309 -3.2067  0.4566  1.9480
10258TIP3    H252190   3.913   4.545   4.404 -0.9296  0.2436  0.5007
10259TIP3   OH252191   3.164   4.947   6.512  0.1815 -0.3587 -0.4296
10259TIP3    H152192   3.206   4.862   6.503  0.9155 -0.0815  0.1914
10259TIP3    H252193   3.107   4.954   6.436  0.5367 -1.1670 -0.7842
10260TIP3   OH252194   5.732   1.628  14.972  0.7408 -0.1653 -0.0272
10260TIP3    H152195   5.669   1.694  14.944 -0.4474 -0.8706  0.9021
10260TIP3    H252196   5.710   1.611  15.064  1.3436 -1.4937 -0.1131
10261TIP3   OH252197   1.786   2.898  14.575  0.6574  0.2301  0.0877
10261TIP3    H152198   1.708   2.854  14.607  0.4939  0.0265 -0.5741
10261TIP3    H252199   1.835   2.921  14.654  0.0923  0.0645  0.4916
10262TIP3   OH252200   4.206   5.142  12.956 -0.3911 -0.1281 -0.2847
10262TIP3    H152201   4.188   5.225  12.912 -1.2315 -0.7957 -1.2195
10262TIP3    H252202   4.161   5.076  12.904  1.8211 -1.4361 -0.6643
10263TIP3   OH252203   2.724   6.604  14.029 -0.2024 -0.3302  0.0187
10263TIP3    H152204   2.812   6.599  14.064 -0.7569 -1.0258  1.3736
10263TIP3    H252205   2.716   6.528  13.971 -1.2902 -2.9568  3.3091
10264TIP3   OH252206   1.184   1.062   4.628 -0.6086 -0.1590 -0.5741
10264TIP3    H152207   1.221   1.139   4.672 -0.5166 -0.3165 -0.3783
10264TIP3    H252208   1.245   0.991   4.647 -0.6643 -0.2677 -0.8044
10265TIP3   OH252209   5.590   3.689   5.473 -0.1283  0.2888  0.0641
10265TIP3    H152210   5.533   3.766   5.468  0.4015  0.6158 -1.0710
10265TIP3    H252211   5.647   3.695   5.397  1.0636 -0.3374  0.8670
10266TIP3   OH252212   5.873   3.619  16.611 -0.0503  0.0251  0.0331
10266TIP3    H152213   5.801   3.566  16.577 -1.5547  0.9662  1.6275
10266TIP3    H252214   5.840   3.655  16.694  2.7385 -0.6103  1.5350
10267TIP3   OH252215   3.092   4.032  16.692 -0.0475 -0.1533  0.1310
10267TIP3    H152216   3.118   4.124  16.700 -0.2450  0.0966 -1.7760
10267TIP3    H252217   3.100   3.998  16.781  0.4056  1.6032  0.8131
10268TIP3   OH252218   5.349   3.733   5.988  0.5980  0.0037  0.3428
10268TIP3    H152219   5.357   3.715   6.082  0.1802 -0.4362  0.2952
10268TIP3    H252220   5.328   3.827   5.983 -0.2845 -0.1634  0.7342
10269TIP3   OH252221   5.959   5.253  12.071 -0.0172  0.1735  0.2970
10269TIP3    H152222   5.879   5.293  12.105  0.3153 -0.6687  2.2350
10269TIP3    H252223   5.958   5.164  12.106  1.8916  0.2368  0.6469
10270TIP3   OH252224   4.750   6.107  11.571  0.4204  0.0533  0.5506
10270TIP3    H152225   4.763   6.193  11.611 -0.3895  0.6341 -0.3845
10270TIP3    H252226   4.661   6.110  11.536  0.9586 -0.5657 -0.9355
10271TIP3   OH252227   4.023   5.132  14.789 -0.0648 -0.4063 -0.0592
10271TIP3    H152228   4.076   5.209  14.768 -0.3045 -0.1502  0.2532
10271TIP3    H252229   4.072   5.088  14.858 -0.2908 -0.1258  0.2863
10272TIP3   OH252230   3.111   5.087   0.650  0.4494 -0.2581  0.2573
10272TIP3    H152231   3.042   5.104   0.715  0.0105 -1.5654  0.1673
10272TIP3    H252232   3.118   4.991   0.647  1.5041 -0.1761 -0.5517
10273TIP3   OH252233   6.041   2.254  11.050  0.3790 -0.3775 -0.6295
10273TIP3    H152234   6.007   2.292  11.131 -1.4034 -0.6218 -1.2155
10273TIP3    H252235   6.088   2.326  11.008 -2.8096  1.2901 -1.6498
10274TIP3   OH252236   1.834   1.763   0.855  0.5313 -0.0029 -0.7676
10274TIP3    H152237   1.884   1.690   0.891 -0.6170 -0.2206  0.4375
10274TIP3    H252238   1.744   1.747   0.883  0.4079  2.4558  0.5277
10275TIP3   OH252239   0.778   1.806  15.642 -0.0394 -0.0382  0.6384
10275TIP3    H152240   0.761   1.901  15.647  0.2399  0.1136 -0.9233
10275TIP3    H252241   0.863   1.795  15.684  0.0256  0.4433  0.6416
10276TIP3   OH252242   5.831   5.196  10.424 -0.0535 -0.1378  0.7274
10276TIP3    H152243   5.852   5.110  10.460 -1.9569 -0.6929  0.6134
10276TIP3    H252244   5.761   5.229  10.481  0.5595  1.3040  0.6934
10277TIP3   OH252245   5.884   0.512   3.682 -0.6471  0.0150  0.1897
10277TIP3    H152246   5.887   0.461   3.601 -2.5757  0.9372 -0.5219
10277TIP3    H252247   5.956   0.575   3.673 -0.3292 -0.4264 -0.4239
10278TIP3   OH252248   5.288   3.504  12.759  0.4738 -0.2644  0.0257
10278TIP3    H152249   5.298   3.502  12.854  0.0388  0.7186  0.1015
10278TIP3    H252250   5.193   3.498  12.745  0.4477  0.7023 -0.2969
10279TIP3   OH252251   0.659   0.745   3.022  0.4157 -0.5114 -0.4961
10279TIP3    H152252   0.583   0.764   2.967 -0.2313 -2.4464 -0.3636
10279TIP3    H252253   0.733   0.750   2.963 -0.0783 -0.8482 -1.1628
10280TIP3   OH252254   4.656   3.022   1.958  0.1885  0.1112 -0.3800
10280TIP3    H152255   4.743   3.005   1.921 -0.9577 -2.1381 -2.2041
10280TIP3    H252256   4.674   3.082   2.031  2.9695  1.7686 -2.2097
10281TIP3   OH252257   5.625   0.639  13.972 -0.0763 -0.0234  0.6332
10281TIP3    H152258   5.698   0.577  13.971  0.3674  0.4903  0.6487
10281TIP3    H252259   5.586   0.633  13.885  0.5774  0.3840  0.3015
10282TIP3   OH252260   5.952   0.797   5.969 -0.4320 -0.8416 -0.2165
10282TIP3    H152261   5.900   0.758   6.039 -0.7602  0.1599  0.1240
10282TIP3    H252262   6.021   0.845   6.014 -0.5428 -0.3377 -0.5705
10283TIP3   OH252263   0.337   4.245  16.569 -0.4559 -0.1726  0.4556
10283TIP3    H152264   0.353   4.151  16.577  1.2894  0.1389  1.0802
10283TIP3    H252265   0.409   4.276  16.514 -1.1604  0.7661  0.0433
10284TIP3   OH252266   6.179   3.531   1.936  0.2850 -1.0082  0.5911
10284TIP3    H152267   6.174   3.437   1.953 -1.0417 -0.9406  0.6900
10284TIP3    H252268   6.191   3.571   2.022 -1.4004 -0.9743  0.8463
10285TIP3   OH252269   1.257   1.914   5.028  0.2779  0.1386 -0.7605
10285TIP3    H152270   1.304   1.841   4.987  2.0652 -0.1718  1.6193
10285TIP3    H252271   1.325   1.979   5.045 -0.9611  1.5734 -1.0994
10286TIP3   OH252272   1.497   0.846  14.700  0.3310 -0.3454  0.1769
10286TIP3    H152273   1.519   0.906  14.771 -2.5755  1.4214 -0.2558
10286TIP3    H252274   1.582   0.810  14.671  2.0468  2.3140  1.5358
10287TIP3   OH252275   4.132   2.963   4.194  0.1480 -0.1007 -0.4489
10287TIP3    H152276   4.046   3.005   4.205  0.5016  0.7187 -0.6901
10287TIP3    H252277   4.126   2.882   4.245 -0.4918  0.3489  0.2237
10288TIP3   OH252278   2.055   3.774   4.566 -0.2641  0.0045 -0.2022
10288TIP3    H152279   2.109   3.719   4.510 -1.1026 -0.5761 -0.4724
10288TIP3    H252280   1.969   3.774   4.523 -0.3657  1.2541 -0.0236
10289TIP3   OH252281   5.121   6.550   1.908 -0.3813 -0.4371 -0.3568
10289TIP3    H152282   5.093   6.598   1.830 -0.1288  2.1041  1.0186
10289TIP3    H252283   5.217   6.555   1.906 -0.3807  2.2177  1.4935
10290TIP3   OH252284   5.290   2.006   4.728 -0.0427 -0.3014 -0.3289
10290TIP3    H152285   5.370   2.029   4.774  0.4055 -0.5027 -0.9911
10290TIP3    H252286   5.250   1.938   4.782  0.2882 -0.2768 -0.0515
10291TIP3   OH252287   0.561   3.933  14.574 -0.1554 -0.3874  0.4315
10291TIP3    H152288   0.643   3.978  14.597 -0.3034  1.1792 -1.8560
10291TIP3    H252289   0.588   3.844  14.555  0.5632 -0.6440  2.3622
10292TIP3   OH252290   3.807   5.858  14.336  0.4885 -0.7596  0.5213
10292TIP3    H152291   3.801   5.815  14.421  0.7193 -1.1702  0.3310
10292TIP3    H252292   3.720   5.849  14.299  0.7257 -1.7297  0.1661
10293TIP3   OH252293   6.497   6.533   0.222 -0.3529 -0.1347  0.5482
10293TIP3    H152294   6.442   6.610   0.234 -0.8284 -0.1420 -1.3435
10293TIP3    H252295   6.583   6.560   0.254 -0.4963  1.2181 -0.1495
10294TIP3   OH252296   2.206   6.516   0.596  0.5432 -0.5730 -0.1658
10294TIP3    H152297   2.236   6.455   0.663  2.7451  0.6686  0.0832
10294TIP3    H252298   2.287   6.556   0.563 -0.7537  1.5349 -0.9355
10295TIP3   OH252299   0.635   6.714  13.951  0.0939 -0.1941 -0.0228
10295TIP3    H152300   0.661   6.631  13.912  1.3188 -0.0010  0.3352
10295TIP3    H252301   0.539   6.709  13.956 -0.0339 -0.6088 -2.1058
10296TIP3   OH252302   0.187   1.173   5.828  0.3650 -0.0491  0.0627
10296TIP3    H152303   0.119   1.204   5.767 -1.4137 -0.0540  1.9383
10296TIP3    H252304   0.246   1.249   5.838  0.2460  0.2059 -1.0210
10297TIP3   OH252305   1.210   6.107  12.587  0.0199 -0.7518 -0.6852
10297TIP3    H152306   1.226   6.013  12.598  1.3560 -0.3630  1.1063
10297TIP3    H252307   1.132   6.125  12.640  0.3643 -0.6886 -0.1921
10298TIP3   OH252308   1.820   5.541  14.175 -0.3934 -0.0539 -0.2052
10298TIP3    H152309   1.754   5.608  14.156 -0.4099 -0.5773 -2.1907
10298TIP3    H252310   1.793   5.505  14.260 -1.4863  1.1082 -0.0155
10299TIP3   OH252311   3.104   0.577  10.954 -0.2465 -0.3856 -0.3733
10299TIP3    H152312   3.190   0.540  10.936 -0.8078 -1.8186 -0.2186
10299TIP3    H252313   3.087   0.553  11.046 -0.4706  0.5958 -0.1478
10300TIP3   OH252314   5.198   6.306   2.969 -0.5611 -0.0540  0.2967
10300TIP3    H152315   5.142   6.230   2.959 -0.4394  0.0721 -1.8044
10300TIP3    H252316   5.244   6.313   2.886  1.3274  0.8413  1.3409
10301TIP3   OH252317   2.849   1.154  11.183  0.3423  0.3594  0.3135
10301TIP3    H152318   2.800   1.093  11.128  2.2882  1.1194 -2.5334
10301TIP3    H252319   2.836   1.239  11.140  0.5944  1.3137  2.0631
10302TIP3   OH252320   1.812   3.813  12.690  0.2741  0.0679 -0.0052
10302TIP3    H152321   1.864   3.868  12.632 -2.9747  1.6179 -1.7523
10302TIP3    H252322   1.789   3.870  12.763  0.4829 -0.3966  0.4304
10303TIP3   OH252323   1.362   3.129   2.706 -0.4086 -0.4086 -0.0986
10303TIP3    H152324   1.391   3.120   2.616  2.0265  0.8022  0.4859
10303TIP3    H252325   1.302   3.204   2.705  0.2363  0.1117 -0.5886
10304TIP3   OH252326   5.620   1.287   2.451 -0.4486  0.1756  0.0191
10304TIP3    H152327   5.659   1.357   2.503  0.3253 -0.0796 -0.1926
10304TIP3    H252328   5.528   1.285   2.477  0.0112 -0.2457  1.7340
10305TIP3   OH252329   3.219   4.073  15.203 -0.1143 -0.2820 -0.0385
10305TIP3    H152330   3.265   4.116  15.275 -0.4947 -0.9270  0.6065
10305TIP3    H252331   3.151   4.135  15.177 -0.0495 -0.0944  0.2361
10306TIP3   OH252332   2.009   2.476   1.687  0.5475 -0.3475  0.0978
10306TIP3    H152333   1.963   2.400   1.653 -0.8432  1.1926 -1.6975
10306TIP3    H252334   1.948   2.515   1.750  1.2242 -0.6636  0.9667
10307TIP3   OH252335   1.637   4.669   1.149  0.0506 -0.2627  0.0443
10307TIP3    H152336   1.623   4.728   1.075 -0.0331 -1.6167 -1.0612
10307TIP3    H252337   1.576   4.699   1.216  0.6707  1.4665 -0.1262
10308TIP3   OH252338   1.191   3.115  14.003  0.2203  0.1394  0.1478
10308TIP3    H152339   1.167   3.199  14.042 -1.3742 -0.2351  0.0169
10308TIP3    H252340   1.138   3.050  14.049 -2.0455 -0.2855 -2.7466
10309TIP3   OH252341   2.499   5.217  13.821 -0.0347  0.1256  0.3216
10309TIP3    H152342   2.592   5.201  13.830  0.4162  2.7762  1.2869
10309TIP3    H252343   2.490   5.268  13.740 -0.7085 -0.4501  0.0178
10310TIP3   OH252344   4.262   1.122  13.782 -0.0623 -0.3660  0.0223
10310TIP3    H152345   4.304   1.037  13.771  0.0112 -0.1553 -1.7633
10310TIP3    H252346   4.314   1.182  13.727 -1.2092  0.4071 -0.2680
10311TIP3   OH252347   6.457   3.806  12.043 -0.0885  0.0775 -0.1727
10311TIP3    H152348   6.447   3.852  12.126  1.2821  0.0800  0.0076
10311TIP3    H252349   6.528   3.744  12.057  0.9033  0.8216 -1.6417
10312TIP3   OH252350   0.454   2.248  13.386 -0.0629  0.0467 -0.7552
10312TIP3    H152351   0.511   2.209  13.320  0.1662 -0.8790 -0.0264
10312TIP3    H252352   0.370   2.203  13.377 -0.1267  0.1351 -0.6179
10313TIP3   OH252353   1.546   1.829   2.235 -0.3227 -0.7402 -0.6238
10313TIP3    H152354   1.612   1.760   2.244 -1.2309 -1.8820 -2.2306
10313TIP3    H252355   1.466   1.791   2.270 -0.2486  0.5578  1.0938
10314TIP3   OH252356   0.938   0.544   1.645  0.6476  0.5012  0.7482
10314TIP3    H152357   0.921   0.579   1.733  0.9277 -0.7579  1.3186
10314TIP3    H252358   0.867   0.482   1.630  1.3026 -0.2328  0.6224
10315TIP3   OH252359   3.844   5.763   5.075  0.2580  0.2769  0.5599
10315TIP3    H152360   3.779   5.799   5.136 -1.7020 -1.6421 -0.2595
10315TIP3    H252361   3.802   5.686   5.038  2.1111  0.2922 -1.8331
10316TIP3   OH252362   0.247   1.252   1.243  0.1910  0.2856 -0.1115
10316TIP3    H152363   0.164   1.299   1.239  0.3234  0.7314  1.5384
10316TIP3    H252364   0.222   1.160   1.251 -0.1257  0.3335 -0.5345
10317TIP3   OH252365   4.070   1.966   4.121 -0.1092 -0.3323 -0.4759
10317TIP3    H152366   4.008   1.910   4.168  0.9833 -0.2173  1.1880
10317TIP3    H252367   4.046   2.055   4.147  0.3133 -0.2488 -0.3706
10318TIP3   OH252368   2.837   1.650   2.733 -0.1642 -0.3114 -0.5404
10318TIP3    H152369   2.876   1.567   2.706  1.0586 -0.6515  1.9422
10318TIP3    H252370   2.877   1.715   2.676 -0.8698 -1.3581 -2.2802
10319TIP3   OH252371   4.660   3.908  15.152  0.5376  0.2617 -0.4275
10319TIP3    H152372   4.687   3.893  15.061 -0.3268  1.8245 -0.9732
10319TIP3    H252373   4.565   3.895  15.151  0.7230 -1.5023  0.6774
10320TIP3   OH252374   5.766   2.710   5.539 -0.0836  0.0526 -0.2583
10320TIP3    H152375   5.709   2.639   5.570 -1.6630  1.6119  0.6521
10320TIP3    H252376   5.821   2.731   5.614  0.3582 -0.1906 -0.5142
10321TIP3   OH252377   3.452   4.642   3.897 -0.4390 -0.3855 -0.4511
10321TIP3    H152378   3.450   4.662   3.803  1.4206 -1.5394 -0.7723
10321TIP3    H252379   3.514   4.705   3.934  1.5688 -2.1288 -0.6434
10322TIP3   OH252380   1.661   3.399   2.530  0.0353 -0.0436 -0.6222
10322TIP3    H152381   1.678   3.467   2.596  0.2706 -1.8212  1.2653
10322TIP3    H252382   1.657   3.447   2.447  1.5757  2.0961  0.4159
10323TIP3   OH252383   5.580   6.127   2.452 -0.1070 -0.4742 -0.0647
10323TIP3    H152384   5.654   6.168   2.498 -1.6692  0.2227  1.9710
10323TIP3    H252385   5.516   6.111   2.521 -2.5612  0.5009 -2.0017
10324TIP3   OH252386   6.642   3.340  14.918 -0.1470 -0.4902  0.5779
10324TIP3    H152387   6.677   3.391  14.991  1.2587  1.3576 -1.2856
10324TIP3    H252388   6.547   3.356  14.921 -0.1079 -0.4586  1.9919
10325TIP3   OH252389   6.150   4.151  11.204 -0.1306  0.0340 -0.0162
10325TIP3    H152390   6.075   4.202  11.236  0.1791  0.2015  0.4486
10325TIP3    H252391   6.112   4.088  11.143 -0.4491  1.3038 -1.2030
10326TIP3   OH252392   5.699   3.098   5.132 -0.7916  0.0245  0.1954
10326TIP3    H152393   5.747   3.178   5.153  1.4863 -1.3579  0.5058
10326TIP3    H252394   5.721   3.078   5.041 -1.5542 -0.1411  0.0316
10327TIP3   OH252395   3.364   5.071  15.132  0.0670 -0.2165 -0.4090
10327TIP3    H152396   3.274   5.050  15.159 -0.3273  0.4752 -1.1588
10327TIP3    H252397   3.372   5.166  15.146  0.7484 -0.3022 -0.1716
10328TIP3   OH252398   0.222   5.374  15.876  0.0673  0.0279  0.0756
10328TIP3    H152399   0.268   5.457  15.888  0.5432 -0.5376  2.6423
10328TIP3    H252400   0.130   5.395  15.894  0.3125 -0.1319  1.6581
10329TIP3   OH252401   0.944   5.040   6.263 -1.0633 -0.0521 -0.3244
10329TIP3    H152402   0.947   5.081   6.350  1.2751 -3.1297  1.2789
10329TIP3    H252403   1.015   5.082   6.215  0.4866 -1.1641  0.8617
10330TIP3   OH252404   2.936   5.295   3.166  0.8906  0.0451  0.9812
10330TIP3    H152405   2.919   5.231   3.098 -0.6833  2.3222 -0.9248
10330TIP3    H252406   3.021   5.333   3.143 -0.0400  1.4250 -0.2969
10331TIP3   OH252407   3.759   3.988  13.255 -0.2382  0.0634  0.1491
10331TIP3    H152408   3.716   4.072  13.237  0.0165  0.4295  1.1882
10331TIP3    H252409   3.845   3.996  13.214 -0.0970  0.4370  0.5125
10332TIP3   OH252410   4.843   6.481  13.853 -0.5157 -0.1679  0.5479
10332TIP3    H152411   4.919   6.423  13.859 -1.0669 -1.8533 -4.4039
10332TIP3    H252412   4.876   6.557  13.804 -1.4772  0.1501  0.3810
10333TIP3   OH252413   1.042   4.495   3.175 -0.2260 -0.6188  0.6761
10333TIP3    H152414   1.129   4.517   3.208  0.8540 -1.9026 -1.1544
10333TIP3    H252415   1.044   4.400   3.162 -0.4954 -0.2445 -3.0558
10334TIP3   OH252416   1.537   6.288  13.582 -0.0004  0.1531 -0.3119
10334TIP3    H152417   1.620   6.245  13.603  1.1367  1.7789 -1.2779
10334TIP3    H252418   1.562   6.373  13.546 -2.0840  0.4994 -1.0750
10335TIP3   OH252419   4.035   2.096  15.877  0.6821  0.0805  0.2469
10335TIP3    H152420   4.107   2.033  15.876  0.8279  0.2448 -0.9792
10335TIP3    H252421   4.059   2.158  15.946  1.2642 -0.3824  0.4704
10336TIP3   OH252422   6.003   5.259   5.328  0.1868  0.1689  0.0633
10336TIP3    H152423   5.962   5.282   5.244 -1.4288  0.3053  0.8583
10336TIP3    H252424   6.088   5.304   5.326 -0.5396  1.5806 -0.7967
10337TIP3   OH252425   6.026   1.064  14.756  0.3191 -0.5939 -0.0941
10337TIP3    H152426   6.105   1.025  14.793 -0.3940 -2.0794 -0.0844
10337TIP3    H252427   5.967   0.990  14.742 -0.7065  0.3745 -1.0164
10338TIP3   OH252428   1.638   5.395  16.509  0.9741  0.5394  0.2162
10338TIP3    H152429   1.693   5.468  16.535  0.2365  0.5001  2.0280
10338TIP3    H252430   1.554   5.411  16.553  0.2964 -0.5876 -0.6112
10339TIP3   OH252431   3.923   4.768  17.042 -0.6600  0.0426  0.3034
10339TIP3    H152432   3.941   4.770  16.948 -1.9650  2.1481  0.0349
10339TIP3    H252433   3.946   4.679  17.069  0.5098 -0.3677 -1.8354
10340TIP3   OH252434   5.791   4.035  15.214  0.0688  0.1137 -0.4633
10340TIP3    H152435   5.806   4.074  15.128 -1.2186 -0.1965 -0.8490
10340TIP3    H252436   5.739   3.957  15.196 -2.0924  1.1797  0.7329
10341TIP3   OH252437   6.253   5.167  11.779 -0.0014 -0.5028 -0.1858
10341TIP3    H152438   6.190   5.164  11.851  0.8310 -0.7114  0.5559
10341TIP3    H252439   6.221   5.102  11.717 -0.1683 -1.0945  0.4957
10342TIP3   OH252440   4.729   1.558  17.185 -0.1258 -0.3384  0.3227
10342TIP3    H152441   4.776   1.602  17.256  0.6598 -1.5969  0.6097
10342TIP3    H252442   4.651   1.612  17.170  1.4506  1.9082 -0.2716
10343TIP3   OH252443   1.816   6.594  11.710 -0.5450  0.1375 -0.0419
10343TIP3    H152444   1.754   6.568  11.642 -0.3707  1.4520 -0.7367
10343TIP3    H252445   1.862   6.670  11.674 -1.6053  1.9713  2.1534
10344TIP3   OH252446   0.054   6.631  16.638 -0.1977  0.4764  0.4970
10344TIP3    H152447  -0.010   6.599  16.574 -0.6907  0.3285  1.0531
10344TIP3    H252448   0.000   6.673  16.706  0.4130  3.8569 -0.8839
10345TIP3   OH252449   2.655   1.736   4.802  0.1221 -0.0852  0.3625
10345TIP3    H152450   2.677   1.643   4.809  1.4653  0.2119  0.3943
10345TIP3    H252451   2.730   1.775   4.757 -0.6728  0.8985 -0.1498
10346TIP3   OH252452   0.503   6.040  13.223 -0.4976 -0.5030 -0.5130
10346TIP3    H152453   0.589   6.010  13.194 -0.8413 -2.2470  0.1408
10346TIP3    H252454   0.508   6.136  13.219  2.2146 -0.4340  1.5768
10347TIP3   OH252455   5.938   3.917   4.353  0.1224 -0.7305  0.2168
10347TIP3    H152456   5.934   3.965   4.436 -1.1972 -0.4398  0.0001
10347TIP3    H252457   5.983   3.977   4.293  0.1652 -0.5328  0.4457
10348TIP3   OH252458   4.758   6.198   1.249 -0.7136 -0.0232  0.8093
10348TIP3    H152459   4.752   6.106   1.275  1.6871 -0.2191  0.9408
10348TIP3    H252460   4.851   6.219   1.257 -1.1495  2.3410  0.4635
10349TIP3   OH252461   0.481   3.040   4.745  0.3299  0.0153  0.5832
10349TIP3    H152462   0.428   3.051   4.666 -2.1307 -1.5445  1.8496
10349TIP3    H252463   0.551   2.981   4.719  0.0267  0.1593 -0.6194
10350TIP3   OH252464   1.014   0.919  12.938  0.0629  0.5703  0.9745
10350TIP3    H152465   1.039   1.007  12.911 -0.4161  1.4763  3.2191
10350TIP3    H252466   1.091   0.865  12.920  1.0215  1.8249  1.1981
10351TIP3   OH252467   4.081   1.501  11.538 -0.0532  0.6318  0.3271
10351TIP3    H152468   4.123   1.546  11.611  1.2101  0.9010 -0.5404
10351TIP3    H252469   4.023   1.566  11.499 -0.6013  0.5381  0.9554
10352TIP3   OH252470   1.959   5.856   2.294  0.6152  0.0488  0.8968
10352TIP3    H152471   1.916   5.830   2.212 -0.2669 -0.0755  1.3851
10352TIP3    H252472   1.906   5.929   2.327  3.1628  2.7591 -0.5508
10353TIP3   OH252473   3.168   1.180  16.986  0.0688  0.0558 -0.2154
10353TIP3    H152474   3.103   1.250  16.992 -0.7794 -0.8103  1.2193
10353TIP3    H252475   3.116   1.100  16.983  1.0214 -0.7670  2.4540
10354TIP3   OH252476   2.283   5.571  16.893 -0.1008  0.1620 -0.2720
10354TIP3    H152477   2.265   5.500  16.832  0.5305  0.6468 -1.0387
10354TIP3    H252478   2.303   5.646  16.837  1.4657  0.3659  0.5250
10355TIP3   OH252479   6.136   5.463   2.112 -0.5533  0.2226  0.5209
10355TIP3    H152480   6.167   5.474   2.202  1.1050 -0.7181  0.1069
10355TIP3    H252481   6.066   5.398   2.118  0.8134 -1.2746  0.9516
10356TIP3   OH252482   3.720   2.756  14.923 -0.0478 -0.3719  0.0084
10356TIP3    H152483   3.725   2.746  14.828 -1.2726  0.2841 -0.1433
10356TIP3    H252484   3.778   2.688  14.957  1.6116  0.3404 -1.2278
10357TIP3   OH252485   3.661   4.101  14.860 -0.1527 -0.1490 -0.3562
10357TIP3    H152486   3.611   4.058  14.930  1.2836  1.3877  1.7731
10357TIP3    H252487   3.745   4.056  14.860  0.1795  0.4619 -0.4399
10358TIP3   OH252488   5.730   3.580  11.397 -0.3065  0.0930  0.2042
10358TIP3    H152489   5.774   3.497  11.414  1.1158  0.4221 -1.5126
10358TIP3    H252490   5.766   3.640  11.462  0.9653  0.0662 -0.4438
10359TIP3   OH252491   2.815   5.796   4.275 -0.2207  0.0084  0.1914
10359TIP3    H152492   2.725   5.822   4.257 -0.1393 -0.3384 -0.7647
10359TIP3    H252493   2.841   5.743   4.199  0.7526  0.0267  0.4942
10360TIP3   OH252494   1.911   3.066  13.087  0.2535 -0.2175  0.5470
10360TIP3    H152495   1.976   3.035  13.024  0.7641 -0.0120  0.9548
10360TIP3    H252496   1.839   3.100  13.034  0.6086 -0.1830  0.0810
10361TIP3   OH252497   5.376   3.857  15.412  0.4403  0.1339  0.5614
10361TIP3    H152498   5.408   3.803  15.340 -2.3099  1.1723 -1.6127
10361TIP3    H252499   5.451   3.912  15.435  1.4182 -0.1518 -1.6357
10362TIP3   OH252500   2.267   5.441   0.442  0.1708 -0.0501  0.1195
10362TIP3    H152501   2.352   5.418   0.405  0.2114  0.3464 -0.0338
10362TIP3    H252502   2.212   5.364   0.426 -0.0322  0.3899 -1.4385
10363TIP3   OH252503   4.982   4.834  16.710  0.6070  0.4458  0.4538
10363TIP3    H152504   4.944   4.909  16.756  0.5066 -0.5000  1.9835
10363TIP3    H252505   4.991   4.864  16.619 -0.6741  1.8433  0.7345
10364TIP3   OH252506   1.695   0.264  13.380  0.2054  0.9388 -0.1626
10364TIP3    H152507   1.629   0.248  13.312  2.6674 -2.3190 -2.0530
10364TIP3    H252508   1.756   0.326  13.340  0.4768  0.7456 -0.0470
10365TIP3   OH252509   3.501   4.616  11.171  0.0465  0.0914 -0.2020
10365TIP3    H152510   3.426   4.558  11.173  1.3363 -1.8367 -2.4412
10365TIP3    H252511   3.471   4.697  11.213 -2.6497 -1.2327  0.5907
10366TIP3   OH252512   1.410   4.055  14.695 -0.0450  0.3069 -0.1040
10366TIP3    H152513   1.503   4.035  14.682  0.7104  2.9911  0.4866
10366TIP3    H252514   1.401   4.066  14.789 -0.4708  1.9769 -0.3061
10367TIP3   OH252515   2.044   0.076  16.496  0.1984  0.4693  0.6945
10367TIP3    H152516   2.081   0.034  16.574 -0.1364 -0.4890  0.3553
10367TIP3    H252517   2.022   0.003  16.437 -0.8010  1.0941  0.2556
10368TIP3   OH252518   0.913   0.501   5.016  0.2043 -0.1829 -0.1325
10368TIP3    H152519   0.950   0.540   4.937  0.3660  1.6200  0.7846
10368TIP3    H252520   0.825   0.538   5.022 -0.3661 -1.4597 -0.2310
10369TIP3   OH252521   5.964   1.298   5.709 -0.2549 -0.0698  0.1885
10369TIP3    H152522   5.964   1.208   5.743  0.2864 -0.7048 -1.3991
10369TIP3    H252523   5.875   1.330   5.723 -0.9221 -1.4556 -0.7159
10370TIP3   OH252524   6.147   0.103  16.143  0.1102 -0.3211  0.5765
10370TIP3    H152525   6.127   0.089  16.236  2.0910 -2.2427  0.8014
10370TIP3    H252526   6.167   0.015  16.110  0.9047  0.5231 -1.3126
10371TIP3   OH252527   0.563   2.671  14.151 -0.3686  0.4606 -0.2424
10371TIP3    H152528   0.629   2.722  14.104 -1.2703  1.6385 -0.3098
10371TIP3    H252529   0.607   2.639  14.229  0.6569  0.0092 -0.9871
10372TIP3   OH252530   0.515   1.806   5.731 -0.1813  0.0818 -0.0409
10372TIP3    H152531   0.438   1.858   5.706  0.5943  1.7577  0.8593
10372TIP3    H252532   0.516   1.811   5.827 -0.6129 -2.4767  0.1568
10373TIP3   OH252533   2.930   2.083   1.458 -0.2740  0.1038  0.2511
10373TIP3    H152534   2.894   1.995   1.455 -0.9213  0.2792  1.8049
10373TIP3    H252535   2.965   2.098   1.370 -1.5706 -1.0996 -0.5195
10374TIP3   OH252536   0.111   3.590   1.950 -0.5931  1.0910 -0.7723
10374TIP3    H152537   0.034   3.641   1.977  0.6349  1.5154  2.2542
10374TIP3    H252538   0.183   3.653   1.950  0.6565 -0.2495  1.4852
10375TIP3   OH252539   4.012   6.468  13.522 -0.5233  0.5098  0.4803
10375TIP3    H152540   3.919   6.472  13.499 -0.6211  0.1253  0.7937
10375TIP3    H252541   4.018   6.398  13.587  0.4189 -1.6229 -1.7471
10376TIP3   OH252542   2.380   4.608  12.775 -0.9508 -0.3939  0.0733
10376TIP3    H152543   2.379   4.700  12.749  1.0582 -0.8351 -1.7988
10376TIP3    H252544   2.433   4.606  12.855 -0.8951  0.0441  0.0488
10377TIP3   OH252545   3.287   3.403  11.586  0.5592 -0.5198 -0.4114
10377TIP3    H152546   3.238   3.388  11.506  0.2178 -1.1775 -0.0882
10377TIP3    H252547   3.275   3.496  11.605  1.7474 -0.0383 -1.8369
10378TIP3   OH252548   4.632   0.203  12.406 -0.1448 -0.2571  0.0769
10378TIP3    H152549   4.711   0.218  12.458 -0.0919  0.0483 -0.0878
10378TIP3    H252550   4.571   0.272  12.435  0.1272  0.3409 -0.7433
10379TIP3   OH252551   3.944   5.781   3.527  0.3664 -0.2125  0.4322
10379TIP3    H152552   4.034   5.812   3.534  1.1008 -2.0705 -0.2293
10379TIP3    H252553   3.951   5.685   3.529 -1.6642 -0.4058  1.1531
10380TIP3   OH252554   4.767   4.626  12.525  0.2883  0.4730  0.1198
10380TIP3    H152555   4.832   4.595  12.462  0.0664 -3.0313  1.4148
10380TIP3    H252556   4.807   4.702  12.566  1.6900  1.0006 -2.0578
10381TIP3   OH252557   5.600   2.206   0.963  0.1670 -0.0906 -0.2816
10381TIP3    H152558   5.598   2.286   0.911 -0.7223 -0.6129 -1.0910
10381TIP3    H252559   5.651   2.144   0.911  0.4308 -0.2095  0.1092
10382TIP3   OH252560   0.058   3.436   5.333  0.6757  0.1717  0.4695
10382TIP3    H152561   0.016   3.511   5.289  0.4293  0.3524  0.9974
10382TIP3    H252562   0.111   3.476   5.402  1.4205 -0.0812  0.0489
10383TIP3   OH252563   5.303   1.514   0.073 -0.2555 -0.0358  0.4841
10383TIP3    H152564   5.335   1.445   0.015 -0.3888  0.3169 -0.0065
10383TIP3    H252565   5.212   1.527   0.048 -0.3976 -0.0840  0.9674
10384TIP3   OH252566   0.602   6.085   0.730  0.1854  0.0998 -0.5524
10384TIP3    H152567   0.684   6.125   0.759  0.3982 -0.1736 -0.7695
10384TIP3    H252568   0.538   6.156   0.734  0.2733  0.1321  0.3000
10385TIP3   OH252569   6.021   5.201   2.959 -0.2015  0.2021  0.3487
10385TIP3    H152570   6.090   5.260   2.931 -1.8796  1.0662 -2.3536
10385TIP3    H252571   6.064   5.140   3.019  3.2696 -0.3556 -2.4352
10386TIP3   OH252572   1.454   5.846  12.607 -0.1587  0.4239 -0.4623
10386TIP3    H152573   1.461   5.841  12.511  1.9011 -0.8574 -0.2941
10386TIP3    H252574   1.545   5.842  12.638 -0.8648 -1.2600  1.6172
10387TIP3   OH252575   6.503   4.528  13.486  1.0391 -0.4256 -0.5159
10387TIP3    H152576   6.480   4.598  13.425  1.0889 -1.3543 -1.6323
10387TIP3    H252577   6.503   4.570  13.572 -2.3585  0.1937 -0.7144
10388TIP3   OH252578   2.185   2.729   3.690  0.0595  0.3190  0.0091
10388TIP3    H152579   2.198   2.685   3.605 -2.0603 -2.5391  1.0161
10388TIP3    H252580   2.106   2.780   3.679  1.4345  2.4485 -0.5468
10389TIP3   OH252581   2.445   1.648   4.217  0.1457 -0.3031  0.4042
10389TIP3    H152582   2.485   1.734   4.212  0.5534 -0.5656 -2.1320
10389TIP3    H252583   2.385   1.653   4.291  0.2105  2.1283  0.3551
10390TIP3   OH252584   1.771   6.660   5.181 -0.7708 -0.3605  0.1957
10390TIP3    H152585   1.784   6.625   5.269 -0.2875  0.1900  0.3463
10390TIP3    H252586   1.836   6.729   5.172 -0.2250 -0.9876 -0.9139
10391TIP3   OH252587   1.979   5.496  14.608  0.6506 -0.3072 -0.4465
10391TIP3    H152588   2.044   5.505  14.538 -0.3647  1.8779 -1.1780
10391TIP3    H252589   2.032   5.486  14.688  1.8873  0.7472 -1.0935
10392TIP3   OH252590   2.512   4.175   5.333 -0.7835 -0.1356 -0.0648
10392TIP3    H152591   2.442   4.236   5.310 -0.2823  0.8419  0.8915
10392TIP3    H252592   2.540   4.138   5.250 -2.3330 -0.4458 -0.4782
10393TIP3   OH252593   0.119   0.116   2.463 -0.5258  0.0587  0.0208
10393TIP3    H152594   0.077   0.200   2.480  0.5272  0.4752  0.6822
10393TIP3    H252595   0.213   0.136   2.462 -0.3174 -0.8323 -1.3886
10394TIP3   OH252596   4.920   0.640   5.744  0.0499 -0.3378  0.1113
10394TIP3    H152597   4.915   0.695   5.822  2.0645  0.0769 -0.0024
10394TIP3    H252598   4.858   0.681   5.682  1.2909  1.7108  0.1181
10395TIP3   OH252599   5.091   6.283  15.578  0.1544 -0.4085 -0.5123
10395TIP3    H152600   5.106   6.204  15.630 -1.8708 -0.1571  0.5615
10395TIP3    H252601   5.071   6.251  15.491  0.5181 -1.0038 -0.3832
10396TIP3   OH252602   5.893   6.624   4.788 -0.0270  0.8637  0.5674
10396TIP3    H152603   5.940   6.567   4.849 -0.5356  0.1552  0.3147
10396TIP3    H252604   5.805   6.586   4.782  0.4521 -0.0583 -1.7962
10397TIP3   OH252605   5.289   5.047  13.189 -0.3064 -0.3819  0.1431
10397TIP3    H152606   5.235   4.970  13.178  0.1992 -0.4882 -1.8486
10397TIP3    H252607   5.359   5.038  13.125 -0.4582  1.9208 -0.4541
10398TIP3   OH252608   2.379   1.300  14.247 -0.3894 -0.4815 -0.0951
10398TIP3    H152609   2.454   1.242  14.237 -0.6890 -1.0196  0.6552
10398TIP3    H252610   2.366   1.306  14.342 -2.2313 -1.6789 -0.2166
10399TIP3   OH252611   3.699   5.723  11.295  0.3810  0.4461 -0.2054
10399TIP3    H152612   3.708   5.793  11.230 -0.0276  0.3052 -0.4171
10399TIP3    H252613   3.617   5.680  11.272  0.3039  0.3117  0.3281
10400TIP3   OH252614   1.440   2.927  17.144 -0.1144 -0.1890  0.5279
10400TIP3    H152615   1.405   3.012  17.118 -2.2243 -0.9265  0.7212
10400TIP3    H252616   1.523   2.919  17.098  0.1226  1.9617  0.5234
10401TIP3   OH252617   1.749   1.334  15.794  0.1975 -0.2717 -0.3587
10401TIP3    H152618   1.792   1.381  15.722  0.5287  0.5523  0.3599
10401TIP3    H252619   1.821   1.301  15.848 -0.0326  0.6716  0.5683
10402TIP3   OH252620   2.748   3.365   4.561 -0.0135  0.0951 -0.1445
10402TIP3    H152621   2.680   3.390   4.623 -2.9618  0.7123 -3.3816
10402TIP3    H252622   2.768   3.274   4.584 -2.7159 -0.4625  0.3415
10403TIP3   OH252623   2.777   5.238   4.680 -0.2591 -0.1345 -0.1099
10403TIP3    H152624   2.729   5.290   4.745 -0.2965 -1.0574  0.6142
10403TIP3    H252625   2.814   5.165   4.730 -0.6010 -1.0755 -1.1904
10404TIP3   OH252626   1.870   1.968   5.154 -0.3553 -0.1458  0.8994
10404TIP3    H152627   1.899   2.058   5.141  0.7463 -0.4123  1.4311
10404TIP3    H252628   1.822   1.970   5.237 -0.9224  0.0782  0.5706
10405TIP3   OH252629   3.778   0.540   4.879  0.2170  0.5428 -0.0182
10405TIP3    H152630   3.838   0.545   4.805  0.6531  0.4893  0.3260
10405TIP3    H252631   3.784   0.449   4.910 -2.3972 -0.3926 -1.8942
10406TIP3   OH252632   1.031   2.450   1.110 -0.2166  0.8322  0.3996
10406TIP3    H152633   1.083   2.379   1.147 -3.0959 -0.1439  3.0276
10406TIP3    H252634   0.963   2.407   1.059 -0.9318  1.8002  0.5079
10407TIP3   OH252635   3.372   5.037  13.440 -0.6515 -0.1517 -0.0655
10407TIP3    H152636   3.377   5.132  13.433 -1.0560 -0.1223  0.0114
10407TIP3    H252637   3.391   5.019  13.532 -0.1138 -0.1813 -0.1806
10408TIP3   OH252638   4.504   0.236  16.765 -0.4410  0.3378 -0.1362
10408TIP3    H152639   4.472   0.296  16.699  0.9310  2.4187  0.9788
10408TIP3    H252640   4.505   0.287  16.846 -0.1809 -1.5000  1.0905
10409TIP3   OH252641   5.750   2.792   2.395  0.0207 -0.4628  0.0204
10409TIP3    H152642   5.697   2.857   2.442 -1.3180 -1.5038  0.0155
10409TIP3    H252643   5.838   2.804   2.429 -0.4739  0.3971  1.0717
10410TIP3   OH252644   2.148   6.091  15.703  0.1368  0.9390 -0.3399
10410TIP3    H152645   2.240   6.069  15.687  0.4361  0.7495  1.4505
10410TIP3    H252646   2.151   6.168  15.759 -0.8099  0.9599 -0.3007
10411TIP3   OH252647   0.458   3.958   0.236 -0.1682 -0.6656 -0.4478
10411TIP3    H152648   0.375   3.988   0.199 -0.6546 -0.1310  1.0093
10411TIP3    H252649   0.449   3.863   0.242 -0.9201 -0.5705  0.2005
10412TIP3   OH252650   5.869   5.158  12.745 -0.4254 -0.4483 -0.5944
10412TIP3    H152651   5.779   5.158  12.778  0.0562  0.7591  0.8633
10412TIP3    H252652   5.865   5.110  12.663 -2.1385 -1.6748  0.1513
10413TIP3   OH252653   6.658   6.169   4.646 -0.5506 -0.3826 -0.5216
10413TIP3    H152654   6.693   6.141   4.561 -0.1853  2.7715 -1.5434
10413TIP3    H252655   6.600   6.242   4.625 -2.7646 -1.3423  1.7675
10414TIP3   OH252656   3.674   3.150  10.896  0.2844 -0.2675 -0.3894
10414TIP3    H152657   3.753   3.165  10.845  1.2789 -1.9639  0.5663
10414TIP3    H252658   3.656   3.057  10.887 -1.1838 -0.0526  0.0201
10415TIP3   OH252659   0.187   2.210   3.513 -0.0618  0.0080 -0.6600
10415TIP3    H152660   0.143   2.230   3.596  2.0064  0.5569  0.3729
10415TIP3    H252661   0.223   2.294   3.485  0.7573 -0.5099 -1.1804
10416TIP3   OH252662   2.556   2.530  15.682  0.3715 -0.6080 -0.2797
10416TIP3    H152663   2.579   2.457  15.624  2.4619  1.0627 -1.7187
10416TIP3    H252664   2.472   2.562  15.649  1.2603 -0.0412 -2.0815
10417TIP3   OH252665   2.960   1.701  17.155  0.7546 -0.2980 -0.7923
10417TIP3    H152666   2.886   1.748  17.117  0.8790  0.9632  0.4184
10417TIP3    H252667   2.951   1.716  17.249  1.0381 -2.4222 -0.3920
10418TIP3   OH252668   3.691   2.102   6.313  0.0704 -0.2945  0.5836
10418TIP3    H152669   3.731   2.185   6.288  1.5952 -1.4345 -0.9796
10418TIP3    H252670   3.761   2.054   6.357 -0.1477 -1.5286 -0.3490
10419TIP3   OH252671   0.897   1.125   1.904 -0.5406  0.3740 -0.4128
10419TIP3    H152672   0.989   1.123   1.879 -0.7313 -0.0071 -1.1164
10419TIP3    H252673   0.889   1.060   1.973 -0.1685  0.8280  0.0602
10420TIP3   OH252674   0.574   5.392  16.741  0.1162 -0.2763 -0.5375
10420TIP3    H152675   0.667   5.387  16.721  0.5767 -1.1591  1.5447
10420TIP3    H252676   0.534   5.429  16.662  1.9962 -1.3902 -2.0947
10421TIP3   OH252677   5.644   4.287  16.206 -0.1656 -0.4102  0.0007
10421TIP3    H152678   5.724   4.248  16.241  0.3494  0.1968 -0.4651
10421TIP3    H252679   5.675   4.354  16.144 -1.0339 -0.6735 -0.7439
10422TIP3   OH252680   6.202   2.292   0.586  0.4501  0.3859  0.1022
10422TIP3    H152681   6.283   2.293   0.637 -0.5551  0.7710  1.7835
10422TIP3    H252682   6.176   2.200   0.585  0.9604  0.2435 -0.5481
10423TIP3   OH252683   2.207   5.967  15.991 -0.3855 -0.5868  0.0766
10423TIP3    H152684   2.166   6.028  15.929 -0.2932 -1.1181 -0.5186
10423TIP3    H252685   2.183   5.881  15.958  0.8185 -0.9048 -0.0090
10424TIP3   OH252686   1.794   1.273   3.153 -0.4867 -0.3855 -0.4692
10424TIP3    H152687   1.887   1.260   3.133 -0.3243  1.1480 -0.8248
10424TIP3    H252688   1.771   1.354   3.109 -1.4307  0.4299  1.3948
10425TIP3   OH252689   3.376   2.149   2.302 -0.0229  0.7942 -0.4875
10425TIP3    H152690   3.359   2.170   2.210 -0.2538  0.7434 -0.4552
10425TIP3    H252691   3.421   2.227   2.336  0.3440  0.6903 -0.7217
10426TIP3   OH252692   0.878   0.472   0.053  0.2086 -0.2449 -0.0880
10426TIP3    H152693   0.789   0.438   0.039  0.2782 -1.0068  1.1504
10426TIP3    H252694   0.926   0.398   0.090  0.7790  0.7941  1.3195
10427TIP3   OH252695   5.381   1.599  17.120 -0.8990  0.2528 -0.4825
10427TIP3    H152696   5.416   1.688  17.122  0.9994 -0.3954 -1.6348
10427TIP3    H252697   5.296   1.607  17.076 -0.6880  1.4589 -0.6951
10428TIP3   OH252698   0.886   0.147   3.810  0.5465  0.4907  0.1110
10428TIP3    H152699   0.868   0.121   3.720  1.5507  2.0374 -0.5694
10428TIP3    H252700   0.801   0.173   3.846  0.0389 -0.7287 -0.1560
10429TIP3   OH252701   3.005   1.806   1.751  0.2602  0.0906 -0.4132
10429TIP3    H152702   2.994   1.737   1.816 -2.1085 -1.1071 -1.9461
10429TIP3    H252703   2.967   1.770   1.671  0.3307  2.6050 -1.6730
10430TIP3   OH252704   1.269   4.402   3.313  0.4024  0.3887 -0.0313
10430TIP3    H152705   1.225   4.353   3.382  2.2707  1.0150  1.6761
10430TIP3    H252706   1.340   4.345   3.284 -0.3108  0.1635 -1.4340
10431TIP3   OH252707   6.384   6.461   4.240  0.2400 -0.5284  0.0801
10431TIP3    H152708   6.403   6.462   4.146 -0.3834 -0.0469 -0.0494
10431TIP3    H252709   6.399   6.370   4.266  3.2667 -0.1347  0.1418
10432TIP3   OH252710   3.448   5.614   5.838  0.7285 -0.4942 -0.1791
10432TIP3    H152711   3.525   5.640   5.888  0.1219  0.5614  0.2256
10432TIP3    H252712   3.374   5.647   5.888  0.0862  0.2606 -1.5500
10433TIP3   OH252713   0.196   3.838   5.319  0.1851 -0.2721 -0.5316
10433TIP3    H152714   0.197   3.878   5.232 -1.7684  0.6091 -0.2137
10433TIP3    H252715   0.103   3.825   5.338  0.5550 -0.3805  1.4435
10434TIP3   OH252716   0.129   1.857   2.471  0.1251  0.6780  0.6968
10434TIP3    H152717   0.172   1.877   2.554 -0.1010  1.8112  0.5509
10434TIP3    H252718   0.048   1.813   2.495  0.8206 -0.4831  1.0074
10435TIP3   OH252719   5.207   5.653  15.809  0.6100 -0.3584  0.0808
10435TIP3    H152720   5.133   5.682  15.757  0.9166 -0.9801 -0.7385
10435TIP3    H252721   5.281   5.657  15.749  0.8668 -1.6779  0.2765
10436TIP3   OH252722   4.134   0.896  11.654  0.9096 -0.4186 -0.0692
10436TIP3    H152723   4.101   0.977  11.694  2.8671  0.2767  0.2711
10436TIP3    H252724   4.077   0.881  11.578  0.1406  0.9582  0.2116
10437TIP3   OH252725   2.056   0.728  11.863 -0.1915 -0.3254  0.2034
10437TIP3    H152726   1.974   0.778  11.860  0.8942  1.5492 -3.0951
10437TIP3    H252727   2.102   0.763  11.939 -1.7465 -0.2811  1.1757
10438TIP3   OH252728   5.541   2.431   3.246  0.2300  0.1344 -0.4165
10438TIP3    H152729   5.453   2.459   3.220 -0.9951 -0.2424  2.8224
10438TIP3    H252730   5.533   2.336   3.259  1.5015 -0.1135 -1.2666
10439TIP3   OH252731   3.119   4.217  12.944 -1.1930  0.4391  0.1752
10439TIP3    H152732   3.065   4.139  12.934 -1.5914  0.8307 -0.8868
10439TIP3    H252733   3.111   4.240  13.037  0.2258 -1.6807  0.8735
10440TIP3   OH252734   5.654   1.164  16.223 -0.2405  0.1844  0.3679
10440TIP3    H152735   5.685   1.074  16.214 -1.0190 -0.3492  2.3695
10440TIP3    H252736   5.611   1.183  16.140  2.4698 -0.1894 -1.2229
10441TIP3   OH252737   5.039   3.079  16.521 -0.3018 -0.0768  0.3187
10441TIP3    H152738   5.059   2.990  16.550 -2.1480 -0.3457  0.8565
10441TIP3    H252739   5.018   3.070  16.428 -0.6448 -0.2365  0.4096
10442TIP3   OH252740   0.126   1.344  15.210  0.0496  0.1490 -0.0070
10442TIP3    H152741   0.106   1.431  15.245  0.9979  0.3917 -0.0323
10442TIP3    H252742   0.052   1.323  15.154 -0.3575  0.7891  0.2822
10443TIP3   OH252743   4.221   2.521   3.411  0.1835  0.2302 -0.5085
10443TIP3    H152744   4.280   2.561   3.474 -2.0950  2.1816  0.5503
10443TIP3    H252745   4.166   2.462   3.463  0.0442 -0.2326 -1.1595
10444TIP3   OH252746   5.322   2.759   0.649 -0.2198 -0.2296  0.4799
10444TIP3    H152747   5.242   2.712   0.627  0.0818 -0.4851 -0.0862
10444TIP3    H252748   5.354   2.793   0.566 -0.8968  1.7571  0.9992
10445TIP3   OH252749   4.757   4.042   3.428  0.0263  0.0217 -0.1127
10445TIP3    H152750   4.763   4.120   3.372 -0.4337 -0.7783 -1.3386
10445TIP3    H252751   4.664   4.022   3.430  0.1368 -0.4678  0.2292
10446TIP3   OH252752   6.528   0.799  14.779  0.4340  0.9258 -0.0989
10446TIP3    H152753   6.599   0.771  14.837  1.4912  0.0227 -1.7661
10446TIP3    H252754   6.494   0.719  14.740 -2.5041  1.1534  1.6207
10447TIP3   OH252755   3.616   3.716  12.589 -0.5771  0.1668 -0.5582
10447TIP3    H152756   3.659   3.639  12.626 -1.3083  0.3709  0.8024
10447TIP3    H252757   3.616   3.701  12.495  1.1200 -0.5190 -0.4800
10448TIP3   OH252758   0.376   3.719  14.290  0.6021  0.2244  0.4180
10448TIP3    H152759   0.456   3.764  14.319 -0.2068  1.3288  1.0007
10448TIP3    H252760   0.356   3.758  14.205  2.5476 -2.4827 -1.4564
10449TIP3   OH252761   6.248   3.733  12.331  0.0632  0.2877  0.0709
10449TIP3    H152762   6.259   3.815  12.283 -0.5085  0.7581  0.7184
10449TIP3    H252763   6.165   3.744  12.377 -1.5998 -1.8515 -2.1529
10450TIP3   OH252764   1.680   0.508   3.834  0.0136  0.3387  0.4312
10450TIP3    H152765   1.615   0.547   3.777 -3.1270 -2.3722  1.8372
10450TIP3    H252766   1.712   0.432   3.786 -0.0942 -0.0278  0.9318
10451TIP3   OH252767   0.129   1.273   2.953 -0.3533 -0.5149 -0.4494
10451TIP3    H152768   0.061   1.224   2.999  0.3507 -2.3277 -1.2347
10451TIP3    H252769   0.179   1.206   2.906  1.2109  0.8891 -0.8854
10452TIP3   OH252770   3.193   3.218  13.876 -0.2845  0.3447  0.2331
10452TIP3    H152771   3.140   3.188  13.950  1.1724 -1.3009  0.6831
10452TIP3    H252772   3.208   3.311  13.892 -2.1061  0.5969  0.6374
10453TIP3   OH252773   3.357   6.680  11.268  0.1110 -0.4920  0.0156
10453TIP3    H152774   3.330   6.634  11.189 -1.0706 -1.1647  0.7667
10453TIP3    H252775   3.435   6.633  11.298  1.4246  0.6649 -1.5020
10454TIP3   OH252776   3.701   6.362   3.551 -0.0731 -0.1582  0.2854
10454TIP3    H152777   3.632   6.388   3.491  0.1570 -0.2985 -0.0428
10454TIP3    H252778   3.723   6.442   3.599  1.2756  0.5275 -1.3589
10455TIP3   OH252779   5.047   1.047  14.468  0.0317  0.3878 -0.4074
10455TIP3    H152780   4.957   1.056  14.498 -0.1533 -1.8381 -0.1475
10455TIP3    H252781   5.100   1.081  14.540 -0.5588  1.6148 -0.5242
10456TIP3   OH252782   5.373   5.408  10.623  0.1859 -0.1738  0.2871
10456TIP3    H152783   5.284   5.411  10.656 -0.2733  0.4571 -0.9274
10456TIP3    H252784   5.365   5.433  10.531  1.7992  1.6632  0.5671
10457TIP3   OH252785   4.209   3.474   2.069 -0.3161  0.1081  0.3437
10457TIP3    H152786   4.141   3.541   2.057  0.4060  0.5289 -1.8624
10457TIP3    H252787   4.266   3.510   2.138 -0.0169  1.7466 -0.6955
10458TIP3   OH252788   2.930   4.864   4.922  0.1789 -0.5137 -0.1479
10458TIP3    H152789   2.955   4.938   4.867  1.3064 -1.5455 -1.0710
10458TIP3    H252790   2.835   4.859   4.913  0.0060  1.1354  0.3828
10459TIP3   OH252791   5.992   1.814   2.675  0.4267  0.1276  0.7222
10459TIP3    H152792   5.914   1.811   2.620  1.8560  0.6342 -1.4750
10459TIP3    H252793   5.973   1.755   2.748 -1.2830 -1.2134 -0.7218
10460TIP3   OH252794   3.677   2.115   2.747  0.0889 -0.0529  0.1309
10460TIP3    H152795   3.655   2.036   2.699  0.5860  0.0120 -0.2094
10460TIP3    H252796   3.656   2.095   2.839  1.4236 -1.0468  0.2505
10461TIP3   OH252797   6.648   1.269   2.796 -0.1622  0.2073  0.1425
10461TIP3    H152798   6.621   1.357   2.767 -2.7096 -0.0524  1.4217
10461TIP3    H252799   6.707   1.286   2.870  0.0003  0.8544 -0.1258
10462TIP3   OH252800   1.611   2.877  15.839 -0.1351  0.0598 -0.4954
10462TIP3    H152801   1.698   2.913  15.822  0.3917 -1.2621 -0.7335
10462TIP3    H252802   1.615   2.848  15.931 -0.5697  0.6421 -0.2878
10463TIP3   OH252803   3.425   4.472   0.417 -0.1844 -0.3380 -0.5144
10463TIP3    H152804   3.463   4.387   0.438 -1.1095 -0.9960 -1.3696
10463TIP3    H252805   3.396   4.507   0.501 -0.1191 -1.0349 -0.1912
10464TIP3   OH252806   2.363   1.784   5.522 -0.2421 -0.1922  0.9006
10464TIP3    H152807   2.279   1.741   5.505 -0.8756  1.9787 -2.2509
10464TIP3    H252808   2.341   1.858   5.578 -0.1861 -0.3587  1.1463
10465TIP3   OH252809   6.459   6.426   2.769  0.0565 -0.3623  0.5721
10465TIP3    H152810   6.382   6.478   2.746  0.1539 -0.0414  0.9719
10465TIP3    H252811   6.500   6.406   2.684  0.1328  0.3850  0.4281
10466TIP3   OH252812   6.270   0.021   5.736  0.2470 -0.2507 -0.0835
10466TIP3    H152813   6.314  -0.049   5.785 -0.5561 -2.4098 -2.2233
10466TIP3    H252814   6.181  -0.013   5.721 -0.0863  1.1085 -1.4513
10467TIP3   OH252815   0.097   0.269   0.472 -0.0019  0.4130  0.3796
10467TIP3    H152816   0.146   0.340   0.430 -0.5483  0.9478  0.6227
10467TIP3    H252817   0.025   0.251   0.411 -1.2110  1.6771  1.3748
10468TIP3   OH252818   6.084   6.164  11.788 -0.1942 -0.0695 -0.0036
10468TIP3    H152819   6.106   6.229  11.854  0.4720 -0.4710  0.1805
10468TIP3    H252820   6.127   6.195  11.709  0.3001 -0.3883  0.1358
10469TIP3   OH252821   4.817   4.718   3.212  0.3469 -0.3014 -0.0405
10469TIP3    H152822   4.873   4.684   3.283  0.9367  0.1244 -0.2927
10469TIP3    H252823   4.849   4.673   3.134  0.9203  0.5865 -0.3257
10470TIP3   OH252824   6.194   4.121   2.920 -0.5089 -0.0520 -0.1294
10470TIP3    H152825   6.241   4.044   2.953 -0.7120 -0.1441 -0.0496
10470TIP3    H252826   6.101   4.099   2.933 -0.5729  0.1291 -0.2790
10471TIP3   OH252827   2.300   1.469  13.833  0.0658 -1.1091  0.2304
10471TIP3    H152828   2.385   1.434  13.862  0.3076 -0.1813  0.6729
10471TIP3    H252829   2.313   1.491  13.741  0.9106  0.7744  0.7529
10472TIP3   OH252830   1.990   0.635   0.697  0.1158  0.2349  0.2138
10472TIP3    H152831   2.082   0.609   0.701  0.0641  0.1208  0.6760
10472TIP3    H252832   1.968   0.628   0.604  1.0022  1.7457 -0.1477
10473TIP3   OH252833   2.607   5.496   1.588  0.0153 -0.4506  0.0915
10473TIP3    H152834   2.558   5.445   1.653 -0.4654 -2.2749 -1.6146
10473TIP3    H252835   2.655   5.431   1.537  0.9349  0.9809 -0.9459
10474TIP3   OH252836   2.566   1.971   4.981 -0.6622 -0.0133  0.2482
10474TIP3    H152837   2.573   2.062   5.010  1.0191 -0.0974  0.2010
10474TIP3    H252838   2.551   1.922   5.062  1.3529  0.0374  0.7128
10475TIP3   OH252839   5.959   0.673   3.045  0.0488 -0.4580  0.1279
10475TIP3    H152840   6.054   0.671   3.058  0.1621 -1.8399 -0.6785
10475TIP3    H252841   5.948   0.666   2.950 -0.8589  0.7334  0.1294
10476TIP3   OH252842   0.112   2.202   1.041  0.0264 -0.0712  0.1120
10476TIP3    H152843   0.037   2.181   1.096 -0.0177 -0.9371 -0.2597
10476TIP3    H252844   0.081   2.188   0.952 -0.3804  2.8073 -0.2968
10477TIP3   OH252845   2.812   0.817  15.489 -0.1623  0.1632  0.1113
10477TIP3    H152846   2.783   0.757  15.420  2.4220 -2.1829  0.9209
10477TIP3    H252847   2.897   0.850  15.459 -0.4753  1.6619  0.7628
10478TIP3   OH252848   4.763   2.814  10.574 -0.5364 -0.0675  0.4706
10478TIP3    H152849   4.760   2.870  10.496  0.4727 -0.2097  0.3284
10478TIP3    H252850   4.705   2.858  10.636 -2.7808 -0.8755 -0.9306
10479TIP3   OH252851   0.135   3.985   1.981  0.0244 -0.1722 -0.2145
10479TIP3    H152852   0.171   4.031   1.905 -1.4639  1.4566 -0.0061
10479TIP3    H252853   0.067   3.929   1.945 -0.0251 -0.1288 -0.1889
10480TIP3   OH252854   3.138   3.285   0.049  0.7415 -0.0658  0.1869
10480TIP3    H152855   3.204   3.254  -0.014  1.6069  1.1559  0.4639
10480TIP3    H252856   3.058   3.239   0.023  1.2771 -0.2499 -1.2811
10481TIP3   OH252857   2.148   6.405  15.564  0.6293  0.2010  0.1928
10481TIP3    H152858   2.138   6.496  15.593  1.5644  0.9293 -1.5962
10481TIP3    H252859   2.079   6.392  15.499 -1.7794 -1.5787  2.8493
10482TIP3   OH252860   4.952   1.932  15.162  0.3776 -0.4017 -0.1631
10482TIP3    H152861   4.989   1.936  15.074  1.6965  0.9892  0.4138
10482TIP3    H252862   4.865   1.970  15.154  1.1518  1.3867 -0.5898
10483TIP3   OH252863   0.783   0.704   2.423 -0.2439 -0.3256  0.0695
10483TIP3    H152864   0.713   0.706   2.488 -0.5335  0.3045 -0.2512
10483TIP3    H252865   0.845   0.771   2.452  0.2764 -0.9397  0.3984
10484TIP3   OH252866   1.860   6.410   4.387 -0.0435 -0.4939  0.0312
10484TIP3    H152867   1.882   6.501   4.404  2.0959 -0.9804  0.2451
10484TIP3    H252868   1.830   6.410   4.296  0.2123  0.3982 -0.0675
10485TIP3   OH252869   6.404   1.512   5.632  0.5979 -0.2757  0.3893
10485TIP3    H152870   6.424   1.452   5.560 -1.3367  0.2622 -0.6605
10485TIP3    H252871   6.315   1.543   5.614  1.7204  3.4898  0.4377
10486TIP3   OH252872   0.636   3.803   2.896 -0.2513  0.0660 -0.1011
10486TIP3    H152873   0.667   3.815   2.986  0.1000  0.2216 -0.2401
10486TIP3    H252874   0.629   3.892   2.861 -0.4324  0.0084 -0.2144
10487TIP3   OH252875   3.128   5.528  16.484  0.2790 -0.1081 -0.8002
10487TIP3    H152876   3.134   5.446  16.533 -0.1972  0.1846 -0.2545
10487TIP3    H252877   3.092   5.503  16.399 -0.2482 -0.4065 -0.4898
10488TIP3   OH252878   4.676   6.519  16.738 -0.0365 -0.3442 -0.0279
10488TIP3    H152879   4.674   6.519  16.834 -0.9562  4.3696  0.2023
10488TIP3    H252880   4.598   6.568  16.712  0.8985 -0.2614 -3.1174
10489TIP3   OH252881   1.940   6.124   5.841  0.2987  0.1544  0.1177
10489TIP3    H152882   1.851   6.147   5.816 -0.1691 -1.4681  0.2309
10489TIP3    H252883   1.935   6.106   5.935  0.9420  0.8743  0.3106
10490TIP3   OH252884   5.193   0.338   4.038 -0.1247  0.2402 -0.3157
10490TIP3    H152885   5.199   0.369   3.947  2.1048 -1.2536 -0.7778
10490TIP3    H252886   5.125   0.271   4.036 -1.8465  1.9211 -0.2782
10491TIP3   OH252887   0.307   6.000  12.241  0.3456 -0.6394 -0.3198
10491TIP3    H152888   0.248   6.074  12.228  0.8166 -0.5692 -2.2908
10491TIP3    H252889   0.264   5.927  12.196  0.8331 -1.0712 -0.0978
10492TIP3   OH252890   3.820   4.711   0.894  0.2660 -0.3531 -0.0939
10492TIP3    H152891   3.789   4.637   0.841  0.3569 -1.5760  1.4889
10492TIP3    H252892   3.740   4.749   0.931  0.2642 -0.0302 -0.4269
10493TIP3   OH252893   3.983   6.164   0.574  0.0756  0.7749 -0.6045
10493TIP3    H152894   3.939   6.244   0.547 -0.5730  0.3004 -0.9858
10493TIP3    H252895   4.037   6.190   0.649 -0.3666  1.5007 -0.5323
10494TIP3   OH252896   3.963   1.840  16.406 -0.2997  0.5990  0.7028
10494TIP3    H152897   3.942   1.916  16.352  0.4647  0.4161  0.1345
10494TIP3    H252898   4.019   1.786  16.350  0.5634  0.4379  1.6987
10495TIP3   OH252899   0.689   4.007   5.757  0.8671 -0.2430 -0.2873
10495TIP3    H152900   0.773   4.010   5.711  1.0823 -1.9995 -0.0792
10495TIP3    H252901   0.708   3.966   5.841 -0.1301 -0.3676 -0.1036
10496TIP3   OH252902   3.481   1.026   2.712 -0.4054  0.4604 -0.3283
10496TIP3    H152903   3.566   1.067   2.693 -0.1194 -0.3897 -1.0025
10496TIP3    H252904   3.435   1.027   2.628 -1.3098  1.4183  0.1548
10497TIP3   OH252905   2.003   1.480   4.282  0.1163 -0.1282 -0.3293
10497TIP3    H152906   1.973   1.427   4.355 -0.7086 -0.7763 -1.1087
10497TIP3    H252907   2.044   1.418   4.222 -0.4431  0.1663 -1.0357
10498TIP3   OH252908   2.158   1.099   4.799 -0.6243  0.5652 -0.1126
10498TIP3    H152909   2.248   1.076   4.777 -0.0349  0.7460  1.9024
10498TIP3    H252910   2.107   1.020   4.778  0.0411  0.3356 -0.9274
10499TIP3   OH252911   4.577   0.837  11.500  0.4044 -0.0600  0.0801
10499TIP3    H152912   4.529   0.893  11.439  1.3117  0.7036  0.0442
10499TIP3    H252913   4.598   0.759  11.448  1.0150  0.5037 -0.5425
10500TIP3   OH252914   3.167   0.032   5.534 -0.3895 -0.4804 -0.1871
10500TIP3    H152915   3.145   0.094   5.603 -1.9931 -0.3189 -0.8105
10500TIP3    H252916   3.117  -0.047   5.556  0.8513 -1.2201  0.0515
10501TIP3   OH252917   4.681   5.929  10.879  0.6537  0.2793 -0.0799
10501TIP3    H152918   4.674   5.843  10.836  0.9867  0.8143 -1.2359
10501TIP3    H252919   4.770   5.958  10.859  0.6646  0.7392  0.6175
10502TIP3   OH252920   5.358   5.136  13.452 -0.1222 -0.4140 -0.1106
10502TIP3    H152921   5.399   5.060  13.495  0.2793 -0.9230 -1.3342
10502TIP3    H252922   5.351   5.110  13.360  0.4389  1.2103 -0.6430
10503TIP3   OH252923   1.159   0.088  12.078  0.5254 -0.0480 -0.2764
10503TIP3    H152924   1.252   0.082  12.102  1.1858  1.7965 -2.0605
10503TIP3    H252925   1.157   0.062  11.986 -0.4374  1.3732 -0.6931
10504TIP3   OH252926   5.705   4.953  13.423  0.1891  0.0002 -0.3667
10504TIP3    H152927   5.739   5.043  13.425  0.8391 -0.1528 -2.7326
10504TIP3    H252928   5.773   4.901  13.465  1.0063  0.2647 -1.3481
10505TIP3   OH252929   0.504   3.325   0.087 -0.0724 -0.4653 -0.0939
10505TIP3    H152930   0.533   3.384   0.157  1.8122 -1.1418 -0.2492
10505TIP3    H252931   0.434   3.273   0.127  0.1219  0.0111  0.9078
10506TIP3   OH252932   4.491   6.375  12.782 -0.5584  0.3589  0.1482
10506TIP3    H152933   4.578   6.414  12.791 -0.2329  0.2708 -2.1070
10506TIP3    H252934   4.506   6.281  12.798  0.1674  0.0600 -1.9939
10507TIP3   OH252935   6.192   3.164   4.867  0.4204  0.2401 -0.8223
10507TIP3    H152936   6.189   3.182   4.773 -0.2659 -0.0594 -0.8618
10507TIP3    H252937   6.279   3.125   4.880  0.8156  0.9820 -1.1972
10508TIP3   OH252938   1.379   5.638  15.731  0.7462  0.1584  0.1643
10508TIP3    H152939   1.299   5.690  15.738  0.3683 -0.4277  0.1935
10508TIP3    H252940   1.368   5.587  15.651  0.4719 -0.9630  0.8950
10509TIP3   OH252941   4.035   1.541  10.560  0.1149  0.1410 -0.0639
10509TIP3    H152942   4.032   1.538  10.464 -2.2819 -1.4532 -0.0034
10509TIP3    H252943   3.944   1.547  10.587  0.7473  0.6144  2.1609
10510TIP3   OH252944   1.908   0.481   3.363 -0.6377  0.3070  0.3533
10510TIP3    H152945   1.947   0.397   3.338  0.6409  0.7780  0.7174
10510TIP3    H252946   1.976   0.526   3.412 -1.4729  1.3758  0.5742
10511TIP3   OH252947   4.334   4.778  16.741 -0.2475 -0.5604 -0.1859
10511TIP3    H152948   4.305   4.736  16.661  0.7500 -0.2060 -0.7438
10511TIP3    H252949   4.426   4.799  16.726  0.8124 -3.0082  2.1036
10512TIP3   OH252950   1.660   1.206  14.648 -0.0271 -0.0385 -0.2342
10512TIP3    H152951   1.747   1.247  14.644 -0.9199  1.9930  0.1639
10512TIP3    H252952   1.599   1.279  14.653 -1.6143 -1.3717  2.6852
10513TIP3   OH252953   2.897   5.244  12.448  0.0734 -0.1288 -0.2047
10513TIP3    H152954   2.819   5.262  12.501 -0.0499 -2.2139  0.4016
10513TIP3    H252955   2.957   5.316  12.469 -1.3576  1.0922 -0.0924
10514TIP3   OH252956   5.325   6.491  13.093 -0.8691  0.2152  0.3667
10514TIP3    H152957   5.408   6.473  13.138 -0.7225 -0.5344 -0.1769
10514TIP3    H252958   5.302   6.407  13.052 -1.1823  0.7729 -0.6298
10515TIP3   OH252959   0.407   1.480  16.258 -0.0607 -0.2096 -0.1310
10515TIP3    H152960   0.441   1.568  16.243 -0.6078  0.0052 -0.1141
10515TIP3    H252961   0.482   1.432  16.294  0.3689  0.1195 -0.5748
10516TIP3   OH252962   0.307   0.005   3.687 -0.0653 -0.3798 -0.1280
10516TIP3    H152963   0.252  -0.073   3.694  1.9128 -2.0097 -1.4134
10516TIP3    H252964   0.289   0.040   3.600  3.2106 -2.9778 -2.0907
10517TIP3   OH252965   6.200   6.304  16.010 -0.0729  0.2492 -0.1792
10517TIP3    H152966   6.231   6.275  16.096  0.1475 -0.4720 -0.4917
10517TIP3    H252967   6.276   6.292  15.952 -0.4615 -0.0235 -0.6343
10518TIP3   OH252968   4.243   4.033   5.353 -0.1044  0.0315  1.1674
10518TIP3    H152969   4.227   4.014   5.446  1.3946  0.0011  1.4371
10518TIP3    H252970   4.238   3.947   5.311  0.1985 -0.0849  1.3697
10519TIP3   OH252971   1.859   4.245   5.756 -0.4253  0.0104  0.1045
10519TIP3    H152972   1.952   4.234   5.739 -0.4891  2.3504 -2.3931
10519TIP3    H252973   1.854   4.271   5.848  1.2487 -0.9532  0.5134
10520TIP3   OH252974   6.372   6.596  16.327  0.0503  0.5973  0.7212
10520TIP3    H152975   6.329   6.602  16.241  0.1363 -1.2401  0.5095
10520TIP3    H252976   6.301   6.609  16.390 -0.0013  2.0362  0.3977
10521TIP3   OH252977   2.250   5.515   5.642  0.3906 -0.4502  0.2782
10521TIP3    H152978   2.250   5.587   5.705  1.1654 -1.7329  1.8145
10521TIP3    H252979   2.339   5.512   5.609  0.2399 -0.4267 -0.1361
10522TIP3   OH252980   3.609   0.157  12.112  0.3773  0.4640  0.9309
10522TIP3    H152981   3.574   0.216  12.045 -3.1633  0.9141  2.9171
10522TIP3    H252982   3.676   0.106  12.066 -1.2358  1.2767 -2.7083
10523TIP3   OH252983   1.518   4.118   1.756 -0.4267  0.2845  0.2543
10523TIP3    H152984   1.473   4.066   1.823 -0.9421  0.8072  0.3199
10523TIP3    H252985   1.599   4.070   1.739 -0.6054 -0.2092  0.7646
10524TIP3   OH252986   0.649   3.464  12.579 -0.7799  0.6067  0.2395
10524TIP3    H152987   0.729   3.506  12.610 -1.3564  1.6971  0.2775
10524TIP3    H252988   0.625   3.403  12.649 -0.5816  1.0786  0.7231
10525TIP3   OH252989   1.197   4.041   6.445 -0.1285  1.0282  0.2153
10525TIP3    H152990   1.115   4.077   6.411 -0.7957  1.0351  1.7244
10525TIP3    H252991   1.182   3.947   6.449 -0.8282  1.1729  2.2563
10526TIP3   OH252992   5.579   1.660  15.208  0.6944 -0.2837  0.8121
10526TIP3    H152993   5.570   1.751  15.239  2.7424 -0.1840  1.2886
10526TIP3    H252994   5.490   1.632  15.188  0.0850  2.1362 -0.2063
10527TIP3   OH252995   5.266   4.644   5.995  0.0639 -0.1053  0.5975
10527TIP3    H152996   5.324   4.580   6.037  1.6481  2.1877  2.1592
10527TIP3    H252997   5.316   4.676   5.920 -0.1789  0.1967  0.5604
10528TIP3   OH252998   1.265   3.426   5.039 -0.5469  0.6157 -0.5168
10528TIP3    H152999   1.353   3.464   5.039  0.5873 -1.8304 -1.1264
10528TIP3    H253000   1.227   3.452   4.955  0.3927  0.0277 -1.1363
10529TIP3   OH253001   6.078   3.484  14.518  0.4379 -0.6796  0.3381
10529TIP3    H153002   6.129   3.566  14.514 -0.4715  0.1355  3.3455
10529TIP3    H253003   6.105   3.437  14.439  1.8030  2.0290 -0.9829
10530TIP3   OH253004   5.764   0.224  15.341  0.3021 -0.2610 -0.2596
10530TIP3    H153005   5.853   0.198  15.366  0.5805  0.6624 -0.2384
10530TIP3    H253006   5.734   0.278  15.414 -0.5054 -1.0316 -0.0073
10531TIP3   OH253007   2.622   3.907  13.480 -0.2319 -0.5359 -0.3101
10531TIP3    H153008   2.605   3.840  13.546 -0.3796  0.2758  0.5021
10531TIP3    H253009   2.638   3.987  13.530 -0.3330  0.1057 -1.2560
10532TIP3   OH253010   4.537   2.128  17.009  0.3163  0.3837  0.0037
10532TIP3    H153011   4.465   2.083  17.052  0.4672  0.5061  0.3850
10532TIP3    H253012   4.616   2.088  17.044  0.4537 -0.9100 -1.6308
10533TIP3   OH253013   5.100   2.073   4.177 -0.3089  0.4477  0.4581
10533TIP3    H153014   5.152   1.995   4.194 -0.7656 -0.1784 -0.8857
10533TIP3    H253015   5.128   2.102   4.090 -3.1654 -0.7776 -1.0174
10534TIP3   OH253016   0.637   3.509   4.899 -0.0702 -0.6347  0.0181
10534TIP3    H153017   0.576   3.436   4.889 -0.7630 -0.2826  1.4508
10534TIP3    H253018   0.681   3.493   4.982  0.9426 -0.2516 -0.4290
10535TIP3   OH253019   2.611   4.174   4.788  0.4267  0.1109  0.2451
10535TIP3    H153020   2.526   4.143   4.819  1.3756 -0.6786  2.2166
10535TIP3    H253021   2.598   4.268   4.775 -1.0084 -0.1531 -0.4891
10536TIP3   OH253022   4.992   5.283   4.155  0.1875  0.1642  0.0120
10536TIP3    H153023   4.913   5.286   4.101  0.0829  4.3891  0.0475
10536TIP3    H253024   5.058   5.330   4.104  1.3226  0.6647  1.8442
10537TIP3   OH253025   2.954   5.024  13.533  0.7248  0.2028 -0.5570
10537TIP3    H153026   2.949   4.929  13.526 -1.1836 -0.0217  2.1127
10537TIP3    H253027   3.037   5.041  13.577 -0.4839 -0.6622  2.3353
10538TIP3   OH253028   4.406   0.609  12.421  0.3726  0.0353  0.0566
10538TIP3    H153029   4.325   0.634  12.377 -1.1627 -1.5638  1.7457
10538TIP3    H253030   4.409   0.513  12.413  0.6836 -0.1933  2.2009
10539TIP3   OH253031   6.570   6.546   1.314  0.0842 -0.5984  0.4382
10539TIP3    H153032   6.587   6.601   1.238 -0.0690 -0.7458  0.2964
10539TIP3    H253033   6.656   6.514   1.341  0.0184 -1.5426 -0.4265
10540TIP3   OH253034   1.803   3.601   2.674  0.2039 -0.5786 -0.2678
10540TIP3    H153035   1.897   3.609   2.656 -0.2697  1.2400 -2.3637
10540TIP3    H253036   1.798   3.535   2.743  3.3318  2.2387  3.0919
10541TIP3   OH253037   3.531   4.940  10.888  0.1470  0.3829  0.7681
10541TIP3    H153038   3.466   4.869  10.889  1.2220 -0.6328  2.8645
10541TIP3    H253039   3.611   4.900  10.920  1.4956  1.9584 -0.4698
10542TIP3   OH253040   4.283   4.528  15.376  0.2384 -0.5931 -0.2649
10542TIP3    H153041   4.262   4.582  15.451  0.3203 -0.7161 -0.1527
10542TIP3    H253042   4.377   4.543  15.361  0.7128 -2.1257  0.9264
10543TIP3   OH253043   3.506   3.587   0.005 -0.1145  0.3072 -0.5711
10543TIP3    H153044   3.451   3.614  -0.069 -0.7714 -0.1860 -0.2771
10543TIP3    H253045   3.586   3.555  -0.036 -0.4594  0.0713 -1.0780
10544TIP3   OH253046   6.431   6.193  15.881 -0.2349  0.0090 -0.3374
10544TIP3    H153047   6.427   6.150  15.796  0.1482  0.4136 -0.5678
10544TIP3    H253048   6.506   6.153  15.925  0.5006  0.8395 -0.7913
10545TIP3   OH253049   6.037   6.584   3.565  0.4309  0.4077  0.0368
10545TIP3    H153050   5.998   6.505   3.603 -0.2714  2.3897  3.9120
10545TIP3    H253051   6.119   6.553   3.526 -0.5286 -2.4125 -0.0293
10546TIP3   OH253052   6.451   2.302  14.617  0.1141 -0.5021  0.2250
10546TIP3    H153053   6.363   2.264  14.626  0.5248 -1.2599  1.1503
10546TIP3    H253054   6.489   2.296  14.704  1.4482 -1.0624 -0.3682
10547TIP3   OH253055   0.117   1.714  14.523  0.0277  0.3569 -0.2458
10547TIP3    H153056   0.162   1.633  14.547  0.9062  1.3776  1.7828
10547TIP3    H253057   0.186   1.779  14.516 -0.8404  1.3443  0.0689
10548TIP3   OH253058   4.435   1.263   0.913 -0.1736  0.2381  0.1122
10548TIP3    H153059   4.513   1.283   0.964  0.0524  1.4576 -0.6619
10548TIP3    H253060   4.462   1.277   0.822 -1.3887  1.0721 -0.1464
10549TIP3   OH253061   6.385   2.357   5.046  0.1216 -0.1148  0.7811
10549TIP3    H153062   6.375   2.277   4.993 -1.1577  0.5568 -0.0411
10549TIP3    H253063   6.400   2.426   4.982 -1.1367  0.6691  1.3055
10550TIP3   OH253064   0.851   5.373   3.038 -0.1398  0.2230  0.4626
10550TIP3    H153065   0.848   5.465   3.011  0.0078  0.6172  1.7569
10550TIP3    H253066   0.775   5.334   2.996 -0.5268  1.0607  0.3515
10551TIP3   OH253067   2.276   1.682  17.062  0.3694 -0.4923 -0.3624
10551TIP3    H153068   2.239   1.711  16.978  0.1633 -1.2017 -0.5229
10551TIP3    H253069   2.221   1.609  17.088 -0.0490  0.2095  0.7878
10552TIP3   OH253070   4.980   5.299  14.458 -0.1835 -0.2613  0.0274
10552TIP3    H153071   5.009   5.390  14.447 -0.7245 -0.3634 -3.6308
10552TIP3    H253072   4.963   5.290  14.551 -3.1254  4.3636  0.2429
10553TIP3   OH253073   4.726   2.210  16.718  0.3209 -0.4513 -0.3358
10553TIP3    H153074   4.636   2.205  16.752 -0.1878 -0.3398 -1.6092
10553TIP3    H253075   4.746   2.304  16.716 -0.1485 -0.3596 -1.5437
10554TIP3   OH253076   0.974   1.681  10.873  0.0960  0.3274 -0.1058
10554TIP3    H153077   0.996   1.699  10.965 -1.5222  1.4951  0.1075
10554TIP3    H253078   1.034   1.736  10.823  0.4393  0.3149  0.2835
10555TIP3   OH253079   3.610   2.288   0.444 -0.2720  0.0277  0.1804
10555TIP3    H153080   3.634   2.212   0.391  0.4165  0.8131 -0.6786
10555TIP3    H253081   3.683   2.348   0.433 -0.8019  0.8143  0.8538
10556TIP3   OH253082   5.090   4.690   0.812  0.4899  0.0829 -0.2458
10556TIP3    H153083   5.069   4.782   0.824 -1.0448 -0.3160  0.2867
10556TIP3    H253084   5.010   4.651   0.776  1.3159 -0.9346 -1.0772
10557TIP3   OH253085   5.973   3.518   6.096 -0.4440 -0.5490 -0.3013
10557TIP3    H153086   5.948   3.449   6.158  2.0966 -2.3672 -1.1261
10557TIP3    H253087   6.034   3.574   6.145  0.5736 -1.2497 -0.7251
10558TIP3   OH253088   3.897   6.266  15.744 -0.0125 -1.1487 -0.2308
10558TIP3    H153089   3.941   6.222  15.672  1.3324 -0.1395 -0.0540
10558TIP3    H253090   3.953   6.249  15.820  0.5334  0.8359 -0.1582
10559TIP3   OH253091   1.961   5.320   5.083  0.0907  0.2810 -0.2563
10559TIP3    H153092   1.993   5.249   5.028 -0.2365  0.9240 -1.3301
10559TIP3    H253093   1.981   5.399   5.032 -0.4926  0.8732  0.4230
10560TIP3   OH253094   5.453   0.530  16.110  0.2086 -0.4117  0.0719
10560TIP3    H153095   5.412   0.463  16.055 -1.4513  0.5455  0.0671
10560TIP3    H253096   5.447   0.494  16.199  0.4970 -0.8244 -0.0737
10561TIP3   OH253097   1.569   5.381   5.918  0.3607 -0.0402 -0.0223
10561TIP3    H153098   1.509   5.331   5.974 -0.2288  2.1167  1.3696
10561TIP3    H253099   1.657   5.355   5.948  0.0642 -0.1282  0.8090
10562TIP3   OH253100   4.569   0.196   2.025  0.1146 -0.5802  0.4865
10562TIP3    H153101   4.614   0.123   1.983 -0.3511 -0.2990 -0.5311
10562TIP3    H253102   4.512   0.232   1.957  0.8880  1.2031  0.7318
10563TIP3   OH253103   5.292   4.795  16.725  0.0100  0.8576 -0.3124
10563TIP3    H153104   5.240   4.735  16.777  2.4062 -1.2146 -0.0784
10563TIP3    H253105   5.230   4.835  16.664 -1.8958 -0.9865  0.3153
10564TIP3   OH253106   4.942   6.164   2.988  0.6007  0.4644 -0.4623
10564TIP3    H153107   4.930   6.249   3.031 -1.0147 -0.3154  0.7441
10564TIP3    H253108   4.997   6.114   3.049 -2.0049 -0.7740  1.0470
10565TIP3   OH253109   5.242   4.250  13.475 -0.3948  0.1571  0.5486
10565TIP3    H153110   5.314   4.297  13.434 -1.9071  0.8806 -1.4736
10565TIP3    H253111   5.204   4.313  13.536  0.1954  0.0515  1.0257
10566TIP3   OH253112   0.643   2.208  16.859  0.0774  0.4167  0.5823
10566TIP3    H153113   0.657   2.118  16.890 -1.3009 -0.0662 -0.1087
10566TIP3    H253114   0.606   2.253  16.935  1.0670  0.5046  1.0283
10567TIP3   OH253115   1.062   3.374  17.125 -0.5416  0.0214 -0.3786
10567TIP3    H153116   1.020   3.417  17.200 -0.0450 -0.2224  0.0397
10567TIP3    H253117   0.991   3.363  17.062 -0.9926  0.1190  0.1031
10568TIP3   OH253118   4.697   3.966  16.329 -0.0841  0.1061  0.0399
10568TIP3    H153119   4.630   4.008  16.382  0.8658  0.4753  0.9794
10568TIP3    H253120   4.711   4.025  16.255 -0.9015 -0.0570 -0.2481
10569TIP3   OH253121   0.530   6.289   5.914 -0.5814 -0.1180  0.2713
10569TIP3    H153122   0.445   6.245   5.920 -0.8124  0.4371  1.3872
10569TIP3    H253123   0.594   6.220   5.936 -0.8383 -0.2397  0.6527
10570TIP3   OH253124   5.713   3.068   5.901 -0.1649  0.0928 -0.1775
10570TIP3    H153125   5.650   3.119   5.951  0.0971 -0.5706  0.8559
10570TIP3    H253126   5.728   2.990   5.954  1.1687  0.0202 -0.6278
10571TIP3   OH253127   6.499   2.552   1.216 -0.6320  0.0835  0.2806
10571TIP3    H153128   6.589   2.584   1.209 -0.0867 -1.2262  0.8853
10571TIP3    H253129   6.508   2.463   1.252 -2.1517 -0.1752  0.0896
10572TIP3   OH253130   4.689   3.665  15.955  0.3563 -0.4339  0.0816
10572TIP3    H153131   4.598   3.683  15.979  0.5795 -0.5280  1.0477
10572TIP3    H253132   4.694   3.685  15.862 -0.4636  0.3108  0.1869
10573TIP3   OH253133   0.081   0.762   3.695 -0.0279  0.0451 -0.2024
10573TIP3    H153134  -0.007   0.737   3.664 -0.0383  0.8783 -0.8905
10573TIP3    H253135   0.099   0.844   3.649  1.4514 -0.5279 -0.6770
10574TIP3   OH253136   3.701   6.645   4.284 -0.3295  0.3547  0.4335
10574TIP3    H153137   3.693   6.740   4.272 -0.8506  0.1007 -1.6436
10574TIP3    H253138   3.794   6.627   4.271 -0.4167  0.4715 -0.4870
10575TIP3   OH253139   1.876   4.467  13.236  0.0469  0.1040  0.5272
10575TIP3    H153140   1.931   4.545  13.251  1.2247 -0.8381  1.2700
10575TIP3    H253141   1.802   4.478  13.296 -0.1913  1.0034  0.0907
10576TIP3   OH253142   3.346   3.068   4.258  0.2933 -0.0019  0.8588
10576TIP3    H153143   3.269   3.124   4.249  0.6789  0.5089  0.6972
10576TIP3    H253144   3.398   3.110   4.327  2.0254  1.5413 -1.2658
10577TIP3   OH253145   3.468   2.677  13.515  0.1425 -0.0208 -0.3008
10577TIP3    H153146   3.558   2.659  13.487 -0.6973 -1.5559 -2.2331
10577TIP3    H253147   3.474   2.761  13.560  2.7098 -0.5616  0.5959
10578TIP3   OH253148   5.698   0.193  12.181 -0.5163 -0.4942  0.0159
10578TIP3    H153149   5.775   0.178  12.235  0.0888 -0.8871 -0.9337
10578TIP3    H253150   5.629   0.141  12.223 -0.2174 -0.3121  0.7473
10579TIP3   OH253151   2.755   4.179  11.970  0.0832 -0.8143 -0.2117
10579TIP3    H153152   2.752   4.143  12.058 -0.3661 -0.2990 -0.0103
10579TIP3    H253153   2.847   4.175  11.944  0.6834  1.4398  1.2919
10580TIP3   OH253154   2.910   1.740   4.375 -0.3977  0.2540 -0.0737
10580TIP3    H153155   2.824   1.706   4.402 -0.0990 -1.4386 -1.0952
10580TIP3    H253156   2.906   1.833   4.396 -2.8199  0.4125 -0.8576
10581TIP3   OH253157   6.496   5.136  11.427  0.1051  0.3263  0.4708
10581TIP3    H153158   6.440   5.142  11.350 -0.9620 -3.7379  0.7134
10581TIP3    H253159   6.558   5.067  11.407  0.6111  0.0226  2.7708
10582TIP3   OH253160   3.932   3.558  14.356 -0.4035 -0.1415  0.0107
10582TIP3    H153161   3.912   3.470  14.388 -0.2304 -0.5305 -0.9189
10582TIP3    H253162   3.847   3.603  14.353 -1.0292 -1.3365 -2.5987
10583TIP3   OH253163   2.286   2.313  14.884 -0.0971 -0.1042 -0.5245
10583TIP3    H153164   2.317   2.375  14.817  0.3868 -2.3784 -2.5366
10583TIP3    H253165   2.363   2.261  14.906 -0.7298 -0.6829  0.3810
10584TIP3   OH253166   3.497   0.415  12.937  0.6050 -0.3254  0.0485
10584TIP3    H153167   3.492   0.464  12.855  0.7581  3.0132  1.8535
10584TIP3    H253168   3.407   0.384  12.952  0.0730  1.0078 -0.2879
10585TIP3   OH253169   2.326   6.147  11.227  0.1509 -0.4209 -0.4512
10585TIP3    H153170   2.302   6.079  11.290 -0.0417  0.1474  0.1082
10585TIP3    H253171   2.264   6.218  11.245  1.5539  0.6658  0.3079
10586TIP3   OH253172   5.900   2.467  15.812  0.4915 -0.1263 -0.4019
10586TIP3    H153173   5.915   2.442  15.903 -1.6771 -1.1192 -0.2371
10586TIP3    H253174   5.969   2.422  15.763  1.2957 -0.1053  0.6893
10587TIP3   OH253175   2.565   4.421  11.523 -0.0764 -0.1051 -0.3640
10587TIP3    H153176   2.614   4.503  11.522 -0.8051  0.3363 -0.8326
10587TIP3    H253177   2.632   4.353  11.525  0.6135  0.4625  3.4266
10588TIP3   OH253178   1.934   1.539   2.621  0.1084 -0.2015  0.3234
10588TIP3    H153179   1.965   1.451   2.643  0.3636  0.3059  2.0760
10588TIP3    H253180   1.854   1.524   2.569  0.1746 -1.4546  0.5563
10589TIP3   OH253181   5.402   6.045  15.183 -0.2417  0.1377 -0.1413
10589TIP3    H153182   5.356   5.993  15.249  0.9591  1.1153  1.5619
10589TIP3    H253183   5.337   6.060  15.115 -1.0919 -2.1810  0.0668
10590TIP3   OH253184   4.704   4.110  14.842 -0.3426 -0.1403 -0.1006
10590TIP3    H153185   4.729   4.189  14.890 -0.1485 -0.4476  0.3075
10590TIP3    H253186   4.739   4.038  14.894 -1.8505 -0.5763  0.3506
10591TIP3   OH253187   3.245   4.945  13.068 -0.4572  0.4235  0.1919
10591TIP3    H153188   3.227   4.936  12.975  0.2481  0.4694  0.0409
10591TIP3    H253189   3.258   5.039  13.081 -1.8187  0.5795  0.5928
10592TIP3   OH253190   2.523   6.448   0.224  0.1077 -0.3806  0.3290
10592TIP3    H153191   2.599   6.484   0.177 -0.9634 -1.2088 -2.2299
10592TIP3    H253192   2.460   6.427   0.155 -2.1478 -0.4902  2.3003
10593TIP3   OH253193   0.019   2.153   4.052 -0.6902  0.0585 -0.7573
10593TIP3    H153194   0.028   2.059   4.070 -3.2507 -0.3525 -1.2690
10593TIP3    H253195   0.061   2.164   3.966  0.7435 -0.3249 -0.1425
10594TIP3   OH253196   6.568   2.681  11.889 -0.1686  0.7960  0.1847
10594TIP3    H153197   6.476   2.668  11.863 -0.0255  2.2775 -1.1912
10594TIP3    H253198   6.618   2.638  11.820  0.2188 -0.1526  1.0206
10595TIP3   OH253199   1.356   1.939   3.941  0.3467  0.0130  0.3228
10595TIP3    H153200   1.406   1.928   3.860  1.0574 -1.1406  0.8920
10595TIP3    H253201   1.418   1.976   4.003 -0.1154  0.6120  0.4411
10596TIP3   OH253202   4.456   1.917  12.930  0.2891  0.3001  0.4193
10596TIP3    H153203   4.421   1.938  12.843 -1.4767 -0.4411  0.8983
10596TIP3    H253204   4.454   2.001  12.976  1.3594  0.7260 -0.2626
10597TIP3   OH253205   3.695   2.518   6.917 -1.2879 -0.1553 -0.0890
10597TIP3    H153206   3.750   2.544   6.843 -2.3573 -0.7070 -1.1119
10597TIP3    H253207   3.701   2.592   6.978 -1.5749  0.9999 -1.4065
10598TIP3   OH253208   2.655   4.245   0.063 -0.0915 -0.0316  0.0116
10598TIP3    H153209   2.665   4.180   0.132  0.6610  0.7403  0.6559
10598TIP3    H253210   2.575   4.292   0.086 -0.3968 -0.4370 -0.2126
10599TIP3   OH253211   4.286   3.526  14.247  0.0566 -0.0980  0.0540
10599TIP3    H153212   4.325   3.605  14.209  0.4550  0.3920  1.4116
10599TIP3    H253213   4.283   3.544  14.341 -1.4753 -1.0130  0.2088
10600TIP3   OH253214   3.925   1.513   1.215 -0.0283  0.2649  0.2190
10600TIP3    H153215   3.989   1.575   1.250  1.8555 -1.6496  0.3401
10600TIP3    H253216   3.882   1.477   1.292 -0.6281  0.8948  0.1842
10601TIP3   OH253217   1.264   1.985  15.753  0.1849  0.3414  0.4177
10601TIP3    H153218   1.283   1.900  15.792  1.0106  0.1909 -0.2878
10601TIP3    H253219   1.272   1.971  15.658  2.2156  1.6244  0.3363
10602TIP3   OH253220   2.175   3.046  13.558  0.0541 -0.1460  1.0218
10602TIP3    H153221   2.187   2.976  13.494  0.3479 -0.4681  1.4239
10602TIP3    H253222   2.123   3.112  13.512  0.8769 -0.0416  0.2016
10603TIP3   OH253223   0.917   4.089   5.218  0.0373  0.9800 -0.1552
10603TIP3    H153224   0.959   4.045   5.144 -0.1659 -0.1777  0.3794
10603TIP3    H253225   0.832   4.117   5.185 -0.8663 -1.2431  0.1102
10604TIP3   OH253226   5.428   3.728   2.821 -0.5108  0.1940  0.2972
10604TIP3    H153227   5.340   3.766   2.828 -0.5633  0.3449 -0.9338
10604TIP3    H253228   5.432   3.664   2.892 -1.8177 -0.1994  0.0550
10605TIP3   OH253229   6.433   3.181  13.164  0.3648  0.3280  0.2417
10605TIP3    H153230   6.501   3.144  13.107 -0.5548  0.9478 -1.3412
10605TIP3    H253231   6.376   3.230  13.104 -2.0278 -0.9322  1.3211
10606TIP3   OH253232   2.005   1.393   1.449  0.3618  0.0683 -0.1899
10606TIP3    H153233   1.927   1.428   1.492 -0.0775 -0.7044 -0.3320
10606TIP3    H253234   2.071   1.461   1.459 -0.7839  1.4153 -1.4739
10607TIP3   OH253235   6.403   4.232  15.204  0.1146  0.0138  0.0982
10607TIP3    H153236   6.464   4.192  15.266 -0.2534  0.2305  0.6082
10607TIP3    H253237   6.421   4.189  15.121  3.1688  2.2373 -0.5741
10608TIP3   OH253238   4.774   5.430  15.193 -0.2735  0.2708  0.0754
10608TIP3    H153239   4.706   5.365  15.175  1.9373 -2.1197 -0.2113
10608TIP3    H253240   4.763   5.452  15.285 -1.1969 -0.3407  0.1241
10609TIP3   OH253241   3.768   3.411  17.193  0.8959 -0.2671  0.4280
10609TIP3    H153242   3.723   3.338  17.235 -0.0496  0.2727  0.3789
10609TIP3    H253243   3.805   3.461  17.265  0.4882 -0.1285  0.5465
10610TIP3   OH253244   4.339   1.414  15.742 -0.2378 -0.2888  0.2907
10610TIP3    H153245   4.367   1.345  15.683 -1.2022  0.7975 -1.5361
10610TIP3    H253246   4.244   1.402  15.750 -0.4586  0.9505 -0.2558
10611TIP3   OH253247   0.197   3.176   1.705 -0.1786 -0.2006  0.0431
10611TIP3    H153248   0.242   3.205   1.626 -1.4772 -0.7081 -0.9262
10611TIP3    H253249   0.224   3.238   1.773 -1.7105  2.4436 -1.6012
10612TIP3   OH253250   0.389   2.087   5.701 -0.7023 -0.3500 -0.2560
10612TIP3    H153251   0.373   2.180   5.685  2.0170 -0.1617 -2.5511
10612TIP3    H253252   0.329   2.041   5.641 -1.3194 -0.0934  0.1474
10613TIP3   OH253253   5.236   3.741  17.080  0.5314 -0.0214 -0.2429
10613TIP3    H153254   5.149   3.765  17.112  0.0511  0.9273 -2.1271
10613TIP3    H253255   5.221   3.707  16.992  2.1445  1.1073 -1.0084
10614TIP3   OH253256   4.958   1.528  12.465 -0.3849  0.2718 -0.1383
10614TIP3    H153257   4.985   1.614  12.498  0.6349  0.3514 -1.1008
10614TIP3    H253258   4.917   1.485  12.540  0.6209  0.9509  0.8364
10615TIP3   OH253259   5.046   5.280   2.054 -0.6167  0.0993 -0.2114
10615TIP3    H153260   5.004   5.197   2.033  0.6219 -0.8816  0.9874
10615TIP3    H253261   5.135   5.271   2.020 -0.4045  0.8671  0.1081
10616TIP3   OH253262   4.722   1.666  11.649 -0.1204  0.4122  0.1276
10616TIP3    H153263   4.777   1.604  11.697 -0.9799  0.0939  0.7360
10616TIP3    H253264   4.639   1.620  11.636 -0.2389  0.8676 -0.7996
10617TIP3   OH253265   3.783   3.421   0.542 -0.3018  0.1031  0.1522
10617TIP3    H153266   3.717   3.490   0.541 -0.1091  0.3218  1.1884
10617TIP3    H253267   3.828   3.433   0.626 -0.1832 -1.2045  0.2851
10618TIP3   OH253268   0.195   4.552   6.096  0.0105 -0.5816 -0.4086
10618TIP3    H153269   0.279   4.584   6.064 -0.1353 -2.0838 -2.5422
10618TIP3    H253270   0.194   4.576   6.188  1.9407  1.1356 -0.7506
10619TIP3   OH253271   6.436   4.139   3.294 -0.2348  0.5199  0.0010
10619TIP3    H153272   6.440   4.105   3.384  1.4820  0.9982  0.1326
10619TIP3    H253273   6.375   4.081   3.249  2.5311 -2.8684  0.2024
10620TIP3   OH253274   2.640   2.672  14.575 -0.2246 -0.2638 -0.0418
10620TIP3    H153275   2.662   2.709  14.661  0.0484  2.5798 -1.2120
10620TIP3    H253276   2.717   2.621  14.550  0.5707  0.6000  0.5615
10621TIP3   OH253277   4.278   0.626  11.190  0.0259 -0.2873 -0.0520
10621TIP3    H153278   4.259   0.541  11.152  0.2133  0.3906 -1.7376
10621TIP3    H253279   4.284   0.610  11.284 -1.3253 -1.8783 -0.1948
10622TIP3   OH253280   2.139   4.370  16.055 -0.6950  0.2154 -0.2525
10622TIP3    H153281   2.119   4.385  15.963 -2.4241 -1.2347 -0.1673
10622TIP3    H253282   2.055   4.383  16.100 -0.3190 -0.9835  0.8564
10623TIP3   OH253283   5.961   6.318   4.068  0.1595  0.4403 -0.7584
10623TIP3    H153284   5.950   6.409   4.039 -0.5901  1.1056  1.4325
10623TIP3    H253285   5.955   6.322   4.163 -2.1917 -2.1936 -0.6565
10624TIP3   OH253286   3.171   6.219   3.109  0.0180  0.7886 -0.4139
10624TIP3    H153287   3.173   6.265   3.193  0.3698  0.2776 -0.1409
10624TIP3    H253288   3.115   6.273   3.054 -0.2031  1.1369  0.1444
10625TIP3   OH253289   4.857   1.498   1.126 -0.1758  0.0486 -0.5642
10625TIP3    H153290   4.925   1.565   1.117 -1.4457  1.2949 -1.3344
10625TIP3    H253291   4.817   1.516   1.211  0.7339 -0.9966  0.1155
10626TIP3   OH253292   4.253   5.181   5.018  0.2084  0.0977 -0.5999
10626TIP3    H153293   4.278   5.090   5.001  0.8084  0.1539 -0.0416
10626TIP3    H253294   4.324   5.233   4.981 -0.3224  0.3613 -1.2657
10627TIP3   OH253295   0.170   6.444   0.221  0.2882  0.3347 -0.0274
10627TIP3    H153296   0.102   6.379   0.240  0.6516 -0.2672 -0.7353
10627TIP3    H253297   0.132   6.499   0.152  1.5382 -1.8184 -2.6357
10628TIP3   OH253298   4.193   5.393   5.191  0.0898  0.8545 -0.5029
10628TIP3    H153299   4.145   5.357   5.265  0.9579  1.1108  0.1979
10628TIP3    H253300   4.205   5.318   5.132 -1.1821  0.7925 -0.7199
10629TIP3   OH253301   5.948   5.029   1.789 -0.0922  0.0737 -0.0812
10629TIP3    H153302   6.019   4.972   1.817 -0.5870  0.1771  1.5024
10629TIP3    H253303   5.974   5.060   1.702  0.7245 -1.6228 -0.4824
10630TIP3   OH253304   0.826   4.562   6.973  0.0664  0.0713 -0.4224
10630TIP3    H153305   0.750   4.607   7.009  0.3103  0.6422 -0.6031
10630TIP3    H253306   0.790   4.483   6.932 -0.2662 -0.3244  0.6139
10631TIP3   OH253307   0.203   2.873   2.252  0.3202 -0.4109  0.3435
10631TIP3    H153308   0.199   2.778   2.239  0.4358 -0.3960  0.1952
10631TIP3    H253309   0.115   2.897   2.281 -0.7537 -0.0876 -2.8317
10632TIP3   OH253310   5.587   6.346   3.598  1.3050 -0.2806 -0.2279
10632TIP3    H153311   5.577   6.399   3.677 -2.0320  0.0432 -0.7625
10632TIP3    H253312   5.539   6.266   3.617 -0.0659  0.0513 -2.0918
10633TIP3   OH253313   3.742   6.414  11.882 -0.7639 -0.2994 -0.6467
10633TIP3    H153314   3.688   6.450  11.812  2.3597  2.4915 -1.8675
10633TIP3    H253315   3.823   6.465  11.880  1.2317 -2.9100  2.2757
10634TIP3   OH253316   1.157   3.731  15.185 -0.1686 -0.0992 -0.4131
10634TIP3    H153317   1.142   3.699  15.096  0.1734  0.3107 -0.6234
10634TIP3    H253318   1.251   3.718  15.201  0.5095  2.8272 -1.3696
10635TIP3   OH253319   2.231   1.605   0.035 -0.0567  0.3017 -0.1788
10635TIP3    H153320   2.179   1.540   0.081  0.5924  0.4096  0.7312
10635TIP3    H253321   2.216   1.687   0.082  1.0931  0.2904  0.2511
10636TIP3   OH253322   3.838   4.008  13.783  0.3958 -0.2248 -0.1754
10636TIP3    H153323   3.780   4.085  13.777  1.5620  0.6616 -0.4268
10636TIP3    H253324   3.781   3.934  13.760 -1.2403  0.2774  1.9160
10637TIP3   OH253325   2.687   1.011   6.219  0.3560 -0.6687 -0.2760
10637TIP3    H153326   2.736   1.018   6.301 -0.4961  0.6162  0.1506
10637TIP3    H253327   2.596   1.002   6.246  0.1099 -0.6488 -1.0857
10638TIP3   OH253328   2.438   6.189   0.506 -0.3685  0.5278  0.0330
10638TIP3    H153329   2.506   6.158   0.445  0.2702  1.6024  0.1785
10638TIP3    H253330   2.357   6.185   0.455 -0.4426 -1.8855  0.2075
10639TIP3   OH253331   4.288   3.117  11.656  0.3926  0.3766 -0.0286
10639TIP3    H153332   4.360   3.091  11.712 -0.0087  1.0202  0.8130
10639TIP3    H253333   4.317   3.199  11.616  0.4001  0.2792 -0.2246
10640TIP3   OH253334   0.795   0.264   2.604  0.3871 -0.4356  0.2763
10640TIP3    H153335   0.736   0.189   2.594 -0.0269  0.0651 -1.5456
10640TIP3    H253336   0.873   0.239   2.555  0.2805  0.2566 -0.2676
10641TIP3   OH253337   4.350   2.823  14.497 -0.0950  0.1720 -0.3230
10641TIP3    H153338   4.425   2.794  14.549 -0.2947  0.5449  0.1790
10641TIP3    H253339   4.356   2.919  14.498 -1.0291  0.2324  0.3932
10642TIP3   OH253340   5.893   5.953   2.244 -0.5477  0.1238 -0.5833
10642TIP3    H153341   5.913   5.939   2.152 -1.0088  0.5661 -0.7544
10642TIP3    H253342   5.831   5.883   2.266 -0.0435 -0.2921 -0.4689
10643TIP3   OH253343   3.134   4.130   1.035  0.3899  0.2026  0.3413
10643TIP3    H153344   3.072   4.189   1.077 -1.3208 -0.2798 -1.4042
10643TIP3    H253345   3.121   4.046   1.080 -0.1966  0.1226  0.0345
10644TIP3   OH253346   1.702   5.324   2.444  0.2966  0.3741 -0.4731
10644TIP3    H153347   1.635   5.285   2.500 -0.5771  1.9469 -0.3474
10644TIP3    H253348   1.653   5.375   2.379  1.3354  2.1450  0.0558
10645TIP3   OH253349   2.067   3.148  14.591  0.0590  0.6550 -0.8624
10645TIP3    H153350   2.008   3.126  14.663  0.8128  2.3028  0.3183
10645TIP3    H253351   2.036   3.232  14.559  0.5019  0.5288 -1.6432
10646TIP3   OH253352   2.003   0.408   3.058  0.3866  0.3652  0.1798
10646TIP3    H153353   1.936   0.347   3.088 -0.2021  0.5274 -0.7401
10646TIP3    H253354   1.983   0.490   3.101  0.7050  0.1137  0.8121
10647TIP3   OH253355   2.103   3.602   4.813 -0.5676 -0.7754 -0.4303
10647TIP3    H153356   2.067   3.654   4.742  0.3562  1.0777  0.3983
10647TIP3    H253357   2.047   3.620   4.888 -0.8588 -1.8238 -0.3792
10648TIP3   OH253358   2.598   5.336  12.912 -0.2203 -0.7120  0.5956
10648TIP3    H153359   2.631   5.265  12.967 -0.3265 -1.4760 -0.2881
10648TIP3    H253360   2.508   5.312  12.891  0.2539 -1.2098 -1.0755
10649TIP3   OH253361   2.882   0.718  12.148  0.2484  0.3608  0.5300
10649TIP3    H153362   2.798   0.751  12.180  0.8082  1.4506  0.9223
10649TIP3    H253363   2.939   0.718  12.225  0.9793  0.8980  0.0078
10650TIP3   OH253364   0.543   4.432   5.355 -0.2171 -0.2952  0.2198
10650TIP3    H153365   0.462   4.448   5.402 -1.6066  1.0005 -2.3632
10650TIP3    H253366   0.609   4.483   5.402 -1.8281  2.1499 -0.0019
10651TIP3   OH253367   5.205   6.279  10.709 -0.1230 -0.2581 -0.4504
10651TIP3    H153368   5.125   6.319  10.743  0.6565  0.2288  0.8753
10651TIP3    H253369   5.241   6.343  10.648 -0.5187 -0.2989 -0.7281
10652TIP3   OH253370   3.341   2.965  10.999 -0.4709  0.3498  0.6178
10652TIP3    H153371   3.270   3.013  10.956  0.5934  0.1626 -1.4287
10652TIP3    H253372   3.406   3.032  11.020 -0.3309  0.2225  0.5845
10653TIP3   OH253373   2.926   5.998   5.014  0.6148  0.4740 -0.1262
10653TIP3    H153374   2.890   5.913   4.988  0.0335  0.9968 -1.0882
10653TIP3    H253375   2.869   6.028   5.085  0.0752  0.6044 -0.6119
10654TIP3   OH253376   4.008   5.375   2.343  0.5135  0.5899 -0.1080
10654TIP3    H153377   4.005   5.382   2.247 -1.1696 -0.5926 -0.1745
10654TIP3    H253378   4.024   5.283   2.360  1.2877  0.8714  0.7820
10655TIP3   OH253379   4.575   2.682   4.260  0.4251  0.2449 -0.5860
10655TIP3    H153380   4.603   2.758   4.312 -2.5883  1.3546 -0.4307
10655TIP3    H253381   4.485   2.666   4.287  0.4811 -2.5072 -1.7084
10656TIP3   OH253382   5.574   4.404   6.381 -0.4693  0.2082 -0.6633
10656TIP3    H153383   5.498   4.462   6.373  0.2251  1.3430  0.4498
10656TIP3    H253384   5.543   4.319   6.350 -2.2862  0.5432  0.1125
10657TIP3   OH253385   1.301   0.815  12.109  0.2145 -0.2748 -0.4791
10657TIP3    H153386   1.313   0.745  12.174 -1.4810 -0.0716  0.0996
10657TIP3    H253387   1.389   0.850  12.095  0.4965  0.8281  3.0283
10658TIP3   OH253388   5.755   3.197   4.599  0.2246  0.0685 -0.3839
10658TIP3    H153389   5.804   3.154   4.529  0.7165 -0.2960  0.1741
10658TIP3    H253390   5.687   3.134   4.624 -0.3320  0.4412 -0.9339
10659TIP3   OH253391   4.038   5.697  14.192 -0.6486  0.2629 -0.3970
10659TIP3    H153392   3.965   5.729  14.245 -0.1247 -0.6330  0.9073
10659TIP3    H253393   4.016   5.607  14.172 -0.1133  0.1184 -0.3597
10660TIP3   OH253394   2.604   6.421  15.364 -0.5791  0.0263  0.3272
10660TIP3    H153395   2.622   6.515  15.363  1.4668 -0.2944  1.1893
10660TIP3    H253396   2.541   6.409  15.435 -0.6871  0.7279  0.3504
10661TIP3   OH253397   3.419   2.422   5.314  0.4943 -0.2618 -0.2028
10661TIP3    H153398   3.377   2.430   5.400 -0.0412 -0.9608 -0.3859
10661TIP3    H253399   3.346   2.418   5.252  0.8766  0.2679 -0.6970
10662TIP3   OH253400   5.692   0.764   2.870 -0.9097 -0.2697 -0.0607
10662TIP3    H153401   5.664   0.836   2.813  0.6388  0.1225 -0.3704
10662TIP3    H253402   5.782   0.746   2.843  0.2959  0.6280  2.9414
10663TIP3   OH253403   2.883   2.710  13.344 -0.2789  0.8533 -0.5141
10663TIP3    H153404   2.859   2.666  13.425  0.7882  0.6840 -0.2795
10663TIP3    H253405   2.802   2.752  13.315 -0.7246  0.7406  0.5202
10664TIP3   OH253406   6.747   2.827   3.525  0.5363  0.5127 -0.2912
10664TIP3    H153407   6.770   2.763   3.457  1.4103  0.7043 -0.1886
10664TIP3    H253408   6.803   2.805   3.599 -0.1063  0.5751  0.2244
10665TIP3   OH253409   4.531   5.012  14.165  0.4864 -0.3023 -0.9772
10665TIP3    H153410   4.436   5.019  14.161  0.5074  1.7094  0.6077
10665TIP3    H253411   4.563   5.092  14.122  1.3720  0.2633  0.6614
10666TIP3   OH253412   1.817   6.498   2.842  0.3049  0.4692  0.1887
10666TIP3    H153413   1.754   6.427   2.848  0.5952  0.1118 -0.8173
10666TIP3    H253414   1.856   6.502   2.929  1.3859 -1.6578 -0.1146
10667TIP3   OH253415   1.000   2.247   1.839 -0.0811  0.4294 -0.1578
10667TIP3    H153416   1.068   2.256   1.905  1.2544 -0.6727 -1.3325
10667TIP3    H253417   0.986   2.336   1.807  1.1522  0.6198 -0.2097
10668TIP3   OH253418   3.057   1.562  15.188  0.3170  0.7825  0.2642
10668TIP3    H153419   3.020   1.647  15.164  0.7964  1.0376  0.4130
10668TIP3    H253420   3.031   1.550  15.279  0.1383  0.7082  0.2047
10669TIP3   OH253421   1.328   0.182  15.331 -0.0545  0.1586 -0.4021
10669TIP3    H153422   1.241   0.184  15.370  1.2112  0.1826  2.6897
10669TIP3    H253423   1.328   0.104  15.274 -1.7310 -0.4713  0.4154
10670TIP3   OH253424   5.356   2.395   4.453 -0.1187 -0.1008  0.8356
10670TIP3    H153425   5.340   2.329   4.520 -0.9894 -0.6182  0.1538
10670TIP3    H253426   5.343   2.478   4.497 -1.3151 -0.4431  1.1846
10671TIP3   OH253427   2.542   5.088  14.241 -0.4693 -0.1841 -0.7964
10671TIP3    H153428   2.516   5.068  14.330  1.1378 -0.4983 -0.3676
10671TIP3    H253429   2.593   5.169  14.248  1.4481 -1.3122 -1.0926
10672TIP3   OH253430   1.148   4.960   1.719 -0.3009  0.1474  0.2136
10672TIP3    H153431   1.121   4.890   1.779  0.3084 -0.8455 -0.6394
10672TIP3    H253432   1.243   4.954   1.716  0.1118  3.1430  2.6160
10673TIP3   OH253433   5.193   6.256  17.369  0.4351 -0.2467  0.5041
10673TIP3    H153434   5.289   6.257  17.364  0.3890  0.9598 -2.8826
10673TIP3    H253435   5.169   6.348  17.379 -0.3103 -0.0178 -2.4205
10674TIP3   OH253436   0.732   6.564   4.817  0.1537 -0.3203 -0.4263
10674TIP3    H153437   0.753   6.470   4.824 -0.5829 -0.3616  3.0209
10674TIP3    H253438   0.790   6.605   4.880  0.3974  1.6024 -1.8322
10675TIP3   OH253439   2.356   1.020  12.766  0.0790  0.3923  0.4096
10675TIP3    H153440   2.355   1.025  12.861  0.8014 -0.0293  0.4433
10675TIP3    H253441   2.374   0.928  12.746 -0.7642  0.3374 -0.1409
10676TIP3   OH253442   0.563   3.487   2.289 -0.1152  0.0163 -0.5660
10676TIP3    H153443   0.534   3.407   2.245 -0.7658  0.4194 -0.8823
10676TIP3    H253444   0.658   3.477   2.297 -0.2131 -0.8823 -0.4076
10677TIP3   OH253445   6.683   6.659   0.650  0.8749 -0.2589 -0.0077
10677TIP3    H153446   6.717   6.747   0.666 -1.7058  0.9764 -0.7393
10677TIP3    H253447   6.736   6.602   0.706  1.8355  1.8993  1.4213
10678TIP3   OH253448   5.816   1.744   1.617 -0.0646 -0.5668 -0.3952
10678TIP3    H153449   5.910   1.742   1.636 -0.6970 -2.5943  3.5085
10678TIP3    H253450   5.793   1.653   1.600 -1.5028 -0.2413 -0.3243
10679TIP3   OH253451   4.111   6.203   0.889  0.2108 -0.2843 -0.2992
10679TIP3    H153452   4.163   6.179   0.812  0.0669 -2.4713  0.2231
10679TIP3    H253453   4.135   6.138   0.955 -0.8350  0.6065  1.0093
10680TIP3   OH253454   0.956   6.679  13.711 -0.2096  0.0431 -0.5487
10680TIP3    H153455   0.971   6.592  13.749 -1.4597  0.6058  1.3930
10680TIP3    H253456   1.016   6.736  13.758 -1.1074  0.5986 -0.0387
10681TIP3   OH253457   2.984   6.555  15.358  0.2717  0.2433 -0.5637
10681TIP3    H153458   2.935   6.637  15.361  1.4209  0.9380 -0.0309
10681TIP3    H253459   3.014   6.542  15.448  0.2407 -0.6776 -0.6789
10682TIP3   OH253460   1.120   5.016  16.407  0.0558 -0.2071 -0.2597
10682TIP3    H153461   1.156   5.104  16.395  0.3674 -0.3351 -0.2896
10682TIP3    H253462   1.195   4.964  16.436 -0.3533 -0.2337  0.8072
10683TIP3   OH253463   6.120   3.087  14.033 -0.0386 -0.0354  0.1732
10683TIP3    H153464   6.158   3.172  14.012  1.4529 -0.0883  2.3399
10683TIP3    H253465   6.183   3.023  14.000  0.2496 -0.1958  0.9950
10684TIP3   OH253466   4.860   2.271   5.715  0.9451 -1.3192  0.5084
10684TIP3    H153467   4.849   2.366   5.720 -1.3509 -1.2296 -2.9778
10684TIP3    H253468   4.954   2.258   5.721  1.2330  0.9244  2.8889
10685TIP3   OH253469   4.561   2.465  15.666 -0.4338 -0.0902 -0.2502
10685TIP3    H153470   4.568   2.417  15.749  0.7303 -0.2970 -0.4523
10685TIP3    H253471   4.614   2.414  15.604  1.5045  1.8491 -0.2800
10686TIP3   OH253472   1.139   5.568   1.409  0.1129  0.0996  0.4046
10686TIP3    H153473   1.070   5.613   1.459  2.1138  0.6477  2.8780
10686TIP3    H253474   1.172   5.635   1.350 -1.2295 -0.0842 -0.6025
10687TIP3   OH253475   4.423   0.723   1.402 -0.2014 -0.0355 -0.0680
10687TIP3    H153476   4.344   0.765   1.437 -0.0196 -0.9671  1.5657
10687TIP3    H253477   4.488   0.793   1.399 -0.0440 -0.0012  2.1465
10688TIP3   OH253478   5.865   0.506  12.940  0.3614 -0.4137 -0.3841
10688TIP3    H153479   5.926   0.490  13.012 -0.6215  0.9832  0.8045
10688TIP3    H253480   5.815   0.583  12.967 -2.8588 -2.2398 -0.6778
10689TIP3   OH253481   6.206   1.969  16.368  0.3505 -0.1354 -0.1409
10689TIP3    H153482   6.112   1.970  16.348  0.4165 -0.6939 -0.4907
10689TIP3    H253483   6.219   1.888  16.417  0.8395 -0.6084 -1.0329
10690TIP3   OH253484   1.118   6.194  15.666  0.1152  0.1579  0.0357
10690TIP3    H153485   1.056   6.191  15.739 -0.1415  1.4241 -0.1224
10690TIP3    H253486   1.077   6.142  15.597 -1.5077  2.2099 -0.6136
10691TIP3   OH253487   3.035   4.835  14.617 -0.3345  0.4119 -0.3980
10691TIP3    H153488   2.969   4.898  14.649  1.3961  1.7886  0.6506
10691TIP3    H253489   3.036   4.849  14.523 -1.5138  0.3775 -0.4387
10692TIP3   OH253490   3.687   5.902  12.555  0.0671 -0.3985  0.3439
10692TIP3    H153491   3.707   5.848  12.632 -1.1061  0.3709  1.2270
10692TIP3    H253492   3.596   5.882  12.534  0.1525 -0.0441 -0.3854
10693TIP3   OH253493   1.213   5.924   2.705 -0.1549 -0.1774  0.9115
10693TIP3    H153494   1.248   5.852   2.652  0.7556 -0.2029  1.5185
10693TIP3    H253495   1.156   5.881   2.768 -1.5353 -0.1136 -0.2361
10694TIP3   OH253496   4.132   1.595  12.480 -0.0363 -0.2177 -0.4038
10694TIP3    H153497   4.173   1.559  12.559 -3.8440  1.1669  2.4830
10694TIP3    H253498   4.153   1.688  12.483  1.2380 -0.3912 -2.1499
10695TIP3   OH253499   2.422   3.067  14.561 -0.3958  0.5207 -0.3663
10695TIP3    H153500   2.515   3.041  14.560 -0.4972  0.1559 -0.5060
10695TIP3    H253501   2.407   3.096  14.651 -0.7107 -1.5482  0.3048
10696TIP3   OH253502   6.684   3.247  13.950 -0.4102  0.4692  0.1303
10696TIP3    H153503   6.711   3.254  13.859 -3.2602  2.2123 -0.6979
10696TIP3    H253504   6.650   3.333  13.973 -1.3714 -0.3884  2.2890
10697TIP3   OH253505   0.988   3.818  16.004  0.1661  0.5168  0.1856
10697TIP3    H153506   0.909   3.802  15.954  0.9179 -1.3579 -0.4905
10697TIP3    H253507   1.034   3.734  16.005  2.2639  1.5852  0.3560
10698TIP3   OH253508   5.952   2.872   2.092  0.1795 -0.2616 -0.2067
10698TIP3    H153509   5.920   2.802   2.150  1.3948 -1.1193 -0.5244
10698TIP3    H253510   5.997   2.933   2.150 -1.8908  0.9073  0.2300
10699TIP3   OH253511   5.196   1.456  16.293  0.5665  0.4202 -0.1440
10699TIP3    H153512   5.260   1.512  16.336 -0.0075  0.1739  1.0934
10699TIP3    H253513   5.154   1.407  16.365 -0.7366  0.3071 -0.9349
10700TIP3   OH253514   0.177   1.176  13.439 -0.6455  0.3117  0.6961
10700TIP3    H153515   0.113   1.158  13.508 -0.0840 -1.2116  0.8508
10700TIP3    H253516   0.153   1.118  13.367  0.5569 -0.3076  0.7662
10701TIP3   OH253517   2.115   2.954   0.361 -0.0388  0.0584  0.6577
10701TIP3    H153518   2.210   2.950   0.349  0.1705 -3.4873  2.0632
10701TIP3    H253519   2.081   2.974   0.274  1.9612 -2.0192 -0.7384
10702TIP3   OH253520   5.762   5.514  12.407  0.1035 -0.4452  0.2010
10702TIP3    H153521   5.757   5.607  12.431 -1.7367 -1.0605  2.6421
10702TIP3    H253522   5.845   5.484  12.443 -0.6549 -0.3446  2.1883
10703TIP3   OH253523   0.902   0.894   3.305 -0.2554  0.1522  0.4869
10703TIP3    H153524   0.951   0.963   3.259 -0.4132 -0.4408 -0.6090
10703TIP3    H253525   0.843   0.942   3.363 -0.5033  0.9647 -0.4003
10704TIP3   OH253526   6.517   0.194   3.502 -0.1030 -0.0667 -0.6530
10704TIP3    H153527   6.589   0.246   3.466  1.8216 -1.0239  1.5393
10704TIP3    H253528   6.522   0.111   3.456  1.8156 -0.9875  1.0490
10705TIP3   OH253529   4.573   1.695   4.474  0.1147 -0.7535  0.0898
10705TIP3    H153530   4.608   1.632   4.411 -1.1953 -1.8073  0.3658
10705TIP3    H253531   4.484   1.712   4.444  0.1918  0.3992  0.4576
10706TIP3   OH253532   4.175   3.814  16.172  0.4655  0.6984 -0.0529
10706TIP3    H153533   4.108   3.854  16.116  1.4522  1.0393 -1.0239
10706TIP3    H253534   4.153   3.844  16.260 -2.2768 -1.4339  0.1020
10707TIP3   OH253535   1.338   2.447  11.931  0.4697  0.3687 -0.2391
10707TIP3    H153536   1.421   2.492  11.915  0.4750  1.1441  1.6884
10707TIP3    H253537   1.357   2.355  11.914  1.5467  0.6139 -0.4444
10708TIP3   OH253538   5.765   0.668   3.281  0.6576  0.7443 -0.5850
10708TIP3    H153539   5.816   0.671   3.200 -1.1283 -0.8946 -1.8558
10708TIP3    H253540   5.765   0.575   3.305 -0.1543  0.9919  0.4407
10709TIP3   OH253541   2.659   4.154   6.630  0.0335  0.4461 -0.4557
10709TIP3    H153542   2.724   4.137   6.697 -0.2501  0.7242 -0.1047
10709TIP3    H253543   2.576   4.128   6.670 -0.0304 -0.3060 -1.0479
10710TIP3   OH253544   3.712   3.176  17.334  0.3889  0.3665 -0.3174
10710TIP3    H153545   3.686   3.094  17.377 -0.4445  0.3983 -0.7183
10710TIP3    H253546   3.750   3.229  17.403  1.3153 -0.5173 -0.1337
10711TIP3   OH253547   4.059   3.929   1.327 -0.4018  0.3569  0.0636
10711TIP3    H153548   4.041   4.023   1.328 -0.7187  0.3045  1.0939
10711TIP3    H253549   4.079   3.908   1.419 -1.7287 -0.8370  0.1143
10712TIP3   OH253550   3.862   5.274   3.297  0.1295 -0.2053 -0.2635
10712TIP3    H153551   3.812   5.304   3.373  0.1446  0.7810 -0.6311
10712TIP3    H253552   3.929   5.217   3.333  0.1957  0.3348  0.4757
10713TIP3   OH253553   0.239   1.562  16.871 -0.8874 -0.1837  0.0519
10713TIP3    H153554   0.205   1.612  16.797 -1.5129 -2.0610 -0.9682
10713TIP3    H253555   0.326   1.600  16.886 -0.6496  0.1028 -1.7891
10714TIP3   OH253556   5.735   4.837  11.195  0.4069 -0.4140  0.5208
10714TIP3    H153557   5.754   4.819  11.287 -2.6899 -2.5859  0.8658
10714TIP3    H253558   5.785   4.771  11.147  1.1311  0.0089  0.6653
10715TIP3   OH253559   4.119   0.147   1.370  0.4413  0.6157 -0.0385
10715TIP3    H153560   4.059   0.123   1.300  1.0938  1.3633 -0.8706
10715TIP3    H253561   4.136   0.065   1.416  0.7228 -0.0642 -1.3200
10716TIP3   OH253562   3.869   1.626   5.626 -0.3110 -0.0416 -0.2710
10716TIP3    H153563   3.963   1.617   5.640 -0.6472 -0.8202  1.9527
10716TIP3    H253564   3.843   1.702   5.678 -0.9911 -0.1474 -0.4401
10717TIP3   OH253565   2.498   5.506   2.935  0.0108  0.2061  0.7398
10717TIP3    H153566   2.579   5.492   2.887 -1.2281  0.2839 -1.5003
10717TIP3    H253567   2.479   5.599   2.926 -0.8764 -0.0033  0.2738
10718TIP3   OH253568   0.549   5.785  11.489 -0.1569  0.3575 -0.2484
10718TIP3    H153569   0.485   5.820  11.426 -1.4689 -0.6196  0.5049
10718TIP3    H253570   0.611   5.857  11.502 -0.3987  0.9091 -1.9172
10719TIP3   OH253571   0.639   1.139  16.132  0.4796 -0.1257 -0.3998
10719TIP3    H153572   0.626   1.102  16.045 -0.3488  1.0263 -0.7993
10719TIP3    H253573   0.586   1.084  16.190 -0.6619  0.3349 -0.9675
10720TIP3   OH253574   2.038   4.041  11.947  0.0825  0.4366  0.5211
10720TIP3    H153575   2.057   4.017  11.856  0.0084 -0.9759  0.8622
10720TIP3    H253576   2.084   4.124  11.959 -1.2681  1.5372 -1.2988
10721TIP3   OH253577   0.949   5.557   4.669 -0.3283 -0.0418 -0.0677
10721TIP3    H153578   0.941   5.638   4.719  2.1382  0.2679 -0.0694
10721TIP3    H253579   0.945   5.584   4.577  0.7336  0.1396 -0.0720
10722TIP3   OH253580   3.274   2.287   6.034 -0.3697  0.1646 -0.4961
10722TIP3    H153581   3.307   2.247   6.115 -0.0616 -0.5408 -0.9613
10722TIP3    H253582   3.197   2.235   6.012  1.9777 -2.6561 -3.0312
10723TIP3   OH253583   0.841   5.026   4.519  0.0305 -0.5174  0.0549
10723TIP3    H153584   0.787   4.964   4.568 -0.4379  1.5717  2.3785
10723TIP3    H253585   0.781   5.065   4.456 -0.7195  0.4082  1.3119
10724TIP3   OH253586   4.830   3.316  11.260  0.2419  0.2780 -0.2296
10724TIP3    H153587   4.897   3.254  11.231 -1.3377 -1.3725 -0.4882
10724TIP3    H253588   4.866   3.402  11.237  1.1805 -0.6714 -2.6439
10725TIP3   OH253589   3.497   1.374  11.576  0.1620  0.2854  0.2129
10725TIP3    H153590   3.577   1.364  11.628  0.6233 -1.7136 -0.7763
10725TIP3    H253591   3.459   1.286  11.574  0.3023  0.1728 -3.0046
10726TIP3   OH253592   4.314   4.757   1.070 -0.3046  0.6505 -0.0660
10726TIP3    H153593   4.372   4.722   1.003 -0.2261  1.8355 -0.6459
10726TIP3    H253594   4.236   4.785   1.022 -1.2707 -0.6575  0.6611
10727TIP3   OH253595   1.256   1.337   6.392  1.0369  0.2994  0.0606
10727TIP3    H153596   1.239   1.248   6.360  0.7551 -0.1690  1.4291
10727TIP3    H253597   1.347   1.354   6.369  0.9754 -0.1846 -0.5683
10728TIP3   OH253598   0.301   0.396  14.882  0.2717 -0.1307  0.4268
10728TIP3    H153599   0.339   0.343  14.952  0.6251 -2.3437 -1.3613
10728TIP3    H253600   0.369   0.401  14.815 -2.2474 -4.3161 -2.9502
10729TIP3   OH253601   4.444   6.641   3.996  0.0808  0.8510  0.3891
10729TIP3    H153602   4.408   6.706   4.056  1.9130  2.3424 -0.0134
10729TIP3    H253603   4.412   6.557   4.030 -0.7658  1.8018  2.1033
10730TIP3   OH253604   4.302   0.764  17.042 -0.0772 -0.4701 -0.3562
10730TIP3    H153605   4.276   0.812  17.120 -1.9780 -0.4687 -0.9435
10730TIP3    H253606   4.302   0.829  16.972 -1.4281 -1.0254 -0.9123
10731TIP3   OH253607   4.694   3.949  15.790  0.2826 -0.0865  0.4047
10731TIP3    H153608   4.721   3.878  15.731  0.5125  0.3893 -0.0752
10731TIP3    H253609   4.665   3.905  15.869 -0.0556 -0.7449 -0.0726
10732TIP3   OH253610   2.974   3.651   0.702  0.2620  0.5643 -0.2406
10732TIP3    H153611   2.927   3.597   0.638  1.4107 -0.6880 -0.0454
10732TIP3    H253612   3.051   3.601   0.725  1.0031  1.9804  0.5037
10733TIP3   OH253613   4.744   1.081  17.350  0.4255 -0.2669  0.0000
10733TIP3    H153614   4.685   1.010  17.325  0.7436 -0.5975  0.1862
10733TIP3    H253615   4.690   1.160  17.345  0.0370 -0.5371 -0.0750
10734TIP3   OH253616   3.450   0.139  13.715 -0.2859 -0.0084  0.4528
10734TIP3    H153617   3.496   0.152  13.798  0.4593 -0.0938  0.0645
10734TIP3    H253618   3.467   0.219  13.666  0.6377 -0.6083 -0.2376
10735TIP3   OH253619   4.348   3.174   2.261 -0.8960 -0.5084 -0.4452
10735TIP3    H153620   4.306   3.253   2.296 -1.8644 -0.6483 -1.2438
10735TIP3    H253621   4.323   3.174   2.168  0.0311 -1.1568 -0.6993
10736TIP3   OH253622   4.069   4.385  13.088 -0.5862  0.5056  0.5578
10736TIP3    H153623   4.014   4.446  13.138 -0.5778  2.1260 -1.2736
10736TIP3    H253624   4.132   4.442  13.043 -0.1227 -0.9266 -0.6904
10737TIP3   OH253625   4.146   4.441  16.344  0.1826  0.0005  0.4670
10737TIP3    H153626   4.072   4.380  16.341  0.0952  0.1166 -1.5137
10737TIP3    H253627   4.205   4.408  16.276  0.3243  1.8499 -0.3591
10738TIP3   OH253628   5.449   1.314  17.350  0.5549 -0.4662 -0.2371
10738TIP3    H153629   5.512   1.243  17.337  1.1473 -0.4535  2.1021
10738TIP3    H253630   5.376   1.292  17.292  1.4160 -2.1032 -0.7768
10739TIP3   OH253631   1.708   6.501   4.745 -0.7922 -0.1901  0.0588
10739TIP3    H153632   1.663   6.534   4.667  0.5749  1.8850  0.0721
10739TIP3    H253633   1.681   6.560   4.815 -0.5325 -0.8857  0.7553
10740TIP3   OH253634   0.514   4.213  11.632  0.4090  0.6485  0.0700
10740TIP3    H153635   0.509   4.140  11.570 -0.7086  0.7177  0.0672
10740TIP3    H253636   0.446   4.273  11.603  0.6349  1.2167  0.7026
10741TIP3   OH253637   2.715   2.444  11.598  0.1451 -0.3296  0.5347
10741TIP3    H153638   2.730   2.379  11.529 -2.4898  0.6655 -1.1691
10741TIP3    H253639   2.775   2.515  11.578 -1.6239  0.6258 -1.8335
10742TIP3   OH253640   2.660   3.130  11.251 -0.2224  0.0356 -0.7948
10742TIP3    H153641   2.712   3.173  11.319 -1.7687 -0.1797  0.5808
10742TIP3    H253642   2.581   3.183  11.244 -2.6090 -2.8118  1.5721
10743TIP3   OH253643   4.578   2.929   4.656 -0.1197 -0.2737  0.4281
10743TIP3    H153644   4.528   2.972   4.725 -0.2408 -0.3122  0.3646
10743TIP3    H253645   4.617   2.854   4.698 -1.7949 -1.4406  0.0130
10744TIP3   OH253646   1.858   2.198  15.734 -0.4607  0.5126  0.0935
10744TIP3    H153647   1.820   2.264  15.677 -0.4264  0.1228 -0.3935
10744TIP3    H253648   1.952   2.208  15.723 -0.4638 -0.2177 -0.7016
10745TIP3   OH253649   5.728   1.405  15.214 -0.3406 -0.2868  0.0200
10745TIP3    H153650   5.650   1.458  15.228 -0.9715 -0.3169 -2.7414
10745TIP3    H253651   5.697   1.315  15.225 -0.7074 -0.2908 -0.9075
10746TIP3   OH253652   6.477   0.651  16.322 -0.7099 -0.8788  0.0215
10746TIP3    H153653   6.508   0.741  16.332 -3.2771  0.3845 -2.1395
10746TIP3    H253654   6.525   0.618  16.246  0.2306 -1.4055  0.8139
10747TIP3   OH253655   4.450   0.507  13.770  0.6389 -0.0212  0.0430
10747TIP3    H153656   4.544   0.514  13.791  1.0325  0.3957 -1.6894
10747TIP3    H253657   4.416   0.444  13.834  2.6701 -2.2612 -0.9244
10748TIP3   OH253658   1.187   5.820  15.243  0.2157  0.6280  0.2276
10748TIP3    H153659   1.245   5.878  15.192 -0.1204 -0.3071 -1.2810
10748TIP3    H253660   1.101   5.831  15.202  0.3951 -1.8928 -0.9740
10749TIP3   OH253661   5.138   1.324   0.461 -0.7196 -0.4878 -0.2250
10749TIP3    H153662   5.184   1.301   0.541 -1.8198  3.1405  1.6656
10749TIP3    H253663   5.201   1.376   0.411 -1.7603  2.4813  1.2909
10750TIP3   OH253664   0.748   2.297   4.791  0.2804 -0.0640 -0.0553
10750TIP3    H153665   0.803   2.253   4.856  1.1427 -0.6306 -1.1329
10750TIP3    H253666   0.721   2.378   4.833  0.6513 -0.5121  1.0817
10751TIP3   OH253667   3.763   3.407   0.975 -0.0184  0.3771  0.0891
10751TIP3    H153668   3.806   3.424   1.059 -0.3009 -1.0742  0.5696
10751TIP3    H253669   3.775   3.487   0.925 -0.3513  1.5112  1.7257
10752TIP3   OH253670   4.602   6.019   1.659 -0.1676 -0.8557 -0.1566
10752TIP3    H153671   4.597   6.114   1.671  0.7443 -0.6248 -1.4527
10752TIP3    H253672   4.639   5.987   1.741  2.1766  0.2399 -0.6949
10753TIP3   OH253673   6.503   4.289  15.925 -0.4883  0.0046  0.0827
10753TIP3    H153674   6.557   4.226  15.876 -1.5821  0.5641 -1.9230
10753TIP3    H253675   6.444   4.234  15.976  1.1490 -0.6004  1.4277
10754TIP3   OH253676   1.010   2.466  16.896  0.3987  0.1184 -1.0286
10754TIP3    H153677   0.970   2.545  16.859 -0.6067 -1.2474 -3.0294
10754TIP3    H253678   0.958   2.447  16.974  0.2213  1.0370 -0.9125
10755TIP3   OH253679   6.390   2.718  15.371  0.0123 -0.2217 -0.3483
10755TIP3    H153680   6.340   2.739  15.292 -0.6893  0.0569  0.1604
10755TIP3    H253681   6.388   2.799  15.423  0.9205 -0.2388 -0.2810
10756TIP3   OH253682   4.110   0.762  16.790  0.2155  0.5005  0.2761
10756TIP3    H153683   4.070   0.819  16.725  1.6593  0.6426 -0.5310
10756TIP3    H253684   4.084   0.674  16.764 -0.8867  0.6712  0.7272
10757TIP3   OH253685   4.567   1.323  15.313  0.0701 -0.1009  0.1817
10757TIP3    H153686   4.600   1.269  15.384 -0.9994 -0.4239  0.4590
10757TIP3    H253687   4.630   1.395  15.305  2.2787 -2.0284 -1.0684
10758TIP3   OH253688   3.148   4.302   5.711  0.6260 -0.8367 -0.6368
10758TIP3    H153689   3.225   4.345   5.674  1.2016  0.0237  1.4365
10758TIP3    H253690   3.074   4.357   5.686  0.7728 -1.1588 -1.8376
10759TIP3   OH253691   1.671   3.432  10.731  0.2155  0.1918 -0.3464
10759TIP3    H153692   1.636   3.521  10.737  0.1967  0.0943  1.4062
10759TIP3    H253693   1.614   3.388  10.669 -1.1275  0.8035  0.4068
10760TIP3   OH253694   2.426   2.887   0.045 -0.4615  0.2391  0.1907
10760TIP3    H153695   2.355   2.867  -0.016  0.3256 -0.1664 -0.6161
10760TIP3    H253696   2.423   2.815   0.109 -1.9772  1.2327  1.3118
10761TIP3   OH253697   1.319   3.840   5.907  0.3756  0.0378  0.2045
10761TIP3    H153698   1.271   3.763   5.876  0.6772 -0.3160  0.6137
10761TIP3    H253699   1.340   3.889   5.827  1.3811 -0.9993 -0.1916
10762TIP3   OH253700   5.748   1.058  14.571  0.5272 -0.2909 -0.0175
10762TIP3    H153701   5.736   1.049  14.477 -2.0017 -2.9938  0.3909
10762TIP3    H253702   5.815   0.993  14.594  0.6139 -0.1550  0.1165
10763TIP3   OH253703   0.098   3.042   5.858  0.4858  0.1390  0.1055
10763TIP3    H153704   0.004   3.051   5.841  0.5012  0.6517  0.2776
10763TIP3    H253705   0.108   3.065   5.950  0.1694 -4.2375  1.4481
10764TIP3   OH253706   6.325   0.805   4.069 -0.0698 -0.2724  0.2899
10764TIP3    H153707   6.242   0.765   4.095  0.5542 -2.4196 -0.8460
10764TIP3    H253708   6.319   0.813   3.974  0.8470  0.0319  0.2492
10765TIP3   OH253709   1.632   1.134   2.179 -0.1323  0.5114 -0.1816
10765TIP3    H153710   1.635   1.108   2.271 -0.0116 -0.5989 -0.4790
10765TIP3    H253711   1.722   1.156   2.158 -0.1575  0.7537 -0.0358
10766TIP3   OH253712   2.962   0.766  10.834  0.1432 -0.3694  0.3493
10766TIP3    H153713   2.896   0.708  10.796 -0.3871  0.2482  0.3072
10766TIP3    H253714   3.030   0.707  10.866 -0.5141 -1.0348  0.5536
10767TIP3   OH253715   1.975   5.492  10.733  0.0146  0.3560  0.4856
10767TIP3    H153716   1.907   5.443  10.779  0.8907 -0.8048  0.5826
10767TIP3    H253717   2.025   5.425  10.686 -0.6074  1.4496 -1.8695
10768TIP3   OH253718   3.418   0.232  15.855 -0.3194 -0.4953  0.5911
10768TIP3    H153719   3.422   0.312  15.908  0.7994 -0.5787  0.6550
10768TIP3    H253720   3.327   0.227  15.826 -0.2049  1.3903 -0.2842
10769TIP3   OH253721   4.597   5.709   0.197  0.3387  0.0651 -0.0191
10769TIP3    H153722   4.560   5.725   0.110  0.6604 -0.2229 -0.2093
10769TIP3    H253723   4.564   5.782   0.250 -1.5114 -0.8197  0.1440
10770TIP3   OH253724   5.462   6.205   4.418  0.0904  0.0417  0.2910
10770TIP3    H153725   5.556   6.209   4.436 -0.0461  1.9838  0.7785
10770TIP3    H253726   5.456   6.207   4.322  0.5441  2.8566  0.2313
10771TIP3   OH253727   2.709   1.050   2.945  0.4463 -0.8047 -0.2360
10771TIP3    H153728   2.728   1.091   3.028  0.8249 -1.0587 -0.1951
10771TIP3    H253729   2.653   1.113   2.899  0.2149 -0.6747  0.2140
10772TIP3   OH253730   0.628   5.628  14.846  0.3574 -0.3086  0.0621
10772TIP3    H153731   0.626   5.640  14.751 -3.0190  0.4946  0.1073
10772TIP3    H253732   0.548   5.580  14.866  2.0449 -2.4261  2.3713
10773TIP3   OH253733   3.289   0.822  16.820 -0.5427 -0.0260 -0.3006
10773TIP3    H153734   3.384   0.821  16.813 -0.4038  1.1142  1.0204
10773TIP3    H253735   3.263   0.732  16.801  0.6331  0.0007 -2.3410
10774TIP3   OH253736   4.785   2.137  12.082  0.1267  0.1824 -0.5519
10774TIP3    H153737   4.737   2.063  12.045  0.9888 -1.0275  0.6532
10774TIP3    H253738   4.742   2.215  12.045 -1.6857 -0.8746 -0.7739
10775TIP3   OH253739   4.940   5.481   0.351 -0.0428 -0.2400 -0.1238
10775TIP3    H153740   4.958   5.513   0.440 -1.3239 -0.2727  0.1594
10775TIP3    H253741   5.026   5.457   0.317  0.8002  2.0150  0.2319
10776TIP3   OH253742   4.251   0.335  17.209  0.6252 -0.0360 -0.0962
10776TIP3    H153743   4.195   0.331  17.131  0.1467  2.0563  0.0762
10776TIP3    H253744   4.261   0.244  17.236 -0.9798 -0.6430 -1.3668
10777TIP3   OH253745   6.576   3.908   5.730 -0.3377 -0.2940 -0.2328
10777TIP3    H153746   6.641   3.944   5.790  1.2358 -1.7320 -1.0199
10777TIP3    H253747   6.554   3.822   5.766 -0.6248 -0.4784 -0.8343
10778TIP3   OH253748   1.477   0.695   2.839  0.6450 -0.1124  0.6344
10778TIP3    H153749   1.419   0.726   2.909  0.0996 -0.6461  0.4269
10778TIP3    H253750   1.420   0.691   2.762  1.3741  1.0737 -0.0075
10779TIP3   OH253751   5.113   2.862   4.007 -0.8724 -0.2656 -0.3626
10779TIP3    H153752   5.150   2.774   4.004 -0.2744 -0.2185  2.6838
10779TIP3    H253753   5.019   2.848   4.017 -1.0216 -0.4773 -1.8503
10780TIP3   OH253754   5.721   1.965   0.845 -0.1711  0.0712  0.5053
10780TIP3    H153755   5.712   1.870   0.850  0.0728 -0.1075 -1.5879
10780TIP3    H253756   5.665   1.991   0.772  1.2233  1.2892 -0.1958
10781TIP3   OH253757   3.469   5.630   5.341  0.5909  0.0974  0.9740
10781TIP3    H153758   3.525   5.552   5.341 -0.8669 -1.0109  0.0998
10781TIP3    H253759   3.406   5.615   5.411 -0.6269 -0.2560 -0.1571
10782TIP3   OH253760   6.408   5.288  14.304 -0.2777 -0.1236  0.3294
10782TIP3    H153761   6.355   5.222  14.350 -0.6490  0.1983  0.3679
10782TIP3    H253762   6.344   5.351  14.271  0.0044 -0.2579 -0.4886
10783TIP3   OH253763   3.717   5.845   5.611 -0.0000 -0.5476  0.0458
10783TIP3    H153764   3.753   5.927   5.576  0.9542 -0.4688  1.1715
10783TIP3    H253765   3.626   5.867   5.632  0.1278  0.1096 -0.0408
10784TIP3   OH253766   4.080   5.997   2.633  0.0674  0.4954  0.2605
10784TIP3    H153767   4.014   6.006   2.564 -0.3608  0.9856  0.7142
10784TIP3    H253768   4.051   6.059   2.701 -0.2191 -0.8404  1.4172
10785TIP3   OH253769   2.032   2.774   2.065 -0.3269  0.2248  0.6882
10785TIP3    H153770   2.070   2.847   2.114  0.5931 -0.5453  1.1456
10785TIP3    H253771   1.965   2.815   2.010  0.3744  1.4566  0.7138
10786TIP3   OH253772   2.733   0.274  16.888 -0.2375  0.3044 -0.5081
10786TIP3    H153773   2.768   0.317  16.965 -0.1291 -0.4130 -0.1509
10786TIP3    H253774   2.638   0.290  16.892 -0.3330 -0.3513  0.1825
10787TIP3   OH253775   1.277   1.815  10.474  0.6397 -0.5353 -0.1081
10787TIP3    H153776   1.278   1.904  10.439  1.3586  0.5732  2.4740
10787TIP3    H253777   1.352   1.772  10.433 -0.1724 -0.2784 -1.9954
10788TIP3   OH253778   1.128   5.199   6.129 -0.0892 -0.2310  0.1595
10788TIP3    H153779   1.112   5.180   6.036 -0.6798 -0.9744  0.4026
10788TIP3    H253780   1.199   5.139   6.153  1.9882  1.8452 -0.4738
10789TIP3   OH253781   6.726   4.511   4.871 -0.1021  0.4603  0.0043
10789TIP3    H153782   6.794   4.455   4.910 -0.5178  0.3031  0.5153
10789TIP3    H253783   6.664   4.449   4.832 -0.6711  0.5534  0.7499
10790TIP3   OH253784   6.169   6.046  15.664 -0.0419 -0.4199 -0.2085
10790TIP3    H153785   6.101   6.000  15.615 -0.7097  1.6342 -1.3524
10790TIP3    H253786   6.251   6.006  15.634 -0.6515 -2.6218  0.8584
10791TIP3   OH253787   1.541   6.123   0.395 -0.0022  0.7441 -0.0796
10791TIP3    H153788   1.518   6.174   0.473  0.5460  1.1311 -0.1591
10791TIP3    H253789   1.468   6.063   0.383 -0.1704  0.7929  0.6371
10792TIP3   OH253790   1.831   2.397   2.028  0.5954  0.0074  0.3392
10792TIP3    H153791   1.760   2.388   2.092 -0.6081  1.2500 -0.7845
10792TIP3    H253792   1.904   2.350   2.068 -0.9946 -1.7868  1.2888
10793TIP3   OH253793   0.893   5.623  13.439 -0.0307  1.1078 -0.2059
10793TIP3    H153794   0.956   5.562  13.401 -1.1132  0.5614 -1.1613
10793TIP3    H253795   0.826   5.634  13.372 -1.3747  1.0448  1.0862
10794TIP3   OH253796   1.249   2.318  13.541  0.2657  0.0028  0.0569
10794TIP3    H153797   1.166   2.279  13.514  0.1981 -1.8666  2.6114
10794TIP3    H253798   1.242   2.410  13.515 -2.0684 -0.3838 -0.9122
10795TIP3   OH253799   3.452   5.920   3.744  0.3980  0.3907 -0.2984
10795TIP3    H153800   3.475   6.011   3.760  1.8133  0.1443 -0.7902
10795TIP3    H253801   3.515   5.890   3.679 -1.1089 -0.4795 -1.4384
10796TIP3   OH253802   4.558   4.887  12.536  0.1067  0.1618  0.8326
10796TIP3    H153803   4.478   4.842  12.510  0.7159 -0.9735  0.8783
10796TIP3    H253804   4.562   4.963  12.478  0.0151 -0.8449 -0.5374
10797TIP3   OH253805   4.883   4.874   5.099 -0.8413 -0.1515  0.0079
10797TIP3    H153806   4.976   4.879   5.120 -0.5133 -0.5398 -1.2274
10797TIP3    H253807   4.879   4.813   5.025 -1.9654  0.5239 -0.5218
10798TIP3   OH253808   2.347   5.979  16.555 -0.2691 -0.1899 -0.0158
10798TIP3    H153809   2.379   6.067  16.535 -0.0070 -0.2431  0.1749
10798TIP3    H253810   2.326   5.942  16.469 -1.2951  0.4011 -0.0460
10799TIP3   OH253811   0.271   6.329   5.409 -0.6516  0.3774 -0.0212
10799TIP3    H153812   0.364   6.309   5.414 -0.5399  0.6910 -0.7145
10799TIP3    H253813   0.267   6.425   5.403 -1.2300  0.8794  4.6399
10800TIP3   OH253814   0.814   2.450   3.303 -0.0610 -0.5042  0.9245
10800TIP3    H153815   0.784   2.490   3.222 -0.0211  1.2840  1.7561
10800TIP3    H253816   0.899   2.412   3.281  0.9739  1.8423  0.5976
10801TIP3   OH253817   2.471   5.604  12.968 -0.2817  0.6256 -0.1155
10801TIP3    H153818   2.494   5.613  13.060 -0.8860  1.5851 -0.0465
10801TIP3    H253819   2.511   5.521  12.941  1.4933  1.2306  0.5168
10802TIP3   OH253820   5.620   4.888  14.202 -0.6031  0.3720 -0.1492
10802TIP3    H153821   5.532   4.865  14.233 -0.7636 -1.1397 -1.5902
10802TIP3    H253822   5.611   4.978  14.170 -1.7125  0.1504 -0.5185
10803TIP3   OH253823   6.753   4.375   5.965  0.4570 -0.3800  0.1607
10803TIP3    H153824   6.794   4.447   6.013  0.2057  0.2163 -0.5036
10803TIP3    H253825   6.688   4.340   6.026 -1.9851  2.2753 -0.6800
10804TIP3   OH253826   6.697   6.444  15.306 -0.3355 -0.3193  0.2517
10804TIP3    H153827   6.646   6.452  15.225 -0.5956  0.3384  0.4776
10804TIP3    H253828   6.657   6.507  15.366  3.0842  3.1615 -0.7530
10805TIP3   OH253829   4.676   1.953  12.663  0.0913 -0.3633  0.5263
10805TIP3    H153830   4.664   1.869  12.617  1.5261  0.0203 -0.6262
10805TIP3    H253831   4.752   1.939  12.719  0.7601  0.3495 -0.1780
10806TIP3   OH253832   3.090   2.873   2.707  0.4445 -0.0223 -0.3924
10806TIP3    H153833   3.047   2.789   2.689 -1.3414  0.1001  2.6075
10806TIP3    H253834   3.176   2.849   2.743  0.8272 -0.4606 -1.5703
10807TIP3   OH253835   2.396   0.097   5.825 -0.1100  0.5409  0.2751
10807TIP3    H153836   2.364   0.175   5.780 -1.1564  0.3962  0.7380
10807TIP3    H253837   2.430   0.041   5.755 -2.2218  0.0837 -0.4516
10808TIP3   OH253838   0.102   6.441   2.479  0.1632  0.0562 -0.5812
10808TIP3    H153839   0.012   6.443   2.511  0.8243  2.8230  1.4797
10808TIP3    H253840   0.148   6.384   2.540  0.4441  1.4331  0.5407
10809TIP3   OH253841   1.989   3.956   4.758  0.0820 -0.2784 -0.1437
10809TIP3    H153842   2.030   3.895   4.697 -0.0668  0.0157 -0.5438
10809TIP3    H253843   2.020   3.928   4.844  1.7298  0.3733 -0.4818
10810TIP3   OH253844   3.218   4.057   1.486  0.2062  0.2694  0.5404
10810TIP3    H153845   3.304   4.016   1.498 -0.3121 -0.4189  2.1544
10810TIP3    H253846   3.237   4.151   1.477  1.2981 -0.1031 -1.8049
10811TIP3   OH253847   0.719   4.917  11.223  0.4395 -0.1167 -0.6756
10811TIP3    H153848   0.791   4.942  11.165  0.4975 -1.6223 -1.3232
10811TIP3    H253849   0.734   4.966  11.303  2.4264 -0.6468 -0.6631
10812TIP3   OH253850   3.538   0.823  14.824 -0.5559  0.4272  0.3149
10812TIP3    H153851   3.610   0.789  14.879  0.7347  1.8167 -0.4391
10812TIP3    H253852   3.466   0.838  14.885  1.6740  4.5154  2.3473
10813TIP3   OH253853   1.669   3.482   2.916 -0.1783  0.0691 -0.3825
10813TIP3    H153854   1.679   3.549   2.983  0.8056 -2.5096  2.2776
10813TIP3    H253855   1.590   3.507   2.868  0.0052  2.9095  0.6163
10814TIP3   OH253856   0.883   3.506  17.265  0.3209  0.1841  0.0680
10814TIP3    H153857   0.899   3.597  17.291 -0.0616  0.5673 -0.9628
10814TIP3    H253858   0.834   3.468  17.338 -0.0246  0.9839  0.2629
10815TIP3   OH253859   1.108   5.286   1.419 -0.1508 -0.4694 -0.0668
10815TIP3    H153860   1.019   5.269   1.448 -0.0426 -1.5710 -0.3606
10815TIP3    H253861   1.111   5.381   1.406 -1.3765 -0.4625 -0.3798
10816TIP3   OH253862   3.294   0.431   3.981 -0.5554  0.4104  0.1761
10816TIP3    H153863   3.345   0.440   3.900 -0.9727  1.2691  0.0032
10816TIP3    H253864   3.351   0.464   4.050  0.3553 -1.6298  0.4681
10817TIP3   OH253865   5.863   1.624   4.896  0.2385 -0.2216 -0.5426
10817TIP3    H153866   5.925   1.629   4.968 -0.0193 -0.8803 -0.2618
10817TIP3    H253867   5.909   1.661   4.821  0.4121  0.7254  0.0168
10818TIP3   OH253868   0.687   0.761   5.518 -0.4258 -0.3546 -0.3375
10818TIP3    H153869   0.649   0.818   5.450  1.9127  0.8798 -0.7110
10818TIP3    H253870   0.700   0.819   5.593  2.2404 -0.2134 -0.8086
10819TIP3   OH253871   5.505   4.697  10.971 -0.3201 -0.7016 -0.2894
10819TIP3    H153872   5.426   4.720  11.020 -0.3182 -0.2478 -0.4899
10819TIP3    H253873   5.509   4.762  10.900  0.6170 -0.2604  0.1427
10820TIP3   OH253874   6.071   5.478  15.168  0.2029 -0.0293  0.8008
10820TIP3    H153875   6.136   5.408  15.173 -0.4889 -0.6235  1.7343
10820TIP3    H253876   6.079   5.525  15.251  1.8498  2.1347 -0.4645
10821TIP3   OH253877   3.211   3.521   0.754  0.4145  0.4169  0.4498
10821TIP3    H153878   3.234   3.434   0.785  0.7141  1.0191  2.0210
10821TIP3    H253879   3.267   3.536   0.678  1.1987 -0.3075  0.8743
10822TIP3   OH253880   3.340   5.909   3.432  0.1227 -0.0855  0.5175
10822TIP3    H153881   3.348   5.853   3.354  0.6045 -0.0330  0.5284
10822TIP3    H253882   3.430   5.930   3.455 -0.0497  0.4609  0.6853
10823TIP3   OH253883   5.554   2.613   3.769 -0.1137 -0.6102  0.1598
10823TIP3    H153884   5.537   2.634   3.677  0.6828 -0.4640  0.0391
10823TIP3    H253885   5.648   2.625   3.779 -0.2779 -0.0519  1.1469
10824TIP3   OH253886   0.381   1.005  15.690  0.7661 -0.5416  0.5672
10824TIP3    H153887   0.371   0.927  15.636  0.9870 -0.4287  0.3588
10824TIP3    H253888   0.292   1.028  15.716  0.8379 -2.3178  2.7528
10825TIP3   OH253889   5.212   0.330  15.514 -0.0068 -0.3604  0.3375
10825TIP3    H153890   5.149   0.319  15.443  0.5628 -1.1084 -0.0618
10825TIP3    H253891   5.287   0.374  15.474  0.6596 -1.5292  0.2616
10826TIP3   OH253892   1.943   6.623   5.911 -0.2065 -0.1227 -0.0396
10826TIP3    H153893   2.011   6.691   5.902 -0.5160 -0.0833 -2.8354
10826TIP3    H253894   1.870   6.669   5.952  0.6526  0.3917  0.9921
10827TIP3   OH253895   2.018   0.714   1.260  0.4224 -0.3924 -0.4086
10827TIP3    H153896   2.040   0.797   1.302  0.7832 -1.9994  2.8897
10827TIP3    H253897   1.925   0.722   1.238  0.1378  0.4784  0.9950
10828TIP3   OH253898   3.130   1.777   2.099 -0.1564  0.4640  0.4113
10828TIP3    H153899   3.216   1.788   2.058 -0.0279  1.3320  0.8910
10828TIP3    H253900   3.087   1.710   2.046  1.2625 -0.8762  0.8790
10829TIP3   OH253901   1.769   1.309  16.144 -0.1431 -0.3595 -0.2567
10829TIP3    H153902   1.786   1.222  16.180  0.3140 -0.2674 -0.2524
10829TIP3    H253903   1.855   1.351  16.140 -0.3692  0.1071 -0.2242
10830TIP3   OH253904   3.909   3.463   1.203  0.2331  0.1218  0.7448
10830TIP3    H153905   3.970   3.393   1.176  0.6689  0.6631  0.3081
10830TIP3    H253906   3.958   3.514   1.268  0.3666  0.7402  0.1677
10831TIP3   OH253907   2.611   3.872  13.893 -0.2555 -0.1790 -0.3614
10831TIP3    H153908   2.642   3.935  13.828 -0.9750 -0.2710 -0.8052
10831TIP3    H253909   2.683   3.865  13.956  0.1603  0.4585 -0.7528
10832TIP3   OH253910   3.935   4.652  16.789 -0.2097  0.3408  0.2179
10832TIP3    H153911   3.843   4.624  16.786  0.1735 -0.9545 -0.1106
10832TIP3    H253912   3.967   4.639  16.700 -0.0098  1.9575  0.0251
10833TIP3   OH253913   5.665   0.499   2.357 -0.0873  0.5844  0.2838
10833TIP3    H153914   5.746   0.449   2.366 -0.0308  0.5038 -0.5837
10833TIP3    H253915   5.679   0.555   2.280 -0.1064  2.0376  1.2924
10834TIP3   OH253916   1.961   4.078  12.689 -0.3970  0.3767  0.0301
10834TIP3    H153917   1.884   4.132  12.708  0.5614  1.6363  0.4472
10834TIP3    H253918   1.994   4.111  12.606 -1.3614 -1.4289 -1.1260
10835TIP3   OH253919   6.455   3.430  12.529 -0.0556 -0.0528  0.0567
10835TIP3    H153920   6.461   3.524  12.512 -2.2288 -0.1292 -1.5423
10835TIP3    H253921   6.523   3.391  12.474  1.5607  0.5966  1.5157
10836TIP3   OH253922   5.817   5.540  15.101  0.1864 -0.0525 -0.1780
10836TIP3    H153923   5.913   5.541  15.105  0.2972 -0.6229 -1.8608
10836TIP3    H253924   5.795   5.449  15.084 -0.6526  0.0793  0.1990
10837TIP3   OH253925   6.210   3.178   0.646 -0.3849 -0.4203 -0.2214
10837TIP3    H153926   6.199   3.112   0.714  1.6893 -1.0825 -0.4581
10837TIP3    H253927   6.148   3.152   0.578 -0.4206 -1.4480  0.1856
10838TIP3   OH253928   2.187   2.112   0.677  0.1353 -0.3698  0.2837
10838TIP3    H153929   2.176   2.086   0.585  1.5857 -0.7308  0.1756
10838TIP3    H253930   2.167   2.205   0.678  0.9508 -0.1714 -0.5919
10839TIP3   OH253931   3.129   6.334   0.200 -0.3208 -0.5261 -0.6688
10839TIP3    H153932   3.119   6.239   0.189 -0.9964 -0.3442 -1.7943
10839TIP3    H253933   3.089   6.371   0.122  0.8428  0.6548 -0.7411
10840TIP3   OH253934   3.303   1.970  12.899 -0.0595  0.1465  0.0900
10840TIP3    H153935   3.362   1.927  12.961 -0.9264 -0.4803  0.5035
10840TIP3    H253936   3.337   1.944  12.813 -0.2510 -0.9729  0.3289
10841TIP3   OH253937   5.397   0.751  15.667  0.5884 -0.1220 -1.0076
10841TIP3    H153938   5.348   0.749  15.749  1.9287  1.6670 -0.0919
10841TIP3    H253939   5.334   0.786  15.603 -0.2213 -0.7762 -0.5910
10842TIP3   OH253940   6.308   1.555   3.241  0.2876 -0.3975 -0.6886
10842TIP3    H153941   6.287   1.645   3.267 -0.2762 -0.6530 -0.2507
10842TIP3    H253942   6.223   1.514   3.225  0.4973 -1.1192  0.0017
10843TIP3   OH253943   3.236   2.005  17.264 -0.0642  0.3419  0.3633
10843TIP3    H153944   3.171   2.062  17.305 -0.4426  0.3624 -0.2485
10843TIP3    H253945   3.204   1.992  17.174  2.3439  2.9837 -1.0542
10844TIP3   OH253946   2.972   3.557  15.418 -0.4581 -0.4899  0.1035
10844TIP3    H153947   2.890   3.528  15.378  0.0784 -1.4629 -0.3581
10844TIP3    H253948   3.016   3.475  15.442  0.4853  0.0014  0.0895
10845TIP3   OH253949   3.089   2.303  16.542 -0.0410  0.4555 -0.2446
10845TIP3    H153950   3.183   2.304  16.555 -0.1914 -0.4037  1.1203
10845TIP3    H253951   3.058   2.384  16.583  0.0613  0.5008 -0.2576
10846TIP3   OH253952   4.426   4.258  15.905  0.3974 -1.1904  0.3220
10846TIP3    H153953   4.387   4.281  15.820 -0.4744 -2.0472  0.4648
10846TIP3    H253954   4.519   4.248  15.887  0.8385  2.0773  0.2060
10847TIP3   OH253955   2.206   3.058  15.060 -0.6989 -0.2404 -0.5173
10847TIP3    H153956   2.141   3.010  15.113 -1.5931  0.5589 -0.8552
10847TIP3    H253957   2.245   3.119  15.122 -0.4333 -0.5506 -0.3715
10848TIP3   OH253958   1.243   1.256   4.404  0.0418  0.3924  0.2830
10848TIP3    H153959   1.278   1.345   4.391 -0.6637  0.6436  0.0634
10848TIP3    H253960   1.181   1.266   4.476 -1.7695  0.5710 -1.2249
10849TIP3   OH253961   6.723   5.023  10.655 -0.1659  0.0992 -0.4547
10849TIP3    H153962   6.780   5.093  10.624 -1.4593  0.3433 -2.5160
10849TIP3    H253963   6.779   4.945  10.657  0.9915  0.9344  0.7149
10850TIP3   OH253964   1.121   4.443   3.563  0.4637 -0.2989 -0.1989
10850TIP3    H153965   1.150   4.506   3.496 -1.9323  0.6108 -0.4655
10850TIP3    H253966   1.099   4.497   3.639 -2.7293 -0.6022 -0.8060
10851TIP3   OH253967   5.878   0.788  11.418  0.1192  0.0772 -0.5227
10851TIP3    H153968   5.901   0.846  11.346  2.8592 -1.9130 -1.4143
10851TIP3    H253969   5.837   0.712  11.377  1.3632 -0.9127 -0.0482
10852TIP3   OH253970   2.538   1.695  14.124 -0.3049 -0.0775  0.1264
10852TIP3    H153971   2.457   1.645  14.132 -1.2490  1.5756  1.5022
10852TIP3    H253972   2.510   1.786  14.123  1.2897  0.5301 -3.0215
10853TIP3   OH253973   1.530   1.205   4.163  0.0204  0.0872  0.2980
10853TIP3    H153974   1.505   1.177   4.075  0.1949  1.7076 -0.2973
10853TIP3    H253975   1.605   1.263   4.149  0.9721 -0.7617  1.6535
10854TIP3   OH253976   5.238   2.832   1.360 -0.3107 -0.3284 -0.1320
10854TIP3    H153977   5.144   2.843   1.371 -0.3945 -0.3795 -0.7444
10854TIP3    H253978   5.260   2.886   1.284  0.0954 -0.5844 -0.2017
10855TIP3   OH253979   0.259   1.247  16.207 -0.1488  0.1188  0.0193
10855TIP3    H153980   0.228   1.275  16.121 -0.4383 -0.0186  0.0787
10855TIP3    H253981   0.325   1.312  16.231  0.4474 -0.2243 -0.6179
10856TIP3   OH253982   2.631   2.501  15.931  0.2766  0.0277  0.3278
10856TIP3    H153983   2.595   2.478  15.845  1.0375 -0.9272  0.2415
10856TIP3    H253984   2.684   2.579  15.915 -1.7966  1.5637  0.4891
10857TIP3   OH253985   0.530   4.209  12.412 -0.4955 -0.6083  0.2961
10857TIP3    H153986   0.499   4.120  12.397 -0.7630 -0.2975 -1.1464
10857TIP3    H253987   0.454   4.256  12.447 -0.6971 -0.6522 -0.0829
10858TIP3   OH253988   0.794   4.494  12.887  0.0934 -0.1336  0.5831
10858TIP3    H153989   0.855   4.421  12.871 -0.8758 -1.1389  1.3025
10858TIP3    H253990   0.844   4.572  12.864  1.5689 -0.9417  0.8866
10859TIP3   OH253991   3.515   0.806  12.115 -0.1335 -0.5194  0.0743
10859TIP3    H153992   3.448   0.827  12.180 -0.1269 -0.9180  0.2124
10859TIP3    H253993   3.467   0.794  12.033 -0.0899  0.4674 -0.1034
10860TIP3   OH253994   4.067   6.378  16.643 -0.4572 -0.4255 -0.5778
10860TIP3    H153995   4.085   6.328  16.563  0.2586  0.8545 -1.2544
10860TIP3    H253996   3.993   6.435  16.620 -1.1827 -1.0448  0.1421
10861TIP3   OH253997   0.716   2.798   5.792 -0.0111  0.0935  0.0067
10861TIP3    H153998   0.790   2.804   5.732 -0.4005  0.6041 -0.4335
10861TIP3    H253999   0.640   2.787   5.735 -0.4604  1.2464  0.3581
10862TIP3   OH254000   5.471   0.929   2.557  0.3392  0.0990  0.2512
10862TIP3    H154001   5.505   0.984   2.487 -1.0930  0.8849  0.1270
10862TIP3    H254002   5.465   0.842   2.518  3.3168 -0.3966  0.6746
10863TIP3   OH254003   0.660   0.810   0.512  0.1758 -0.2406  0.3964
10863TIP3    H154004   0.753   0.795   0.494 -0.1083 -2.1612  0.2848
10863TIP3    H254005   0.652   0.905   0.519  1.9529  0.0371 -0.6366
10864TIP3   OH254006   3.246   6.115   3.768  0.2489  0.3044 -0.8196
10864TIP3    H154007   3.252   6.023   3.741 -1.3242  0.1601 -0.7572
10864TIP3    H254008   3.162   6.145   3.734 -1.3001  0.4743  2.6890
10865TIP3   OH254009   1.674   1.096  17.035  0.5478  0.3477 -0.6680
10865TIP3    H154010   1.600   1.047  16.998 -0.3229  0.0067  1.3943
10865TIP3    H254011   1.713   1.035  17.098  0.4713  1.7336  0.7492
10866TIP3   OH254012   3.434   4.911   3.709  0.5060 -0.0878  0.6466
10866TIP3    H154013   3.497   4.953   3.650  1.5461 -1.3013  0.8630
10866TIP3    H254014   3.478   4.910   3.794  0.6203 -1.8329  0.5891
10867TIP3   OH254015   3.160   5.105   2.617  0.5260  0.0034  0.3748
10867TIP3    H154016   3.134   5.048   2.545 -0.8483 -0.4344  1.1713
10867TIP3    H254017   3.176   5.046   2.690 -1.8624  0.6083  1.4982
10868TIP3   OH254018   0.095   4.676  15.885  0.3141 -0.3652  0.4042
10868TIP3    H154019   0.043   4.678  15.805 -0.2011  2.7190  0.7071
10868TIP3    H254020   0.045   4.621  15.945 -1.7541  1.1002  0.1072
10869TIP3   OH254021   1.296   4.537   3.049 -0.0977 -0.0755  0.0174
10869TIP3    H154022   1.340   4.456   3.072 -0.1198  0.1399  0.8640
10869TIP3    H254023   1.250   4.518   2.967  1.4739 -0.3310 -0.8585
10870TIP3   OH254024   5.508   0.165  15.499  0.4876  0.2949  0.1050
10870TIP3    H154025   5.517   0.225  15.572  0.7519 -0.8788  1.0616
10870TIP3    H254026   5.532   0.217  15.422  0.9111  1.3388  0.9223
10871TIP3   OH254027   6.492   2.382  15.231 -0.0080 -0.1355 -0.1234
10871TIP3    H154028   6.398   2.367  15.221 -0.0491 -0.1250  0.2449
10871TIP3    H254029   6.531   2.347  15.150 -0.3768  0.3310 -0.5103
10872TIP3   OH254030   4.414   1.071   4.839 -0.2257 -0.7756  0.4220
10872TIP3    H154031   4.491   1.103   4.886  0.0968 -1.2788  0.2525
10872TIP3    H254032   4.360   1.029   4.907  0.0200 -1.0983  0.4202
10873TIP3   OH254033   5.845   1.419   5.935 -0.1120  0.4310  0.2874
10873TIP3    H154034   5.808   1.332   5.919  0.6921 -0.1583  1.5403
10873TIP3    H254035   5.806   1.447   6.018 -2.7854  2.6477 -1.5302
10874TIP3   OH254036   5.802   1.239   1.202 -0.1986 -0.1145 -0.3927
10874TIP3    H154037   5.846   1.319   1.173  0.5937 -0.3191  0.1939
10874TIP3    H254038   5.776   1.258   1.292  2.1306 -1.2868  0.6373
10875TIP3   OH254039   3.480   2.817  12.908  0.3571 -0.0550 -0.3250
10875TIP3    H154040   3.473   2.826  13.003  3.5299  1.8308 -0.1225
10875TIP3    H254041   3.419   2.882  12.873 -0.7196 -0.6507  0.3956
10876TIP3   OH254042   2.711   5.360   3.283 -0.3069 -0.6930  0.3326
10876TIP3    H154043   2.658   5.288   3.249 -0.2292  0.2734 -1.9828
10876TIP3    H254044   2.801   5.338   3.256  0.2692 -1.3520  2.5504
10877TIP3   OH254045   6.462   3.386   1.289 -0.5895 -0.2905  0.0036
10877TIP3    H154046   6.548   3.423   1.269 -0.6296  0.3171  0.9229
10877TIP3    H254047   6.469   3.356   1.380 -1.7310  0.9315  0.5164
10878TIP3   OH254048   4.082   3.702   2.586 -0.4014  0.2506 -0.0292
10878TIP3    H154049   4.086   3.626   2.644 -0.1402  0.6247  0.4429
10878TIP3    H254050   4.055   3.774   2.642 -2.6894  0.1236 -0.8540
10879TIP3   OH254051   0.724   0.681  15.390  0.4743  0.1995  0.1206
10879TIP3    H154052   0.735   0.775  15.406 -3.1348  0.8159 -0.2115
10879TIP3    H254053   0.683   0.677  15.304  1.3487 -1.7697 -0.2355
10880TIP3   OH254054   1.209   1.241   3.686 -0.0646 -0.3456 -0.1508
10880TIP3    H154055   1.189   1.156   3.725 -1.3646  0.2572  0.5877
10880TIP3    H254056   1.210   1.302   3.760  1.6233  0.1742 -0.5752
10881TIP3   OH254057   2.004   5.216  12.347 -0.1703  0.2775 -0.1866
10881TIP3    H154058   1.995   5.121  12.343 -0.2564  0.3267 -2.0597
10881TIP3    H254059   1.984   5.246  12.258 -1.3052  2.1558  0.6353
10882TIP3   OH254060   1.491   0.066   2.222 -0.0328 -0.7300  1.0497
10882TIP3    H154061   1.484  -0.021   2.182 -1.2366  0.0383 -0.5694
10882TIP3    H254062   1.576   0.067   2.265  0.0668 -2.6476  0.9548
10883TIP3   OH254063   1.509   3.486  15.646 -0.1624  0.1533 -0.1543
10883TIP3    H154064   1.513   3.575  15.610  1.2811  0.2533  0.1727
10883TIP3    H254065   1.528   3.429  15.571 -0.3934  0.1578 -0.2172
10884TIP3   OH254066   4.933   2.379  13.117  0.1983 -0.2682 -0.7148
10884TIP3    H154067   5.002   2.313  13.110  2.8788  2.3993 -1.3036
10884TIP3    H254068   4.893   2.381  13.030  0.8095 -0.4086 -1.0061
10885TIP3   OH254069   4.817   2.360   2.427 -0.3462  0.1341 -0.1815
10885TIP3    H154070   4.893   2.355   2.369 -1.1522 -4.4808 -1.2405
10885TIP3    H254071   4.835   2.296   2.496 -3.0828 -0.9605 -0.3560
10886TIP3   OH254072   1.074   2.056  14.140  0.5333  0.3653 -0.6670
10886TIP3    H154073   1.095   2.081  14.050  0.4306  3.2864  0.0259
10886TIP3    H254074   1.031   1.971  14.132 -0.8381  1.2043 -3.5342
10887TIP3   OH254075   0.787   2.246  12.005 -0.3061 -0.1789 -0.3420
10887TIP3    H154076   0.716   2.182  11.997  0.3014 -0.7121 -2.0644
10887TIP3    H254077   0.864   2.200  11.971  0.3903  1.1083 -0.5687
10888TIP3   OH254078   4.087   2.914  11.382  0.1209 -0.4350 -0.2705
10888TIP3    H154079   4.068   2.883  11.471  2.0304 -0.5720  0.1326
10888TIP3    H254080   4.037   2.995  11.374 -0.4813 -0.6869  0.7342
10889TIP3   OH254081   1.040   6.509  11.666  0.4775  0.0754 -0.0295
10889TIP3    H154082   1.103   6.464  11.723  1.4473  0.7484 -0.5298
10889TIP3    H254083   1.093   6.540  11.593 -0.6814 -0.4545 -1.1295
10890TIP3   OH254084   3.984   6.597  11.877  0.1423  0.3084  0.6589
10890TIP3    H154085   3.949   6.660  11.814  0.6373  0.1181  0.1843
10890TIP3    H254086   4.017   6.651  11.949  1.0629  0.6310  0.0068
10891TIP3   OH254087   1.062   0.958  13.258 -0.2214  0.7173 -0.0189
10891TIP3    H154088   1.142   0.925  13.218  0.5385  3.1017 -0.6352
10891TIP3    H254089   1.004   0.975  13.184 -0.5686  0.8029  0.2713
10892TIP3   OH254090   6.629   1.720  17.279  0.4224  0.0434  0.0358
10892TIP3    H154091   6.563   1.719  17.348  0.9674 -1.0164  0.5587
10892TIP3    H254092   6.643   1.813  17.261 -1.2404  0.3010 -0.1298
10893TIP3   OH254093   1.985   5.092   4.181  0.9695  0.0793  0.3247
10893TIP3    H154094   2.069   5.067   4.220  0.3009  0.6945  2.2759
10893TIP3    H254095   1.954   5.012   4.139  4.3266  0.7730 -4.1879
10894TIP3   OH254096   1.245   3.594  13.814  0.1848  0.1604  0.3886
10894TIP3    H154097   1.310   3.644  13.864  0.4000 -0.0437  0.3135
10894TIP3    H254098   1.281   3.505  13.809 -0.7128 -0.2897  1.4725
10895TIP3   OH254099   2.965   2.665   6.171 -0.1470 -0.4774 -0.0198
10895TIP3    H154100   2.926   2.739   6.217  0.1657  0.6068 -1.4409
10895TIP3    H254101   3.059   2.680   6.177 -0.0949  0.5549 -2.2622
10896TIP3   OH254102   1.030   5.409   1.143 -0.5117  0.0507 -0.3315
10896TIP3    H154103   1.046   5.317   1.160 -0.7510  0.0902  0.1186
10896TIP3    H254104   0.968   5.436   1.211  1.2566  1.1106  0.9362
10897TIP3   OH254105   2.059   3.817  12.092 -0.2403  1.1028 -0.5151
10897TIP3    H154106   2.073   3.895  12.037 -0.7637  0.3697 -1.7153
10897TIP3    H254107   2.147   3.796  12.124  0.2593  0.9835 -1.8673
10898TIP3   OH254108   1.250   2.306   1.172 -0.8608 -0.0612  0.1261
10898TIP3    H154109   1.290   2.232   1.217 -0.1210  1.4564  2.1345
10898TIP3    H254110   1.291   2.383   1.212 -2.8502  1.4788 -0.6266
10899TIP3   OH254111   4.752   4.269   3.716 -0.0767  0.0660 -0.1146
10899TIP3    H154112   4.770   4.290   3.625  0.8991 -1.7413 -0.3868
10899TIP3    H254113   4.823   4.311   3.765 -0.2895  0.5712 -0.2322
10900TIP3   OH254114   2.768   4.950   1.066 -0.2298  0.6222  0.9470
10900TIP3    H154115   2.723   5.019   1.114  0.9616  1.5228  0.8345
10900TIP3    H254116   2.824   4.907   1.131  0.4399  1.0148  0.6416
10901TIP3   OH254117   1.856   5.345   3.683  0.3201 -0.3124  0.0409
10901TIP3    H154118   1.930   5.302   3.640  0.3424  0.8264 -1.1383
10901TIP3    H254119   1.849   5.302   3.768  2.9143  0.1708  0.5618
10902TIP3   OH254120   2.943   5.736  14.669  0.7057  0.3401  0.1173
10902TIP3    H154121   2.981   5.699  14.749  0.5547  0.5339  0.2790
10902TIP3    H254122   2.929   5.660  14.612  2.3711  0.3739 -0.3922
10903TIP3   OH254123   6.195   2.029   1.507  0.3414  0.1791  0.4991
10903TIP3    H154124   6.286   2.030   1.537  0.2835 -0.4738  0.7103
10903TIP3    H254125   6.155   2.104   1.551  0.7197  0.3354  0.5840
10904TIP3   OH254126   5.365   2.097  14.160 -0.5191  0.1386  0.1619
10904TIP3    H154127   5.460   2.094  14.156 -0.4922  0.9030  0.0393
10904TIP3    H254128   5.336   2.029  14.100 -0.0480  0.1954 -0.1304
10905TIP3   OH254129   5.410   6.345   4.653 -0.1164 -0.4888 -0.3241
10905TIP3    H154130   5.328   6.333   4.701 -0.1334 -1.1731 -0.5101
10905TIP3    H254131   5.408   6.278   4.585  0.1625  0.1123 -0.9330
10906TIP3   OH254132   5.823   4.140  11.127  0.1571  0.0926  0.5978
10906TIP3    H154133   5.758   4.132  11.057  0.7875 -0.1157  0.0300
10906TIP3    H254134   5.821   4.055  11.172 -0.2173  0.2126  0.8183
10907TIP3   OH254135   2.155   1.706   3.014 -0.3991  0.0231 -0.1853
10907TIP3    H154136   2.195   1.623   2.988  1.5024 -0.8154  4.4265
10907TIP3    H254137   2.181   1.767   2.945  3.2691 -1.9826 -0.8812
10908TIP3   OH254138   5.367   3.499   0.282 -0.0089  0.3284 -0.6881
10908TIP3    H154139   5.366   3.574   0.341  0.2719 -0.0032 -0.2551
10908TIP3    H254140   5.294   3.515   0.222 -0.4539  0.5502 -0.0963
10909TIP3   OH254141   2.736   3.540   3.853 -0.0658 -0.1573 -0.2478
10909TIP3    H154142   2.702   3.601   3.918  1.5004  0.5923 -0.0916
10909TIP3    H254143   2.737   3.590   3.771  2.9424  0.7723  0.2199
10910TIP3   OH254144   0.641   6.753   2.559  0.1299  0.0325  0.0055
10910TIP3    H154145   0.644   6.702   2.479  0.5909 -1.6817  1.0564
10910TIP3    H254146   0.709   6.714   2.615 -2.6168 -1.3562  2.6598
10911TIP3   OH254147   2.664   4.100  16.659 -0.2573  0.0266 -0.2450
10911TIP3    H154148   2.712   4.072  16.737  0.4200  1.0380 -0.2970
10911TIP3    H254149   2.715   4.066  16.586 -1.0340 -1.1586 -0.2869
10912TIP3   OH254150   3.961   2.199   4.231 -0.6310 -0.1456  0.2426
10912TIP3    H154151   3.942   2.259   4.158 -0.6361 -0.1639  0.2287
10912TIP3    H254152   3.888   2.212   4.292 -0.0665  0.6751  0.7686
10913TIP3   OH254153   2.009   1.245  13.310  1.2445  0.9242 -0.1730
10913TIP3    H154154   1.951   1.304  13.359  0.7124 -0.6295  1.1416
10913TIP3    H254155   1.969   1.240  13.222 -1.5619 -1.1872  1.0561
10914TIP3   OH254156   1.683   1.285   3.462 -0.2425  0.0457 -0.1922
10914TIP3    H154157   1.754   1.270   3.524 -1.2994  0.2865  1.1251
10914TIP3    H254158   1.710   1.239   3.383  1.1270 -0.3122  0.4573
10915TIP3   OH254159   5.512   1.218   1.773  0.4453  0.6015 -0.1538
10915TIP3    H154160   5.491   1.125   1.761 -0.7190  0.5663  1.7234
10915TIP3    H254161   5.565   1.241   1.697  0.5435 -1.5346 -0.7906
10916TIP3   OH254162   3.955   0.025   2.631 -0.1236 -0.1947 -0.0900
10916TIP3    H154163   4.027   0.085   2.613 -1.6743  2.0847  0.7608
10916TIP3    H254164   3.992  -0.042   2.689  1.9963 -0.9190 -2.1347
10917TIP3   OH254165   3.104   4.368   0.667 -0.3434  0.5202  0.0721
10917TIP3    H154166   3.026   4.312   0.662 -0.2797  0.3590  0.8356
10917TIP3    H254167   3.123   4.376   0.760  0.7636  0.2655 -0.1100
10918TIP3   OH254168   5.621   5.612  10.966  0.3659  0.2094 -0.1571
10918TIP3    H154169   5.564   5.622  10.890 -1.2950  0.8796  1.1226
10918TIP3    H254170   5.703   5.655  10.940 -0.0235  0.1064 -1.6731
10919TIP3   OH254171   4.025   4.885  12.996 -0.7439 -0.2879  0.6436
10919TIP3    H154172   3.993   4.972  13.023  0.6876 -0.3544  2.8017
10919TIP3    H254173   3.946   4.831  12.993 -1.5137  0.7955  0.3607
10920TIP3   OH254174   3.084   0.006   0.673 -0.2707  0.2599  0.2855
10920TIP3    H154175   3.044   0.086   0.705 -0.9518  0.4912 -1.0465
10920TIP3    H254176   3.177   0.026   0.667 -0.6915  1.9761 -2.6045
10921TIP3   OH254177   4.603   5.883  11.917  0.0511  0.1191  0.4746
10921TIP3    H154178   4.523   5.855  11.872 -0.4499 -0.3654  1.6251
10921TIP3    H254179   4.668   5.893  11.847 -1.1923  1.2224 -0.5601
10922TIP3   OH254180   0.940   6.435   1.902  0.5440 -0.0251 -0.0915
10922TIP3    H154181   0.965   6.344   1.885 -1.2026 -0.8144  1.2771
10922TIP3    H254182   0.930   6.474   1.814  0.4135 -1.4109 -0.7151
10923TIP3   OH254183   0.397   0.421  14.420 -0.1152  0.8264  0.3553
10923TIP3    H154184   0.415   0.385  14.334  1.5350 -0.0892  1.0319
10923TIP3    H254185   0.314   0.468  14.410 -1.3432 -1.4445 -1.0827
10924TIP3   OH254186   6.101   1.690  15.829  0.6867  0.6156 -0.2818
10924TIP3    H154187   6.099   1.668  15.736  1.2105 -0.4383 -0.0525
10924TIP3    H254188   6.135   1.780  15.831  0.1617  0.8471 -1.1285
10925TIP3   OH254189   6.269   2.235   2.336 -0.3403  0.0036 -0.6133
10925TIP3    H154190   6.306   2.239   2.248  0.0838 -2.3788 -0.6112
10925TIP3    H254191   6.175   2.228   2.323 -0.3747  0.7892 -0.8180
10926TIP3   OH254192   6.152   0.478   5.891  0.2253  0.1189 -0.0333
10926TIP3    H154193   6.086   0.510   5.953 -0.4399 -0.7174 -0.2970
10926TIP3    H254194   6.171   0.554   5.836 -1.0639  0.1981 -0.4108
10927TIP3   OH254195   0.292   0.440   3.989  0.0511  0.0485 -0.9406
10927TIP3    H154196   0.388   0.436   3.987  0.0346 -0.7150 -0.5733
10927TIP3    H254197   0.264   0.361   3.943 -0.4012 -0.0099 -0.5708
10928TIP3   OH254198   5.637   0.898  15.668 -0.0311  0.2747  0.2025
10928TIP3    H154199   5.543   0.878  15.663 -0.0061  0.1952  0.0300
10928TIP3    H254200   5.654   0.910  15.761 -0.1849  0.1535  0.2468
10929TIP3   OH254201   3.763   3.947  12.614 -0.3673 -0.2738 -0.2429
10929TIP3    H154202   3.690   3.885  12.614 -1.1491  0.5985 -1.5760
10929TIP3    H254203   3.836   3.897  12.579 -0.2470 -1.2058  1.2527
10930TIP3   OH254204   0.820   6.428   1.638 -0.0688  0.1563 -0.0575
10930TIP3    H154205   0.841   6.419   1.545 -2.3630 -0.6307 -0.5658
10930TIP3    H254206   0.775   6.346   1.661  0.4126  0.3522  1.7467
10931TIP3   OH254207   2.152   4.303   3.007  0.4663 -0.8040  0.0376
10931TIP3    H154208   2.193   4.375   2.959 -2.8935 -0.5730 -2.9332
10931TIP3    H254209   2.160   4.227   2.950 -1.9383 -1.0219 -0.1297
10932TIP3   OH254210   4.074   0.527  12.538 -0.9969  0.2091 -0.3238
10932TIP3    H154211   3.980   0.537  12.525 -1.0917  0.2321  0.3201
10932TIP3    H254212   4.090   0.433  12.533 -1.2944  0.0716  1.0161
10933TIP3   OH254213   3.000   0.794   0.435  0.0544  0.3596  0.6081
10933TIP3    H154214   3.015   0.832   0.348  0.2748  0.4001  0.6617
10933TIP3    H254215   2.905   0.788   0.443 -0.1087  2.6038  1.3011
10934TIP3   OH254216   5.484   2.202   2.718  0.2506 -0.4135 -0.2231
10934TIP3    H154217   5.478   2.190   2.623 -0.1755 -0.5921 -0.1787
10934TIP3    H254218   5.576   2.185   2.739  0.9930  2.2044 -0.9515
10935TIP3   OH254219   4.296   3.432   6.054  0.4209  0.1546  0.2106
10935TIP3    H154220   4.364   3.491   6.021 -1.1120  1.8705 -0.0966
10935TIP3    H254221   4.293   3.450   6.148  0.2248  0.2755  0.1819
10936TIP3   OH254222   6.088   3.201  13.177  0.3487 -0.8407 -0.8298
10936TIP3    H154223   6.065   3.157  13.259 -0.2357 -0.0429 -0.5501
10936TIP3    H254224   6.115   3.131  13.119 -0.2318 -1.5356 -0.2823
10937TIP3   OH254225   2.860   5.485   3.860 -0.3860  0.2077  0.0840
10937TIP3    H154226   2.852   5.517   3.770  2.2936 -0.6883 -0.5417
10937TIP3    H254227   2.943   5.438   3.862 -0.1086  0.6165  3.1752
10938TIP3   OH254228   3.060   2.625   2.975  0.3340  0.3459  0.4882
10938TIP3    H154229   3.073   2.710   3.017  0.1285 -0.2240  1.7483
10938TIP3    H254230   3.114   2.564   3.026 -0.1751 -0.4276  0.1301
10939TIP3   OH254231   4.764   5.442  15.839 -0.5362 -0.3871 -0.0367
10939TIP3    H154232   4.817   5.437  15.918 -1.4619 -1.9188  0.5325
10939TIP3    H254233   4.814   5.392  15.774  0.1917  0.8149 -0.4241
10940TIP3   OH254234   5.154   6.484   1.004  0.1814  0.1953 -0.2597
10940TIP3    H154235   5.071   6.510   0.964  0.2865 -0.4335 -0.9191
10940TIP3    H254236   5.151   6.521   1.092 -0.5602  0.6405 -0.4609
10941TIP3   OH254237   5.007   6.042  11.397  0.0756 -0.2541  0.5491
10941TIP3    H154238   4.965   5.962  11.366  0.6041 -0.5987  0.6985
10941TIP3    H254239   4.945   6.111  11.377  1.5351  0.0363 -4.1109
10942TIP3   OH254240   0.518   0.891  12.626 -0.1928 -0.1176  0.2997
10942TIP3    H154241   0.463   0.963  12.660  0.0320  0.6587 -0.9062
10942TIP3    H254242   0.605   0.909  12.662 -0.4223 -0.5992  1.1341
10943TIP3   OH254243   2.596   3.703  13.287  0.0759 -0.2814 -0.2620
10943TIP3    H154244   2.578   3.779  13.341  0.1051  0.7627 -1.6526
10943TIP3    H254245   2.578   3.732  13.198 -1.9102 -2.5081 -0.6987
10944TIP3   OH254246   0.330   3.537   5.855  0.0041  0.0011 -0.4734
10944TIP3    H154247   0.398   3.582   5.906 -0.0189 -0.1519 -0.3060
10944TIP3    H254248   0.275   3.608   5.822  0.2205  0.1231 -0.5748
10945TIP3   OH254249   4.405   6.172  17.167  0.2655 -0.4084 -0.0546
10945TIP3    H154250   4.322   6.206  17.132  0.6258  1.2148  0.5430
10945TIP3    H254251   4.384   6.148  17.258  0.4121 -0.0482  0.0804
10946TIP3   OH254252   3.833   0.216  13.228  0.2954 -0.5726 -0.0676
10946TIP3    H154253   3.912   0.225  13.281 -0.7131 -0.8259  1.5356
10946TIP3    H254254   3.865   0.200  13.139  2.0481 -1.7796  0.7307
10947TIP3   OH254255   4.926   1.244   3.947 -0.1271  0.3069  0.0943
10947TIP3    H154256   4.927   1.332   3.986  0.9683  0.5151 -0.3489
10947TIP3    H254257   5.004   1.202   3.983 -1.0448 -0.7609  0.8826
10948TIP3   OH254258   4.370   0.952  16.187  0.3143  0.2355  0.5824
10948TIP3    H154259   4.383   1.040  16.153 -1.3287  0.9303  1.6294
10948TIP3    H254260   4.276   0.947  16.205  0.6692 -1.0816  2.3010
10949TIP3   OH254261   0.193   0.856  12.137 -0.3492  0.3095  0.3385
10949TIP3    H154262   0.244   0.933  12.113 -1.4978  0.7508 -0.7987
10949TIP3    H254263   0.192   0.802  12.058 -1.2151  0.0802  0.4941
10950TIP3   OH254264   6.134   6.340  12.821  1.1169 -0.6241 -0.3900
10950TIP3    H154265   6.196   6.268  12.811 -0.5655 -2.1312 -0.5372
10950TIP3    H254266   6.055   6.309  12.777 -0.5647  0.1306  1.8985
10951TIP3   OH254267   3.098   2.797   2.299 -0.2413 -0.2085  0.1542
10951TIP3    H154268   3.185   2.765   2.275 -0.5831 -0.1786 -1.1900
10951TIP3    H254269   3.058   2.723   2.345  1.2673  0.5242  2.8752
10952TIP3   OH254270   2.965   6.031  12.614  0.0124  0.2362 -0.2564
10952TIP3    H154271   3.021   6.023  12.537 -1.2368 -1.7441 -1.0419
10952TIP3    H254272   2.896   5.967  12.600 -1.6736  1.5892  1.3467
10953TIP3   OH254273   4.991   1.717  15.341  0.5202  0.6090  0.0901
10953TIP3    H154274   4.987   1.767  15.423 -1.9074  0.7563 -0.0221
10953TIP3    H254275   4.973   1.782  15.273 -0.3313  0.0157 -0.2714
10954TIP3   OH254276   0.777   3.693  12.312  0.3009  0.2384  0.2616
10954TIP3    H154277   0.702   3.700  12.371  2.2533  0.1444  2.9589
10954TIP3    H254278   0.768   3.767  12.252 -3.1113 -1.0940 -1.1573
10955TIP3   OH254279   6.071   1.854   3.562 -1.1348  0.1779 -0.2567
10955TIP3    H154280   5.985   1.894   3.547 -1.4405 -0.3917 -0.0491
10955TIP3    H254281   6.086   1.862   3.656 -1.1787 -0.1480 -0.2195
10956TIP3   OH254282   4.353   5.894  12.401  0.6395  0.0752  0.1512
10956TIP3    H154283   4.413   5.944  12.457 -0.3089  0.2542  1.0413
10956TIP3    H254284   4.389   5.806  12.400  0.2655 -0.1251  1.6915
10957TIP3   OH254285   3.266   0.777   4.924  0.1498  1.2291  0.1329
10957TIP3    H154286   3.212   0.699   4.910  2.3178 -0.3288 -0.0540
10957TIP3    H254287   3.212   0.834   4.978 -1.1710 -0.8050  1.0728
10958TIP3   OH254288   5.074   1.694   1.900 -0.5410  0.4463 -0.2447
10958TIP3    H154289   5.161   1.728   1.923 -0.0758 -1.9153  1.8513
10958TIP3    H254290   5.073   1.695   1.804  2.5271 -1.1048 -0.4113
10959TIP3   OH254291   0.895   0.488   0.411 -0.0124  0.0015 -0.0214
10959TIP3    H154292   0.938   0.417   0.363  0.8251  0.8453 -0.5430
10959TIP3    H254293   0.860   0.546   0.343 -1.6647 -0.4407  0.3906
10960TIP3   OH254294   0.477   4.026  13.006 -0.1590 -0.0561 -0.0539
10960TIP3    H154295   0.403   3.973  13.036 -0.8892  0.1056 -1.5194
10960TIP3    H254296   0.541   4.020  13.078 -0.4866 -2.3627  0.1295
10961TIP3   OH254297   3.421   4.982  16.019 -0.2251 -0.2878  0.1334
10961TIP3    H154298   3.339   4.958  15.975 -0.0155 -0.7770  0.0013
10961TIP3    H254299   3.436   5.073  15.995 -0.2708 -0.4575 -0.5609
10962TIP3   OH254300   4.297   4.946   3.770  0.3396  0.2146  0.3498
10962TIP3    H154301   4.288   4.890   3.693  0.3980 -0.1056  0.5748
10962TIP3    H254302   4.326   4.887   3.839 -1.6157  0.1061  1.1328
10963TIP3   OH254303   1.271   5.916   6.210  0.4457  0.2105  0.1007
10963TIP3    H154304   1.184   5.939   6.180  0.7596  1.8774  0.3567
10963TIP3    H254305   1.262   5.904   6.304  0.1002 -1.7627 -0.1515
10964TIP3   OH254306   4.327   4.590  13.346 -0.7331  0.1202  0.0384
10964TIP3    H154307   4.291   4.543  13.422 -1.3656  0.3582 -0.1094
10964TIP3    H254308   4.344   4.521  13.281 -0.2358 -0.0794  0.3692
10965TIP3   OH254309   3.848   1.483   6.175 -0.1957  0.6627 -0.2307
10965TIP3    H154310   3.879   1.564   6.215 -0.1009  0.5150 -0.0065
10965TIP3    H254311   3.824   1.427   6.249 -1.8306  1.0936 -0.3823
10966TIP3   OH254312   5.039   2.637   1.063 -0.1043 -0.1236  0.2150
10966TIP3    H154313   5.058   2.574   0.994 -2.2586 -0.4717 -0.1283
10966TIP3    H254314   5.117   2.691   1.068  1.6580 -2.5185  0.2318
10967TIP3   OH254315   2.922   2.051   1.847 -0.0779  0.0280 -0.0698
10967TIP3    H154316   2.932   2.110   1.772  1.0541  0.8129  0.6669
10967TIP3    H254317   3.004   2.001   1.848 -0.0306  0.1144  0.7079
10968TIP3   OH254318   1.898   5.413  11.534  0.5315 -0.6101 -0.3715
10968TIP3    H154319   1.910   5.478  11.604  1.2265  2.5419 -3.1936
10968TIP3    H254320   1.814   5.371  11.556  0.2414  0.9113  1.7979
10969TIP3   OH254321   5.121   0.915  14.187  0.0810 -0.3489  0.0066
10969TIP3    H154322   5.078   0.926  14.272 -0.3878 -0.4009 -0.2215
10969TIP3    H254323   5.168   0.832  14.195 -1.2908 -1.1804 -0.3352
10970TIP3   OH254324   0.244   4.933  12.930 -0.1472 -0.3862  0.3034
10970TIP3    H154325   0.207   4.866  12.873  1.4142 -1.4242  0.4494
10970TIP3    H254326   0.213   4.909  13.018 -0.6973 -0.1189  0.1839
10971TIP3   OH254327   6.564   5.390  16.532  0.5972  0.7638  0.2930
10971TIP3    H154328   6.507   5.317  16.509  1.3676  0.6994 -1.5808
10971TIP3    H254329   6.513   5.440  16.597 -0.7792 -0.3028  0.0904
10972TIP3   OH254330   0.359   3.088  12.266  0.4174  0.4293 -0.3563
10972TIP3    H154331   0.273   3.118  12.294 -0.3649 -0.3699 -1.7909
10972TIP3    H254332   0.421   3.142  12.315 -0.9028  1.8474 -0.1931
10973TIP3   OH254333   0.315   6.621   2.117 -0.1088 -0.2300 -0.5738
10973TIP3    H154334   0.285   6.530   2.124 -0.4438 -0.0470  0.5847
10973TIP3    H254335   0.239   6.673   2.145  0.8986  0.2942  1.3130
10974TIP3   OH254336   6.476   0.462  12.730 -0.3164 -0.1801 -0.0836
10974TIP3    H154337   6.441   0.457  12.819  0.2381 -1.0179  0.0965
10974TIP3    H254338   6.471   0.373  12.697 -0.5503  0.1325 -0.9121
10975TIP3   OH254339   1.319   6.501  13.295 -0.3696 -0.0952  0.2953
10975TIP3    H154340   1.273   6.575  13.335  0.3833  0.7781 -0.4088
10975TIP3    H254341   1.408   6.534  13.279 -0.3855 -0.7109 -1.2018
10976TIP3   OH254342   5.840   2.408  12.271 -0.6113 -0.2162  0.4455
10976TIP3    H154343   5.848   2.399  12.366 -1.9419  0.5965  0.6567
10976TIP3    H254344   5.747   2.395  12.252 -0.6164  1.0240 -0.5589
10977TIP3   OH254345   1.379   3.280   4.552  0.6906 -0.3306 -0.3662
10977TIP3    H154346   1.457   3.224   4.546 -0.2186 -1.5745 -1.0747
10977TIP3    H254347   1.312   3.224   4.592 -0.1803  0.3184 -0.8914
10978TIP3   OH254348   2.892   3.433  10.510  0.4634 -0.1991 -0.0005
10978TIP3    H154349   2.958   3.374  10.474 -0.1092 -0.2679 -0.9693
10978TIP3    H254350   2.942   3.499  10.558  1.3492  0.5442 -1.8581
10979TIP3   OH254351   2.870   1.337  15.651  0.3166  0.1630 -0.5207
10979TIP3    H154352   2.860   1.432  15.662  1.9721  0.3027 -0.0423
10979TIP3    H254353   2.806   1.299  15.711 -0.2482  0.9528 -0.5975
10980TIP3   OH254354   4.453   4.070   1.469 -0.0664 -0.0447  0.2731
10980TIP3    H154355   4.424   4.156   1.439 -0.1422 -0.1355  0.0893
10980TIP3    H254356   4.400   4.054   1.547 -0.0551  0.0743  0.3065
10981TIP3   OH254357   2.571   1.723  14.421  0.2453 -0.4083 -0.0616
10981TIP3    H154358   2.602   1.813  14.431 -1.3880  0.0586  1.5114
10981TIP3    H254359   2.600   1.697  14.334  3.2192  0.5997  0.5254
10982TIP3   OH254360   2.209   1.358  12.322  0.2980  0.4972  0.0652
10982TIP3    H154361   2.291   1.336  12.367  0.2457  0.5629  0.1924
10982TIP3    H254362   2.232   1.359  12.229  0.1881 -0.6050  0.0162
10983TIP3   OH254363   1.963   4.140  13.646 -0.3723 -0.1619 -0.0049
10983TIP3    H154364   1.869   4.123  13.635 -0.4813  0.9171 -0.9850
10983TIP3    H254365   1.988   4.089  13.722 -1.2844 -2.1605 -0.9801
10984TIP3   OH254366   5.469   6.415   3.845  0.2297  0.1753  0.4371
10984TIP3    H154367   5.400   6.378   3.901 -1.6825 -1.0337 -2.4906
10984TIP3    H254368   5.453   6.509   3.847 -1.1775 -0.0314  0.3040
10985TIP3   OH254369   3.640   6.662   4.690  0.4804 -0.0328 -0.0608
10985TIP3    H154370   3.617   6.569   4.692  1.6452 -0.3341  0.1141
10985TIP3    H254371   3.565   6.706   4.729  0.2394 -0.9735  0.5740
10986TIP3   OH254372   4.803   2.033  11.330 -0.3868  0.6664 -0.1434
10986TIP3    H154373   4.891   2.053  11.362 -0.4125 -0.6511  0.8127
10986TIP3    H254374   4.745   2.085  11.387 -0.4335 -1.6627  2.0995
10987TIP3   OH254375   2.152   2.369   5.630  0.7435  0.0834 -0.1724
10987TIP3    H154376   2.143   2.276   5.650 -0.9837  0.1862 -0.3622
10987TIP3    H254377   2.117   2.379   5.542  0.8223  0.9324 -0.1185
10988TIP3   OH254378   5.841   3.600  13.138  0.3804  0.0709  0.0319
10988TIP3    H154379   5.781   3.626  13.207 -1.8389 -1.5899 -1.1596
10988TIP3    H254380   5.879   3.682  13.107  0.0513  1.0058  1.9599
10989TIP3   OH254381   6.677   2.124   1.943 -0.2570  0.5099 -0.7896
10989TIP3    H154382   6.764   2.100   1.912 -0.6474 -1.4986 -0.4715
10989TIP3    H254383   6.678   2.220   1.948  2.1326  0.4957 -0.1699
10990TIP3   OH254384   2.145   2.097  15.688  1.0266 -0.7986 -0.5509
10990TIP3    H154385   2.126   2.106  15.781  0.0733  0.9664 -0.8565
10990TIP3    H254386   2.233   2.133  15.678  0.8207 -0.2350 -0.4150
10991TIP3   OH254387   2.036   6.125  13.457  0.2802  0.0437  0.0407
10991TIP3    H154388   2.128   6.100  13.456  0.0644 -0.7780  0.1380
10991TIP3    H254389   2.021   6.170  13.374  0.2146 -1.8786 -1.0299
10992TIP3   OH254390   5.472   1.600   2.018  0.6019 -0.2342  0.1027
10992TIP3    H154391   5.444   1.652   1.943 -1.2992  0.2277  1.0710
10992TIP3    H254392   5.443   1.650   2.094 -0.9385 -2.4179  1.0891
10993TIP3   OH254393   4.117   4.578  14.312  0.3116  0.4067 -0.6048
10993TIP3    H154394   4.197   4.531  14.287  1.0060  1.7416 -0.9881
10993TIP3    H254395   4.136   4.670  14.293 -1.4792  0.7123 -1.0921
10994TIP3   OH254396   2.253   0.890  15.116  0.0620 -0.1375 -0.2484
10994TIP3    H154397   2.318   0.951  15.151  0.0526 -0.5317  0.4655
10994TIP3    H254398   2.169   0.929  15.141  0.0679 -0.9451  1.0951
10995TIP3   OH254399   1.530   3.902   1.020 -0.8599  0.1515 -0.1420
10995TIP3    H154400   1.539   3.809   0.998 -0.4022  0.3006 -0.6117
10995TIP3    H254401   1.587   3.915   1.095 -1.8348 -0.1965  0.6754
10996TIP3   OH254402   4.011   1.180  13.601  0.7502 -0.0013 -0.5478
10996TIP3    H154403   3.997   1.097  13.557 -2.7719  0.8554 -1.3612
10996TIP3    H254404   4.042   1.156  13.688 -0.5860 -2.2350 -0.6050
10997TIP3   OH254405   6.311   3.538   1.695  0.6498 -0.2883  0.0896
10997TIP3    H154406   6.281   3.535   1.786  1.5246  0.5547  0.4290
10997TIP3    H254407   6.267   3.465   1.652 -0.2443 -0.3278  1.0500
10998TIP3   OH254408   2.493   1.560   6.781  0.2269  0.0850  0.0525
10998TIP3    H154409   2.533   1.478   6.812  0.5377  0.3836  0.4510
10998TIP3    H254410   2.556   1.594   6.717  0.9057  0.8464  1.0987
10999TIP3   OH254411   1.237   2.775   4.128  0.8044  0.4438 -0.1103
10999TIP3    H154412   1.172   2.711   4.102 -1.2119  2.4327 -0.2564
10999TIP3    H254413   1.307   2.766   4.063 -1.1736  0.9324 -2.4683
11000TIP3   OH254414   5.868   5.218   0.978 -0.0282 -0.3228  0.1241
11000TIP3    H154415   5.784   5.246   0.942 -0.0059  0.1264  0.4090
11000TIP3    H254416   5.853   5.211   1.072  0.7965  1.9170  0.4916
11001TIP3   OH254417   0.998   3.069  14.972  0.2004  0.3515 -0.7465
11001TIP3    H154418   1.093   3.062  14.960  0.1011 -0.2837 -1.1698
11001TIP3    H254419   0.988   3.144  15.031  0.9074  1.0169 -1.4512
11002TIP3   OH254420   3.935   2.484  15.870  0.0648 -0.1170 -0.1531
11002TIP3    H154421   3.873   2.557  15.874  0.4422  0.3219 -1.7443
11002TIP3    H254422   3.980   2.496  15.787  0.7836 -1.6590 -0.0044
11003TIP3   OH254423   5.673   4.706  13.633 -0.8895 -0.4180  0.2242
11003TIP3    H154424   5.600   4.650  13.657 -2.1000  0.9464 -0.1577
11003TIP3    H254425   5.683   4.695  13.539 -1.5735  0.4857  0.0337
11004TIP3   OH254426   3.352   1.292   6.200  0.3388 -0.1618  0.5175
11004TIP3    H154427   3.342   1.249   6.285 -1.4707  0.8878  0.8858
11004TIP3    H254428   3.296   1.241   6.141 -2.3401  1.8418  1.0916
11005TIP3   OH254429   3.538   0.753   2.751  0.4304 -0.6671  0.0686
11005TIP3    H154430   3.550   0.848   2.742 -0.6262 -0.4423  0.8637
11005TIP3    H254431   3.459   0.744   2.804 -0.0472 -2.0037 -0.8296
11006TIP3   OH254432   2.839   5.254  13.790 -0.1305  0.4691 -0.1384
11006TIP3    H154433   2.904   5.317  13.760 -1.4574  1.4714 -1.0123
11006TIP3    H254434   2.855   5.176  13.737  0.0466  0.8847 -0.6992
11007TIP3   OH254435   2.033   5.813   0.924 -0.7235  0.0415  0.5962
11007TIP3    H154436   2.025   5.868   1.002  0.8968  0.3725  0.5669
11007TIP3    H254437   1.974   5.853   0.860  0.1885  1.5911  0.6778
11008TIP3   OH254438   2.807   1.604  15.732 -0.0168  0.2182  0.5979
11008TIP3    H154439   2.761   1.664  15.792  1.1453  1.2375  0.5113
11008TIP3    H254440   2.896   1.638  15.728 -0.1821  0.5309 -2.1500
11009TIP3   OH254441   0.910   1.170  11.959 -0.0235 -0.0439 -0.1123
11009TIP3    H154442   0.918   1.082  11.996  1.9746 -0.3977 -1.2554
11009TIP3    H254443   0.825   1.170  11.915 -2.2514  0.1895  3.7084
11010TIP3   OH254444   0.984   5.544  11.546  0.3446  0.4031  0.0275
11010TIP3    H154445   0.942   5.555  11.631  0.2369  2.2075 -0.2045
11010TIP3    H254446   0.986   5.450  11.531  0.1801  0.0703  1.9214
11011TIP3   OH254447   1.681   3.403   1.636  0.2716  0.0401 -0.1145
11011TIP3    H154448   1.588   3.420   1.625  0.2288 -0.6183 -0.8751
11011TIP3    H254449   1.702   3.339   1.568  0.7644 -1.6665  1.5457
11012TIP3   OH254450   6.020   2.707   0.485  0.5481  0.4274 -0.6162
11012TIP3    H154451   6.058   2.619   0.485  1.2755  0.6614 -2.8752
11012TIP3    H254452   6.002   2.725   0.393 -1.2880  1.9589 -0.0200
11013TIP3   OH254453   4.060   3.545   1.619  0.2182  0.2724 -0.1132
11013TIP3    H154454   4.049   3.475   1.555  1.2838 -0.8968  0.9388
11013TIP3    H254455   4.036   3.505   1.703  0.1697  1.3773  0.4223
11014TIP3   OH254456   3.431   4.067  12.043 -0.0032  0.0516 -0.2127
11014TIP3    H154457   3.355   4.120  12.068 -1.1298 -0.8690 -1.5677
11014TIP3    H254458   3.409   4.032  11.957  1.1573 -1.7893  0.1806
11015TIP3   OH254459   3.881   1.570  17.187 -0.5146  0.3351  0.0947
11015TIP3    H154460   3.903   1.650  17.235  0.3982 -0.2047  0.6149
11015TIP3    H254461   3.903   1.500  17.248 -0.8316 -0.3249 -0.5415
11016TIP3   OH254462   0.199   5.480   4.383  0.1052 -0.1184 -0.2495
11016TIP3    H154463   0.232   5.438   4.462 -1.5930  1.1445  1.2028
11016TIP3    H254464   0.241   5.565   4.381 -0.1460  0.0012 -0.5080
11017TIP3   OH254465   0.466   4.656   3.807 -0.2359 -0.1571  0.0850
11017TIP3    H154466   0.538   4.599   3.833  0.3070  0.3158 -0.3470
11017TIP3    H254467   0.492   4.689   3.721 -0.4695  0.8577  0.3960
11018TIP3   OH254468   0.484   6.324   2.146  0.5688 -0.1856  0.0872
11018TIP3    H154469   0.526   6.256   2.199 -1.4535 -1.1398  0.5767
11018TIP3    H254470   0.555   6.382   2.119  2.3087 -2.2305  0.0586
11019TIP3   OH254471   2.261   3.354  14.451 -0.5668 -0.2600 -0.0097
11019TIP3    H154472   2.259   3.436  14.402 -2.1150 -0.7988 -0.9212
11019TIP3    H254473   2.274   3.381  14.542 -2.2134  1.1158 -0.1254
11020TIP3   OH254474   2.215   3.803  16.964  0.3108  0.0328  0.2728
11020TIP3    H154475   2.236   3.739  16.897  0.7740 -1.6554  1.9471
11020TIP3    H254476   2.231   3.758  17.047 -0.8268  1.8216  1.5512
11021TIP3   OH254477   3.143   0.748   1.022  0.6694 -0.2177  0.7950
11021TIP3    H154478   3.133   0.706   0.937  2.6853  0.1358  0.3416
11021TIP3    H254479   3.082   0.821   1.019  0.8959 -0.0503 -0.4690
11022TIP3   OH254480   1.419   3.594  13.139  0.0264 -0.1410  0.7240
11022TIP3    H154481   1.406   3.685  13.164  1.2754  0.1721  0.3333
11022TIP3    H254482   1.385   3.588  13.050 -0.6347 -0.2276  0.9750
11023TIP3   OH254483   3.914   2.705  13.154 -0.0477 -0.2470 -0.1012
11023TIP3    H154484   3.837   2.755  13.183 -1.2240 -1.5623 -0.8282
11023TIP3    H254485   3.937   2.651  13.229 -0.5417 -0.6633 -0.2431
11024TIP3   OH254486   2.841   2.367   0.146 -0.0450 -0.2292 -0.2762
11024TIP3    H154487   2.849   2.448   0.195  1.2111 -0.0385 -0.7630
11024TIP3    H254488   2.763   2.378   0.093 -0.9482 -0.1083  1.0340
11025TIP3   OH254489   0.514   4.394   2.589  0.1962  0.0386 -0.2734
11025TIP3    H154490   0.532   4.330   2.658  1.4440  0.6158 -0.0322
11025TIP3    H254491   0.419   4.388   2.575  0.1589 -1.2438  0.3370
11026TIP3   OH254492   3.924   5.605   1.704 -0.6575  0.8590 -0.5251
11026TIP3    H154493   3.882   5.660   1.770  2.1815  2.3974  0.2017
11026TIP3    H254494   3.905   5.648   1.621 -1.6476  0.7145 -0.3836
11027TIP3   OH254495   3.131   5.003  17.220 -0.3184 -0.1262  0.1171
11027TIP3    H154496   3.041   5.031  17.239 -0.1653  0.3308  0.1947
11027TIP3    H254497   3.174   5.000  17.305 -0.6295 -1.7100  0.2344
11028TIP3   OH254498   4.198   0.427  15.353 -0.0145  0.1645 -0.0944
11028TIP3    H154499   4.201   0.339  15.389 -0.8741  0.3095  0.3562
11028TIP3    H254500   4.185   0.414  15.259  0.6461 -0.1967 -0.1369
11029TIP3   OH254501   1.372   4.316   5.455 -0.3121 -0.2936  0.6931
11029TIP3    H154502   1.403   4.350   5.371  1.0986 -1.0761  0.8787
11029TIP3    H254503   1.282   4.287   5.437 -0.8599  1.6906  0.0619
11030TIP3   OH254504   2.698   2.389  13.914  0.5767  0.0270  0.0432
11030TIP3    H154505   2.620   2.390  13.858 -1.2047  0.1269  2.3755
11030TIP3    H254506   2.728   2.480  13.915 -0.6862  0.4645  0.8940
11031TIP3   OH254507   0.996   1.868   6.136  0.2104 -0.2719 -0.3288
11031TIP3    H154508   1.017   1.930   6.206 -0.3109 -0.1771 -0.2501
11031TIP3    H254509   0.901   1.856   6.143  0.5238 -2.5164  0.8342
11032TIP3   OH254510   1.011   5.849   1.436 -0.2909 -0.1864  0.0050
11032TIP3    H154511   1.094   5.862   1.480 -0.9151  0.0329  1.1609
11032TIP3    H254512   0.999   5.928   1.383  0.2003 -0.1964 -0.1240
11033TIP3   OH254513   3.152   4.626  15.877  0.0974 -0.8083 -0.1368
11033TIP3    H154514   3.123   4.597  15.791 -0.1375  0.2716 -0.4278
11033TIP3    H254515   3.172   4.545  15.924 -0.3128 -1.4273 -1.0132
11034TIP3   OH254516   0.203   0.519   2.592  0.3065 -0.4505  0.0561
11034TIP3    H154517   0.141   0.475   2.534 -3.1255  0.9253  2.4150
11034TIP3    H254518   0.248   0.582   2.535 -3.5259  1.4673 -1.1458
11035TIP3   OH254519   2.011   2.269  12.918  0.1245 -0.0849 -0.2476
11035TIP3    H154520   1.976   2.208  12.983  1.8099  0.0607  0.8924
11035TIP3    H254521   2.091   2.227  12.887  0.2681  0.6551 -0.9024
11036TIP3   OH254522   5.167   1.646  11.578  0.1341  0.2112  0.2653
11036TIP3    H154523   5.082   1.689  11.569  0.5845  0.7295 -2.0252
11036TIP3    H254524   5.154   1.582  11.648 -1.8468  0.9486  0.6253
11037TIP3   OH254525   4.004   0.802   6.179  0.2141 -0.4273  0.4554
11037TIP3    H154526   4.063   0.727   6.171 -0.4337 -1.1133  1.7959
11037TIP3    H254527   4.039   0.867   6.118  1.0228 -1.6614 -0.4427
11038TIP3   OH254528   0.463   1.246  14.072  0.4494 -0.8014 -0.5886
11038TIP3    H154529   0.400   1.189  14.115  0.0721  0.2343  0.2819
11038TIP3    H254530   0.545   1.230  14.118  0.2235 -0.2665  0.0109
11039TIP3   OH254531   3.448   1.037   1.920  0.1205  0.2425 -0.1935
11039TIP3    H154532   3.488   1.107   1.972  1.9526  0.9407 -2.3574
11039TIP3    H254533   3.370   1.077   1.882  0.4785  0.7327 -0.4267
11040TIP3   OH254534   3.348   3.862  16.935  0.1970  0.2293  0.3802
11040TIP3    H154535   3.423   3.919  16.954 -0.0251  0.8318 -0.5023
11040TIP3    H254536   3.276   3.899  16.985 -0.2166  1.3978 -1.0296
11041TIP3   OH254537   1.622   5.707  14.080  0.5232 -0.0779 -0.2659
11041TIP3    H154538   1.530   5.683  14.068  0.2041  0.8383  0.2283
11041TIP3    H254539   1.622   5.803  14.082  0.9316  0.0030  3.6035
11042TIP3   OH254540   6.148   5.718   0.333  0.1723  0.2187 -0.8844
11042TIP3    H154541   6.098   5.657   0.280 -2.1892  1.1174  0.1700
11042TIP3    H254542   6.165   5.793   0.276 -0.6676  0.3692 -0.9389
11043TIP3   OH254543   0.721   6.206  16.325  0.2989 -0.1597  0.7524
11043TIP3    H154544   0.701   6.257  16.247  0.2117 -1.0053  0.2114
11043TIP3    H254545   0.809   6.235  16.351 -0.6447  2.0071  1.8869
11044TIP3   OH254546   1.253   5.123  13.346 -0.5516 -0.5884 -0.5481
11044TIP3    H154547   1.181   5.068  13.313 -0.2157 -1.1332 -0.3962
11044TIP3    H254548   1.324   5.060  13.364  0.0744 -0.0232 -1.0023
11045TIP3   OH254549   5.555   5.818  15.426  0.7125 -0.1822 -0.7635
11045TIP3    H154550   5.525   5.828  15.516  0.1559  3.0886 -1.1840
11045TIP3    H254551   5.483   5.773  15.381 -0.9126  1.9160 -0.3991
11046TIP3   OH254552   6.734   2.198   0.224  0.0487  0.1183 -0.1759
11046TIP3    H154553   6.737   2.162   0.135  0.7303  1.3809 -0.7048
11046TIP3    H254554   6.659   2.257   0.224 -0.2426 -0.2437  0.2504
11047TIP3   OH254555   2.568   3.913   4.972 -0.0001  0.3417  0.2725
11047TIP3    H154556   2.659   3.899   4.996  0.0203  2.4512  1.7086
11047TIP3    H254557   2.549   3.845   4.907  2.1234 -1.0689  1.0459
11048TIP3   OH254558   0.277   2.334   4.464  0.0483  0.3903  0.4076
11048TIP3    H154559   0.263   2.348   4.371  1.5199 -0.8715 -0.0478
11048TIP3    H254560   0.245   2.245   4.479  0.0848  0.4828  1.0536
11049TIP3   OH254561   0.354   1.400  11.874  0.2237 -0.1950  0.0432
11049TIP3    H154562   0.373   1.418  11.782 -2.4523  0.4937 -0.4430
11049TIP3    H254563   0.335   1.307  11.877  2.0433 -0.6043  0.2921
11050TIP3   OH254564   4.376   5.153  11.831  0.4983  0.5035  0.0285
11050TIP3    H154565   4.422   5.074  11.862  0.4163  0.0115 -1.0603
11050TIP3    H254566   4.379   5.146  11.735  0.0612  1.5852 -0.0724
11051TIP3   OH254567   0.948   5.660  14.106 -0.4102 -0.4170  0.1005
11051TIP3    H154568   1.003   5.618  14.172 -1.1639 -1.1262  0.2909
11051TIP3    H254569   1.009   5.685  14.036  0.1514 -1.1895  0.3047
11052TIP3   OH254570   6.268   3.199   1.727 -0.3876  0.0093  0.0773
11052TIP3    H154571   6.235   3.260   1.661 -1.5324 -0.9723 -0.2738
11052TIP3    H254572   6.229   3.229   1.809  0.6953  0.9674  0.2749
11053TIP3   OH254573   2.886   1.811   4.709  0.4409 -0.1186  0.1021
11053TIP3    H154574   2.957   1.857   4.665  0.5108 -0.2523  0.0727
11053TIP3    H254575   2.927   1.774   4.788  0.5948 -0.8525 -0.3079
11054TIP3   OH254576   2.159   5.929   5.092 -0.1201  0.1806 -0.1551
11054TIP3    H154577   2.071   5.948   5.057  0.1604  1.8084 -0.0439
11054TIP3    H254578   2.155   5.956   5.183  0.7000  1.0110 -0.3439
11055TIP3   OH254579   4.264   6.178  12.279  0.0867 -0.1232  0.6866
11055TIP3    H154580   4.260   6.096  12.328 -0.9685  1.7780  4.1266
11055TIP3    H254581   4.184   6.178  12.226  0.2465 -1.4026  0.4061
11056TIP3   OH254582   0.855   3.994  15.699  0.0448 -0.0702 -0.3626
11056TIP3    H154583   0.790   3.951  15.755 -1.5775  3.2668  0.5905
11056TIP3    H254584   0.804   4.025  15.624  1.5131 -1.2760 -1.9450
11057TIP3   OH254585   5.667   6.021  16.702  0.0143 -0.0210  0.3454
11057TIP3    H154586   5.625   6.087  16.647  0.3656 -0.4539 -0.4575
11057TIP3    H254587   5.602   5.951  16.709  0.9156 -1.1879 -1.8037
11058TIP3   OH254588   1.612   2.487   0.219 -0.0890  0.5533  0.1051
11058TIP3    H154589   1.683   2.498   0.155 -0.2105 -1.6629 -0.5062
11058TIP3    H254590   1.649   2.519   0.301  0.8947  1.3268 -0.6157
11059TIP3   OH254591   6.511   5.786  13.201 -0.9510  0.2674 -0.4110
11059TIP3    H154592   6.432   5.819  13.242 -1.8304 -1.6661 -0.4428
11059TIP3    H254593   6.502   5.809  13.109 -1.6378 -0.1990 -0.4670
11060TIP3   OH254594   0.824   1.556  15.793 -0.0962  0.2170  0.2833
11060TIP3    H154595   0.898   1.603  15.755  0.8211 -0.5612  1.0568
11060TIP3    H254596   0.771   1.624  15.835  1.2095  0.6005  1.3868
11061TIP3   OH254597   0.254   4.184  15.722  0.0033 -0.8955  0.5704
11061TIP3    H154598   0.199   4.134  15.781 -1.1277 -0.8844 -0.4328
11061TIP3    H254599   0.238   4.146  15.636 -0.2020  0.5922 -0.0828
11062TIP3   OH254600   1.938   2.442   1.203 -0.2283 -0.0936 -0.2230
11062TIP3    H154601   1.982   2.489   1.274 -2.1041  1.6622 -0.1461
11062TIP3    H254602   1.969   2.352   1.212  1.4625  0.5703  1.2868
11063TIP3   OH254603   2.669   3.453  13.376  0.3255  0.7186  0.2111
11063TIP3    H154604   2.632   3.531  13.334 -0.4955  0.4845  0.4807
11063TIP3    H254605   2.745   3.430  13.322 -0.4767  0.6524 -0.9097
11064TIP3   OH254606   1.742   4.751   2.890 -0.2358 -0.2382 -0.3091
11064TIP3    H154607   1.705   4.692   2.957  0.2097  0.3854  0.5082
11064TIP3    H254608   1.752   4.834   2.936  1.7224 -0.2543 -0.6576
11065TIP3   OH254609   1.225   0.643  13.080  0.5163 -0.5255 -0.0431
11065TIP3    H154610   1.250   0.665  12.990 -1.0078 -1.0831 -0.6316
11065TIP3    H254611   1.153   0.702  13.101  0.4904 -0.7763  0.6195
11066TIP3   OH254612   5.437   1.575  15.884 -0.2503 -0.1946  0.0508
11066TIP3    H154613   5.442   1.491  15.837 -0.4800  0.0036 -0.3310
11066TIP3    H254614   5.359   1.618  15.849  0.5776  0.7462 -0.7006
11067TIP3   OH254615   4.246   1.681  11.894  0.3098  1.0547 -0.9724
11067TIP3    H154616   4.309   1.617  11.928  0.7696  2.2245  0.4814
11067TIP3    H254617   4.279   1.703  11.807  0.7631  0.1451 -1.0457
11068TIP3   OH254618   2.410   4.006  12.975 -0.2599  0.6511 -0.6698
11068TIP3    H154619   2.358   3.973  12.902  0.1750  0.4640 -0.9012
11068TIP3    H254620   2.367   3.972  13.053 -0.3299  0.2774 -0.8696
11069TIP3   OH254621   5.967   2.977   4.129  0.6288  0.3014 -0.7689
11069TIP3    H154622   6.007   3.040   4.069  0.7537 -1.5357 -2.7428
11069TIP3    H254623   5.992   2.892   4.094 -2.7432 -0.9319 -0.5257
11070TIP3   OH254624   0.975   5.489  12.707  0.0010 -0.1143  0.1414
11070TIP3    H154625   0.992   5.565  12.764  0.6107 -0.3547  0.2911
11070TIP3    H254626   1.049   5.488  12.647  0.1628 -0.7792  0.3487
11071TIP3   OH254627   0.226   1.745  16.167  0.0850 -0.4581 -0.1212
11071TIP3    H154628   0.228   1.791  16.251 -0.7005  0.8398 -0.7841
11071TIP3    H254629   0.318   1.737  16.142  0.2442  1.9227 -0.5677
11072TIP3   OH254630   5.001   1.941  15.490 -0.6130 -0.1751 -0.1093
11072TIP3    H154631   5.060   1.952  15.565 -1.5153 -2.0352  0.9680
11072TIP3    H254632   5.019   2.016  15.434 -1.3340  2.4833  2.9281
11073TIP3   OH254633   6.629   3.328  12.258  0.5813 -0.4940  0.4646
11073TIP3    H154634   6.620   3.309  12.164 -0.6142  0.0691  0.4436
11073TIP3    H254635   6.695   3.397  12.262 -0.2473  0.3585 -0.0924
11074TIP3   OH254636   0.104   1.454   1.692 -0.3614 -0.0605  0.6010
11074TIP3    H154637   0.137   1.366   1.678  0.8035  0.4905 -0.2799
11074TIP3    H254638   0.050   1.472   1.615  1.2734  0.8107 -0.3950
11075TIP3   OH254639   4.053   0.001   2.321 -0.2115 -0.0369  0.6355
11075TIP3    H154640   4.113   0.069   2.351 -2.1846  2.5170 -0.8493
11075TIP3    H254641   3.966   0.038   2.334 -1.3195 -1.4365 -2.0766
11076TIP3   OH254642   0.033   1.350   5.695 -0.1076  0.2713  0.5243
11076TIP3    H154643  -0.035   1.375   5.759  0.1547  0.9720  0.5357
11076TIP3    H254644   0.105   1.412   5.711  0.4165 -0.2806  0.3146
11077TIP3   OH254645   2.193   0.258  13.312  0.8671 -0.2756 -0.2970
11077TIP3    H154646   2.244   0.273  13.392  0.2952 -1.6203  0.3396
11077TIP3    H254647   2.232   0.179  13.274 -0.0038 -0.6621 -0.3980
11078TIP3   OH254648   1.476   5.629   4.411 -0.2909  0.0285 -0.6829
11078TIP3    H154649   1.548   5.691   4.418 -0.8738  0.6545 -0.0581
11078TIP3    H254650   1.446   5.617   4.501 -0.4785 -0.8208 -0.8477
11079TIP3   OH254651   0.876   5.149  14.498 -0.1389  0.1690  0.2883
11079TIP3    H154652   0.904   5.158  14.407 -1.2514 -0.9621 -0.2061
11079TIP3    H254653   0.854   5.238  14.526  0.6892  0.5897 -0.3845
11080TIP3   OH254654   6.681   0.524   1.090  0.1482  0.0079  0.1126
11080TIP3    H154655   6.618   0.456   1.066 -0.1630 -0.0729  1.1206
11080TIP3    H254656   6.747   0.521   1.021 -0.8222 -0.0632 -0.8568
11081TIP3   OH254657   6.625   0.283   4.483 -0.0865 -0.0002 -0.3889
11081TIP3    H154658   6.597   0.368   4.450 -0.4419  0.4301  0.9797
11081TIP3    H254659   6.597   0.221   4.415  0.3909  0.9736 -1.5191
11082TIP3   OH254660   3.268   2.990   3.322  0.0417  0.0587 -0.5546
11082TIP3    H154661   3.315   2.944   3.253 -0.7377 -1.4633 -0.1211
11082TIP3    H254662   3.185   3.015   3.281  0.1431  0.3849 -0.5616
11083TIP3   OH254663   6.097   2.345  14.929 -0.0770  0.2157 -0.5081
11083TIP3    H154664   6.044   2.283  14.878  3.0906 -1.5666 -1.9246
11083TIP3    H254665   6.130   2.407  14.865 -0.6748  1.5210  0.4059
11084TIP3   OH254666   4.659   4.303   2.780  0.2901  0.1461 -0.6541
11084TIP3    H154667   4.625   4.337   2.697 -1.4328  1.0798  0.3762
11084TIP3    H254668   4.583   4.267   2.825  1.1868 -0.3382  0.5416
11085TIP3   OH254669   1.904   0.993  12.829  0.0728 -0.0190 -0.1789
11085TIP3    H154670   1.848   0.921  12.800 -0.5228 -0.1049  1.1250
11085TIP3    H254671   1.992   0.968  12.801 -0.2897 -0.6796 -0.7643
11086TIP3   OH254672   4.311   5.133  13.829  0.3328 -0.4867 -0.3469
11086TIP3    H154673   4.353   5.209  13.787  1.0773 -0.7191 -0.0490
11086TIP3    H254674   4.378   5.065  13.826 -0.1542 -0.9781 -0.1586
11087TIP3   OH254675   0.832   5.092  13.565 -0.1792  0.0851  0.2298
11087TIP3    H154676   0.772   5.156  13.602  0.0112  0.5074 -0.1776
11087TIP3    H254677   0.908   5.093  13.622  0.1592  0.8128 -0.2241
11088TIP3   OH254678   1.913   4.666   0.342 -0.8312 -0.4512 -0.3570
11088TIP3    H154679   1.961   4.738   0.382  0.3492  0.5071 -3.2509
11088TIP3    H254680   1.851   4.637   0.409 -1.3409  3.2208  0.9469
11089TIP3   OH254681   2.362   6.338   6.379 -0.0501 -0.1188 -0.8682
11089TIP3    H154682   2.432   6.367   6.438  0.8561 -2.9153 -0.4197
11089TIP3    H254683   2.284   6.385   6.410  1.1223  1.2202  0.2080
11090TIP3   OH254684   4.570   2.244   2.404  0.3874  0.5645  0.3045
11090TIP3    H154685   4.636   2.312   2.417 -0.0906  0.7131  2.1451
11090TIP3    H254686   4.617   2.173   2.360  1.8187  0.6131  1.6717
11091TIP3   OH254687   3.582   3.031  13.197  0.4500  0.0846  0.0368
11091TIP3    H154688   3.523   3.056  13.268  0.7101 -0.0916  0.3178
11091TIP3    H254689   3.621   2.948  13.226 -1.7854 -1.6855 -1.6872
11092TIP3   OH254690   4.631   1.585   2.756 -0.1322 -0.5830 -0.1030
11092TIP3    H154691   4.609   1.660   2.810 -1.7580 -1.3214  0.3309
11092TIP3    H254692   4.571   1.590   2.682  0.0080 -1.2307 -0.2699
11093TIP3   OH254693   4.252   1.348  15.203  0.5664 -0.3890  0.1873
11093TIP3    H154694   4.198   1.408  15.153 -1.2968 -0.5673  1.8695
11093TIP3    H254695   4.339   1.390  15.205 -0.2111  1.3219 -0.2340
11094TIP3   OH254696   5.193   5.577   1.108 -0.2938  0.4586 -0.1680
11094TIP3    H154697   5.151   5.646   1.160  1.2761  0.0216  1.8087
11094TIP3    H254698   5.133   5.503   1.113 -0.4056  0.5915  0.6693
11095TIP3   OH254699   0.016   2.748   5.397  0.0531 -0.9599  0.0815
11095TIP3    H154700   0.010   2.727   5.490 -1.3716  0.0730  0.2559
11095TIP3    H254701   0.017   2.843   5.394  1.0560 -0.9842 -0.9338
11096TIP3   OH254702   5.141   5.904   1.860 -0.0996  0.1095  0.6315
11096TIP3    H154703   5.225   5.950   1.870 -0.4133  1.1740 -1.2234
11096TIP3    H254704   5.164   5.812   1.866  1.1030  0.3955  0.8019
11097TIP3   OH254705   4.783   0.385   1.686  0.2603  0.2162 -0.3851
11097TIP3    H154706   4.712   0.323   1.700  0.1287  0.5810  0.6819
11097TIP3    H254707   4.853   0.353   1.743 -0.0113  1.3419  0.6212
11098TIP3   OH254708   3.252   0.245  13.985  0.6136 -0.0614  0.4223
11098TIP3    H154709   3.326   0.184  13.989 -0.9808 -2.0611  3.1911
11098TIP3    H254710   3.272   0.311  14.051  1.5547  1.6062 -1.4224
11099TIP3   OH254711   6.062   3.771   1.620 -0.1611 -0.2300 -0.9024
11099TIP3    H154712   6.033   3.811   1.539 -0.0522 -0.3219 -0.9884
11099TIP3    H254713   6.131   3.710   1.593  1.5133  1.4081 -0.5045
11100TIP3   OH254714   0.106   6.388   4.586  0.1134  0.4199  0.5258
11100TIP3    H154715   0.130   6.308   4.541  0.0800 -0.0744  1.3619
11100TIP3    H254716   0.016   6.405   4.558  0.2564  0.3898  0.0419
11101TIP3   OH254717   2.838   0.515  15.668 -0.2753 -0.1971  0.1047
11101TIP3    H154718   2.845   0.500  15.574  0.3090  1.2645 -0.1007
11101TIP3    H254719   2.912   0.465  15.705  1.4087  1.6799 -0.5344
11102TIP3   OH254720   3.118   4.928   2.401 -0.8595 -0.1755  0.4304
11102TIP3    H154721   3.025   4.904   2.402 -1.7428  2.5528 -2.1437
11102TIP3    H254722   3.160   4.857   2.353 -1.3170 -2.0206  2.5909
11103TIP3   OH254723   6.595   0.396   5.009  0.3700  0.2403 -0.2047
11103TIP3    H154724   6.519   0.443   5.043 -0.4966 -0.6994 -0.8136
11103TIP3    H254725   6.570   0.368   4.922  1.5558  0.2170 -0.5603
11104TIP3   OH254726   5.218   5.053  11.442  0.0358  0.2833  0.4050
11104TIP3    H154727   5.213   5.008  11.357 -2.7345 -0.6107  0.9213
11104TIP3    H254728   5.295   5.017  11.484 -0.1444 -1.4302 -0.6266
11105TIP3   OH254729   0.750   2.774   1.724  0.1183  0.6061 -0.2346
11105TIP3    H154730   0.747   2.701   1.786  0.8521  0.7153 -0.0563
11105TIP3    H254731   0.674   2.827   1.745  0.1168  0.4028  0.2765
11106TIP3   OH254732   2.139   1.421  11.548  0.0759 -0.2551 -0.2424
11106TIP3    H154733   2.081   1.345  11.548  0.2345 -0.4018  1.2494
11106TIP3    H254734   2.136   1.453  11.458 -2.2619 -0.2934 -0.2369
11107TIP3   OH254735   0.538   3.725  12.491  0.3336 -0.1868 -0.2464
11107TIP3    H154736   0.517   3.816  12.513  0.8976  0.0198 -0.5462
11107TIP3    H254737   0.594   3.695  12.563  1.5321  0.2418 -0.9713
11108TIP3   OH254738   1.412   1.417  15.588  0.1136 -0.0999 -0.3544
11108TIP3    H154739   1.329   1.396  15.544 -0.6983 -0.9215  1.4538
11108TIP3    H254740   1.447   1.332  15.615 -0.6842  0.3832  2.6653
11109TIP3   OH254741   3.605   2.509   5.964  0.8382 -0.0077  0.3491
11109TIP3    H154742   3.545   2.490   6.036  0.5012  0.8829  0.3189
11109TIP3    H254743   3.690   2.478   5.995  0.6618  0.1912  1.0556
11110TIP3   OH254744   5.387   5.433   0.344  0.5044  0.2390 -0.5917
11110TIP3    H154745   5.367   5.358   0.401 -0.2464  0.0562 -1.0898
11110TIP3    H254746   5.471   5.465   0.377 -0.6450  1.1313  1.6609
11111TIP3   OH254747   0.436   3.669   4.140 -0.0657 -0.1165  0.1463
11111TIP3    H154748   0.478   3.721   4.072  1.5162 -0.0007  1.1642
11111TIP3    H254749   0.502   3.661   4.209 -1.7603  0.2172  1.9169
11112TIP3   OH254750   4.677   0.204   0.408 -0.1047  0.2998  0.5012
11112TIP3    H154751   4.739   0.214   0.336  1.5131  1.9837  1.9996
11112TIP3    H254752   4.665   0.110   0.416  0.7232  0.0189 -1.0951
11113TIP3   OH254753   4.433   6.407  16.604  0.3620  0.0426  0.3842
11113TIP3    H154754   4.480   6.440  16.528  1.2396 -0.4150  0.7085
11113TIP3    H254755   4.404   6.320  16.578 -0.1666  0.2602  0.2440
11114TIP3   OH254756   6.696   0.213  16.461 -0.1543 -0.2395  0.3871
11114TIP3    H154757   6.736   0.128  16.480  0.2051 -0.3729 -0.8676
11114TIP3    H254758   6.602   0.194  16.454 -0.1344 -0.4355  0.6342
11115TIP3   OH254759   2.282   1.852  12.043 -0.3430  0.3266  0.0967
11115TIP3    H154760   2.340   1.902  12.100  0.8168 -2.1140  1.2219
11115TIP3    H254761   2.341   1.795  11.993 -1.6422 -1.2975  0.3228
11116TIP3   OH254762   4.400   2.914   3.696 -0.2419 -0.0060  0.1287
11116TIP3    H154763   4.382   2.916   3.790 -1.3039  4.1383  0.0361
11116TIP3    H254764   4.496   2.913   3.690 -0.0644 -3.4947  1.0084
11117TIP3   OH254765   5.317   2.339   6.041 -0.1899 -0.1782 -0.0405
11117TIP3    H154766   5.349   2.429   6.054  0.0025 -0.0821 -1.1284
11117TIP3    H254767   5.283   2.314   6.127 -0.0737  0.8670  0.3298
11118TIP3   OH254768   0.548   3.651  13.302 -0.3388  0.1352 -0.9063
11118TIP3    H154769   0.543   3.635  13.396  0.5109  0.1305 -0.8514
11118TIP3    H254770   0.580   3.741  13.294 -0.5151  0.1749 -1.1947
11119TIP3   OH254771   4.219   0.083  15.952 -0.7758 -0.3808  0.5368
11119TIP3    H154772   4.305   0.071  15.913 -0.4720 -0.1472  1.1146
11119TIP3    H254773   4.171   0.137  15.890  0.5389  2.1947  1.6017
11120TIP3   OH254774   3.794   2.684  11.348  0.0358  0.1464  0.3096
11120TIP3    H154775   3.760   2.617  11.408  0.7597 -0.0348  0.5275
11120TIP3    H254776   3.737   2.679  11.271 -1.9662  1.4847  1.5829
11121TIP3   OH254777   1.678   0.120   2.786  0.2196  0.0539  0.3524
11121TIP3    H154778   1.758   0.106   2.735 -0.4618 -1.1176 -0.4148
11121TIP3    H254779   1.628   0.040   2.776 -2.0711  1.5203 -0.9924
11122TIP3   OH254780   3.348   3.942  11.796  0.6820  0.5649 -0.2304
11122TIP3    H154781   3.293   3.865  11.782 -2.2540  2.1470  1.6209
11122TIP3    H254782   3.338   3.994  11.716  1.2119 -0.1251 -0.7502
11123TIP3   OH254783   2.503   5.786   0.614  0.2051 -0.1613  0.1118
11123TIP3    H154784   2.503   5.697   0.649 -0.6701 -0.3499 -0.3444
11123TIP3    H254785   2.492   5.842   0.691  0.6458 -0.4471  0.3877
11124TIP3   OH254786   5.820   3.523  13.903 -0.3388 -0.3225 -0.8297
11124TIP3    H154787   5.746   3.574  13.935  0.1362  2.6124 -3.8034
11124TIP3    H254788   5.890   3.538  13.966 -1.0780  0.3654 -0.1620
11125TIP3   OH254789   2.078   3.493  13.414 -0.1479 -0.4723 -0.1355
11125TIP3    H154790   1.985   3.510  13.396  0.2216 -0.7931 -2.6544
11125TIP3    H254791   2.109   3.446  13.337  2.7199  1.8472 -0.5682
11126TIP3   OH254792   4.953   0.822   4.255  0.3222  0.3217  0.1507
11126TIP3    H154793   4.890   0.846   4.324 -0.8513  0.2192 -0.8560
11126TIP3    H254794   4.993   0.742   4.287  0.9104  1.0731  1.4100
11127TIP3   OH254795   6.208   1.153  14.206  0.2378 -0.2912 -0.5951
11127TIP3    H154796   6.193   1.206  14.284  0.8863 -0.0077 -0.6564
11127TIP3    H254797   6.302   1.162  14.188 -0.2588  1.5921 -2.7744
11128TIP3   OH254798   3.825   6.224  13.239 -0.3180 -0.0832 -0.6383
11128TIP3    H154799   3.793   6.284  13.171  0.6712  0.5803 -0.5294
11128TIP3    H254800   3.888   6.168  13.194 -0.7039 -0.5893 -0.5703
11129TIP3   OH254801   0.077   6.326  11.705  0.3748  0.4146 -0.1896
11129TIP3    H154802   0.142   6.396  11.716  1.0666 -0.4790  1.9595
11129TIP3    H254803  -0.007   6.372  11.698  1.0191  1.5096 -0.9735
11130TIP3   OH254804   4.585   5.114  14.526 -0.5969 -0.4313  0.2844
11130TIP3    H154805   4.680   5.123  14.519 -0.5609 -1.4032 -0.8012
11130TIP3    H254806   4.571   5.058  14.602 -0.2268 -1.3333 -0.3009
11131TIP3   OH254807   3.161   0.951  11.047 -0.3709 -0.6906 -0.1135
11131TIP3    H154808   3.085   0.905  11.081 -0.1086 -2.4935 -1.8111
11131TIP3    H254809   3.126   1.004  10.975 -0.6648  1.8929  1.7934
11132TIP3   OH254810   4.209   2.845  11.646 -0.0941 -0.2919 -0.2513
11132TIP3    H154811   4.225   2.939  11.638  0.8798 -0.3009  1.3024
11132TIP3    H254812   4.294   2.807  11.668 -0.8704 -1.2369  1.3415
11133TIP3   OH254813   0.356   2.219  14.539  0.0248 -0.5678  0.0551
11133TIP3    H154814   0.295   2.245  14.608  0.4393 -1.1081  0.6453
11133TIP3    H254815   0.402   2.143  14.576 -0.7030 -1.7313 -1.3482
11134TIP3   OH254816   4.401   4.674  10.614 -0.3004 -0.5554 -0.1517
11134TIP3    H154817   4.471   4.614  10.641 -0.2373 -0.8215 -0.8676
11134TIP3    H254818   4.331   4.616  10.582 -0.2510 -0.2588 -0.8258
11135TIP3   OH254819   5.538   1.667   0.298 -0.6071 -0.0960 -0.0873
11135TIP3    H154820   5.488   1.688   0.377  0.9784  3.1177  0.2147
11135TIP3    H254821   5.498   1.720   0.229 -0.6350 -1.2588 -1.0162
11136TIP3   OH254822   1.012   3.602  12.200  0.2165 -0.1913 -0.5416
11136TIP3    H154823   1.010   3.658  12.122 -1.9072  2.0438  0.9969
11136TIP3    H254824   0.921   3.598  12.229  0.7900 -1.9490  1.2008
11137TIP3   OH254825   3.087   5.423   6.009  0.2603  0.0545 -0.2894
11137TIP3    H154826   3.130   5.500   5.973 -1.2711 -0.0066 -2.4509
11137TIP3    H254827   3.007   5.456   6.049  0.6348 -0.2002  0.6992
11138TIP3   OH254828   0.949   1.650   4.862  0.1225 -0.0326 -0.8417
11138TIP3    H154829   1.026   1.612   4.819 -0.7228  0.1372 -2.5662
11138TIP3    H254830   0.965   1.744   4.862 -0.0650 -0.0013 -1.1540
11139TIP3   OH254831   2.065   2.829  11.481  0.0182 -0.2759 -0.0660
11139TIP3    H154832   2.029   2.816  11.569 -0.6652  0.0506 -0.2907
11139TIP3    H254833   2.058   2.923  11.466  1.4450 -0.1379  0.0811
11140TIP3   OH254834   4.324   0.322  14.890 -0.1412 -0.3639  1.4013
11140TIP3    H154835   4.306   0.243  14.942 -0.8185 -0.5005  0.9667
11140TIP3    H254836   4.411   0.351  14.920  0.2880 -1.4901  1.2908
11141TIP3   OH254837   4.191   6.249   1.448 -0.0016 -0.0335  0.4115
11141TIP3    H154838   4.177   6.180   1.512  0.9920  0.3921  1.1035
11141TIP3    H254839   4.110   6.300   1.450 -0.5020 -0.8070  0.3284
11142TIP3   OH254840   5.745   1.965   4.157 -0.1985 -0.0525 -0.4739
11142TIP3    H154841   5.805   1.994   4.226 -1.5229 -0.9210  1.1206
11142TIP3    H254842   5.776   1.878   4.133  0.0632  0.1115 -0.7310
11143TIP3   OH254843   2.676   0.974  10.750 -0.7175  0.5019 -0.5969
11143TIP3    H154844   2.666   0.880  10.737 -1.2572  0.2817  1.1076
11143TIP3    H254845   2.660   1.013  10.664  1.0078 -1.0320 -1.6678
11144TIP3   OH254846   4.319   4.961   4.165 -0.2102  0.2707  0.3441
11144TIP3    H154847   4.256   5.033   4.154 -1.1681 -0.4343  1.0444
11144TIP3    H254848   4.300   4.901   4.094 -0.9111 -0.3450  1.0342
11145TIP3   OH254849   2.979   3.402  13.796 -0.0813  0.1099  0.4230
11145TIP3    H154850   2.977   3.316  13.838  1.3113  0.2467  0.8188
11145TIP3    H254851   2.903   3.402  13.738 -0.7195 -0.9706  1.2120
11146TIP3   OH254852   6.662   6.386   4.090  0.4596 -0.0706 -0.5244
11146TIP3    H154853   6.698   6.327   4.024  1.3571 -0.5379  0.3519
11146TIP3    H254854   6.667   6.337   4.172 -1.2730  0.2421 -0.1974
11147TIP3   OH254855   3.807   4.978   3.424 -0.3910 -0.2669 -0.5645
11147TIP3    H154856   3.748   4.902   3.422 -1.1353  0.3173 -2.0232
11147TIP3    H254857   3.749   5.053   3.414  0.2813  0.5714  1.4177
11148TIP3   OH254858   1.675   4.973   1.280 -0.3563 -0.3053 -0.1978
11148TIP3    H154859   1.667   5.021   1.198  1.7556 -1.9045 -1.4294
11148TIP3    H254860   1.585   4.946   1.301 -0.9132 -0.0074 -2.0757
11149TIP3   OH254861   6.573   4.235  16.228 -0.9462 -0.0160 -0.5729
11149TIP3    H154862   6.496   4.181  16.213 -0.6500  0.1857 -3.3699
11149TIP3    H254863   6.647   4.175  16.216 -0.6358  0.2024  0.1964
11150TIP3   OH254864   0.563   1.131  11.365 -0.1609  0.1280  0.3803
11150TIP3    H154865   0.644   1.133  11.314 -0.5211  0.2045 -0.2127
11150TIP3    H254866   0.508   1.067  11.318 -2.0184  3.0441 -1.7526
11151TIP3   OH254867   4.893   4.781  14.591  0.0481 -0.4268 -0.5206
11151TIP3    H154868   4.950   4.822  14.657 -0.6094  1.0994 -0.8503
11151TIP3    H254869   4.806   4.817  14.609 -0.3149 -0.7014 -1.6539
11152TIP3   OH254870   6.757   3.341   2.487 -0.5537 -0.5829  0.1616
11152TIP3    H154871   6.812   3.367   2.561  1.4115  0.9397 -1.6774
11152TIP3    H254872   6.677   3.393   2.497  0.7945  1.6883 -0.1320
11153TIP3   OH254873   1.804   4.279   0.997 -0.5481 -1.0571 -0.0818
11153TIP3    H154874   1.731   4.225   0.968 -0.3529 -1.0195 -0.6477
11153TIP3    H254875   1.855   4.296   0.918 -0.2719 -0.5549  0.1978
11154TIP3   OH254876   1.851   0.597  12.920  0.1438  0.0607  0.1099
11154TIP3    H154877   1.937   0.561  12.943  1.1158  1.8176 -0.5232
11154TIP3    H254878   1.831   0.559  12.835 -0.0477 -0.9083  0.5837
11155TIP3   OH254879   3.776   6.317  12.157  0.3932  0.0330  0.0381
11155TIP3    H154880   3.750   6.312  12.065  2.2094  0.2693 -0.5354
11155TIP3    H254881   3.741   6.400  12.187  0.8835  0.5735 -0.8362
11156TIP3   OH254882   3.232   0.409  10.674 -0.5972 -0.3459 -0.0853
11156TIP3    H154883   3.245   0.500  10.700 -0.1272 -0.9241  1.8529
11156TIP3    H254884   3.230   0.360  10.756 -0.0282 -2.2000 -1.1126
11157TIP3   OH254885   3.571   3.095   5.232  0.3257 -0.1773 -0.0829
11157TIP3    H154886   3.517   3.171   5.208 -0.1287 -0.7450 -0.8873
11157TIP3    H254887   3.513   3.020   5.225  0.8964 -0.6637  0.2625
11158TIP3   OH254888   5.720   0.159   2.211 -0.7201  0.0154 -0.1696
11158TIP3    H154889   5.637   0.205   2.203  0.8743  2.9074 -1.8926
11158TIP3    H254890   5.733   0.117   2.126  0.6707  1.7954 -0.9059
11159TIP3   OH254891   0.907   6.530  16.399 -0.0123 -0.6389 -0.0166
11159TIP3    H154892   0.912   6.579  16.481  0.3687  0.2719 -0.5734
11159TIP3    H254893   0.813   6.515  16.387 -0.2869  1.2441 -0.5614
11160TIP3   OH254894   6.085   2.471   4.238  0.4707  0.1241  0.7766
11160TIP3    H154895   6.130   2.498   4.158 -0.2760  0.1571  0.3607
11160TIP3    H254896   6.008   2.424   4.207  0.1408  0.1980  1.4785
11161TIP3   OH254897   4.809   5.416   2.918  0.3434  0.5232 -0.2156
11161TIP3    H154898   4.891   5.391   2.876  0.5231 -1.2593  1.0786
11161TIP3    H254899   4.799   5.353   2.990 -2.1389  0.6866 -0.3312
11162TIP3   OH254900   1.872   6.709  17.048 -0.1773  0.0557  0.7310
11162TIP3    H154901   1.944   6.674  17.101 -0.1231  0.4191  0.9054
11162TIP3    H254902   1.827   6.770  17.107  1.0319  1.9597 -0.1814
11163TIP3   OH254903   0.388   4.245   4.112 -0.1634  0.0264  0.4300
11163TIP3    H154904   0.442   4.248   4.033 -0.6884  0.0089  0.0674
11163TIP3    H254905   0.333   4.167   4.101  0.9196 -0.9499  1.5831
11164TIP3   OH254906   6.292   0.143   0.581 -0.5309 -0.1280  0.3017
11164TIP3    H154907   6.317   0.234   0.572 -1.0794  0.4337  3.4025
11164TIP3    H254908   6.370   0.094   0.555  0.5903  1.2982  0.8386
11165TIP3   OH254909   0.546   1.705   3.183 -0.0640  0.7517 -0.7375
11165TIP3    H154910   0.475   1.647   3.155  0.8682 -0.2243 -1.1594
11165TIP3    H254911   0.575   1.668   3.267 -0.3176  1.3932 -0.3601
11166TIP3   OH254912   4.194   1.018  16.967 -0.6503 -0.1744 -0.0709
11166TIP3    H154913   4.244   1.095  16.994 -1.8590 -0.0049  1.8525
11166TIP3    H254914   4.158   1.041  16.882 -0.2535  1.0247  0.0706
11167TIP3   OH254915   2.969   6.019   2.843 -0.0712 -0.4612  0.1469
11167TIP3    H154916   3.003   6.033   2.754 -2.0719  0.0239 -0.6050
11167TIP3    H254917   2.969   5.924   2.854 -0.8210 -0.5921 -0.8295
11168TIP3   OH254918   2.535   2.102   1.217  0.4102  0.3445 -0.3919
11168TIP3    H154919   2.613   2.108   1.163  0.6602  1.0563  0.0395
11168TIP3    H254920   2.489   2.024   1.185  0.8507  0.4234 -1.2272
11169TIP3   OH254921   3.058   1.803   4.924  0.2800 -0.2877 -0.3870
11169TIP3    H154922   3.053   1.898   4.930 -0.4829 -0.2780 -1.1332
11169TIP3    H254923   3.151   1.783   4.936  0.2066  0.3933  1.7665
11170TIP3   OH254924   2.264   3.237  13.824 -0.4952 -0.4647 -0.1685
11170TIP3    H154925   2.212   3.239  13.744 -0.1293 -0.3595 -0.4061
11170TIP3    H254926   2.334   3.174  13.805 -0.1007 -0.0450 -0.1276
11171TIP3   OH254927   2.524   5.250   0.651  0.1537 -0.1457  0.3057
11171TIP3    H154928   2.569   5.286   0.727  0.5120 -1.0444  0.5312
11171TIP3    H254929   2.580   5.177   0.622 -0.2645 -0.1724 -0.4737
11172TIP3   OH254930   1.921   1.484   5.562 -0.0442  0.6172  0.3347
11172TIP3    H154931   1.868   1.511   5.637  0.1853 -0.0303  0.7364
11172TIP3    H254932   1.925   1.389   5.568  0.3261  0.5856 -0.2674
11173TIP3   OH254933   1.485   0.417  15.590 -0.0397 -0.1352 -0.0768
11173TIP3    H154934   1.475   0.360  15.667 -2.6219 -1.2707 -1.1387
11173TIP3    H254935   1.551   0.373  15.536  0.6051 -0.1841  0.7362
11174TIP3   OH254936   5.992   3.748  16.367 -0.3725  0.0641  0.6233
11174TIP3    H154937   5.963   3.732  16.456  1.0075 -2.9780  0.6537
11174TIP3    H254938   6.087   3.734  16.369 -0.3637 -0.5726 -1.3824
11175TIP3   OH254939   3.639   0.303  10.573  0.1648  0.4268 -0.7028
11175TIP3    H154940   3.667   0.370  10.636 -1.0747  1.0972 -0.8333
11175TIP3    H254941   3.706   0.235  10.580  0.0231  0.4142  1.4512
11176TIP3   OH254942   4.982   4.346  13.223 -0.2632 -0.5941  0.4371
11176TIP3    H154943   5.030   4.274  13.264  0.3151 -0.0882  0.6836
11176TIP3    H254944   5.048   4.416  13.215 -0.4126 -0.5922 -1.1484
11177TIP3   OH254945   1.616   3.277   2.147 -0.4082  0.1427 -0.1409
11177TIP3    H154946   1.540   3.282   2.088  0.1889  0.2129 -0.9181
11177TIP3    H254947   1.630   3.183   2.160  1.4668 -0.0654 -2.8212
11178TIP3   OH254948   4.830   4.348  14.924 -0.7330  0.2033  0.0093
11178TIP3    H154949   4.878   4.429  14.908  0.8222 -0.1440  2.4475
11178TIP3    H254950   4.889   4.278  14.896 -0.9078 -0.1530  0.5007
11179TIP3   OH254951   2.710   5.705   1.766  0.7892 -0.0678  0.9321
11179TIP3    H154952   2.682   5.796   1.759  1.1337  0.0375  0.9233
11179TIP3    H254953   2.664   5.660   1.694  1.3029  0.2706  0.3860
11180TIP3   OH254954   3.604   1.894   3.941 -0.0919 -0.4703  0.0617
11180TIP3    H154955   3.565   1.858   3.861  0.8148  0.1995 -0.7144
11180TIP3    H254956   3.644   1.976   3.913 -0.2428  0.0609  1.3379
11181TIP3   OH254957   2.297   3.096   4.273  0.8878  1.0337  0.4839
11181TIP3    H154958   2.329   3.073   4.185 -1.2870 -0.6711  0.0593
11181TIP3    H254959   2.281   3.190   4.268  0.6316  0.9425 -1.0271
11182TIP3   OH254960   0.675   0.452  11.408 -0.5713  0.3105 -0.0265
11182TIP3    H154961   0.707   0.389  11.342  0.7412  0.9974 -0.0821
11182TIP3    H254962   0.754   0.481  11.453 -1.4135  0.1122  1.6449
11183TIP3   OH254963   4.789   4.581  13.175  0.0395 -0.5549  0.1829
11183TIP3    H154964   4.817   4.490  13.183 -0.3481 -0.5077  2.6323
11183TIP3    H254965   4.857   4.632  13.219  0.7904  0.5178 -2.0487
11184TIP3   OH254966   1.367   2.798  15.007 -0.0276  0.5718 -0.1953
11184TIP3    H154967   1.350   2.766  15.096 -1.5574  2.0148  0.0836
11184TIP3    H254968   1.334   2.729  14.950 -0.3992  0.2802  0.3676
11185TIP3   OH254969   1.555   1.832  13.317 -0.3204 -0.2635 -0.2475
11185TIP3    H154970   1.464   1.808  13.337 -0.3868 -0.7196 -1.0512
11185TIP3    H254971   1.594   1.851  13.402 -1.2037  0.0725  0.0984
11186TIP3   OH254972   0.557   1.167  15.319 -0.2064 -0.1494  0.4643
11186TIP3    H154973   0.574   1.180  15.412  1.1755  1.5958  0.0355
11186TIP3    H254974   0.515   1.249  15.291 -0.3881 -0.5500 -0.4753
11187TIP3   OH254975   0.222   3.767  16.954 -0.4354 -0.5341  0.3976
11187TIP3    H154976   0.157   3.697  16.961 -0.4699 -0.6447 -0.7789
11187TIP3    H254977   0.297   3.726  16.912 -0.9195  0.3928 -1.4810
11188TIP3   OH254978   2.317   2.444  14.390  0.1401 -0.3806 -0.1983
11188TIP3    H154979   2.232   2.403  14.405 -0.1779  0.0492 -0.7691
11188TIP3    H254980   2.353   2.458  14.478 -0.2349 -0.8531  0.0343
11189TIP3   OH254981   4.043   6.404   5.664  0.0166  0.2939 -0.4700
11189TIP3    H154982   3.955   6.390   5.698  0.1528  0.0296 -0.2232
11189TIP3    H254983   4.050   6.347   5.588  0.0437  0.1599 -0.3679
11190TIP3   OH254984   5.479   6.490   5.913  0.7596  0.2229 -0.9938
11190TIP3    H154985   5.517   6.555   5.854  1.3729  1.8604  1.0865
11190TIP3    H254986   5.525   6.502   5.996 -0.8934 -1.1455  0.2107
11191TIP3   OH254987   6.374   6.588  16.691 -0.2666  0.7928 -0.4152
11191TIP3    H154988   6.402   6.580  16.782  2.0942 -0.8515 -1.1863
11191TIP3    H254989   6.306   6.522  16.681  2.1131 -1.7842 -0.6764
11192TIP3   OH254990   6.543   2.736  11.253 -0.0385 -0.1067  0.1601
11192TIP3    H154991   6.493   2.659  11.279 -0.2398  0.5591  1.9048
11192TIP3    H254992   6.633   2.704  11.246 -0.3220 -0.7785 -0.4744
11193TIP3   OH254993   4.126   2.246  10.466 -0.0201  0.1037  0.5653
11193TIP3    H154994   4.079   2.322  10.498 -0.0173  0.1346  0.4958
11193TIP3    H254995   4.066   2.205  10.403 -0.7883 -0.9697  1.9169
11194TIP3   OH254996   5.425   0.051  12.595  0.0489  0.0322 -0.2459
11194TIP3    H154997   5.520   0.038  12.594  0.2704  1.1014 -3.2340
11194TIP3    H254998   5.413   0.143  12.620 -0.3284 -0.3719  1.1875
11195TIP3   OH254999   6.218   2.377  16.763 -0.2960  0.2037 -0.1909
11195TIP3    H155000   6.223   2.420  16.848  0.0176 -1.0919  0.4695
11195TIP3    H255001   6.160   2.301  16.778 -0.6483  0.2484 -1.2567
11196TIP3   OH255002   4.279   4.868  15.054  0.6430  1.0746 -0.0565
11196TIP3    H155003   4.191   4.899  15.073  0.8177  2.3274 -1.1235
11196TIP3    H255004   4.317   4.849  15.141 -0.9880 -0.5162  0.3536
11197TIP3   OH255005   2.535   5.555  13.494  0.0383 -0.0014  0.2163
11197TIP3    H155006   2.606   5.524  13.551 -0.6724 -0.7753  0.7048
11197TIP3    H255007   2.502   5.633  13.538  1.5875  1.3116 -0.8239
11198TIP3   OH255008   6.662   6.223   5.690 -0.1985 -0.4181  0.0274
11198TIP3    H155009   6.575   6.248   5.719 -0.0961  0.1556 -0.1421
11198TIP3    H255010   6.649   6.143   5.640 -0.7360  0.0802 -0.6535
11199TIP3   OH255011   6.008   6.737  15.152  0.1352  0.1018  0.7825
11199TIP3    H155012   5.923   6.742  15.195 -0.4710  0.9107 -0.4726
11199TIP3    H255013   6.015   6.645  15.125  0.0996 -0.1874  1.6904
11200TIP3   OH255014   3.971   4.548  12.728  0.3278 -0.0451  1.0206
11200TIP3    H155015   3.920   4.616  12.771 -0.6815 -0.2244  0.1457
11200TIP3    H255016   3.912   4.474  12.722  0.6927 -0.2705  0.0156
11201TIP3   OH255017   4.752   0.169  16.620  0.2573  0.4259 -0.1419
11201TIP3    H155018   4.682   0.123  16.573 -0.3995  1.2444  0.0141
11201TIP3    H255019   4.707   0.217  16.689  1.0301  0.6057  0.2515
11202TIP3   OH255020   2.322   1.066   1.780 -0.3739 -0.0295  0.6462
11202TIP3    H155021   2.332   0.991   1.839 -0.3096 -0.0334  0.6307
11202TIP3    H255022   2.235   1.055   1.741 -0.5874  0.1953  1.0536
11203TIP3   OH255023   0.257   5.202   1.546  0.2918 -0.0931 -0.2598
11203TIP3    H155024   0.195   5.182   1.476  1.2354  0.1598 -1.2057
11203TIP3    H255025   0.294   5.117   1.570  0.8500 -0.0491 -0.9375
11204TIP3   OH255026   2.066   2.280   4.809  0.1345  0.1679 -0.2721
11204TIP3    H155027   2.041   2.188   4.812  1.4850 -0.3845 -2.9622
11204TIP3    H255028   1.986   2.327   4.783 -0.2342 -0.4038 -0.1779
11205TIP3   OH255029   2.550   6.103  16.973  0.2196 -0.0734  0.0206
11205TIP3    H155030   2.512   6.025  17.013 -0.3456  0.9021  1.4720
11205TIP3    H255031   2.614   6.069  16.910 -0.6012 -1.6968  0.0137
11206TIP3   OH255032   5.243   1.781   4.879  0.2510 -0.0836 -0.6055
11206TIP3    H155033   5.335   1.762   4.860  1.2454  0.0606  3.1501
11206TIP3    H255034   5.242   1.803   4.972 -3.6750 -0.4339 -0.3822
11207TIP3   OH255035   3.641   5.611   4.968 -0.5788  0.7860 -0.0377
11207TIP3    H155036   3.552   5.579   4.986  0.0330 -0.1606  1.5136
11207TIP3    H255037   3.670   5.561   4.892 -1.1260  0.6215 -0.1399
11208TIP3   OH255038   3.150   3.412  12.679 -0.6373  0.2612 -0.5540
11208TIP3    H155039   3.087   3.351  12.640 -0.0753  0.2734 -1.5048
11208TIP3    H255040   3.111   3.498  12.663 -0.9940  0.2091 -0.0022
11209TIP3   OH255041   2.891   5.693  13.379  0.0735 -0.0017  0.7101
11209TIP3    H155042   2.920   5.781  13.357  1.6019 -0.4435  0.8404
11209TIP3    H255043   2.799   5.703  13.403 -1.0682  0.9212 -3.2508
11210TIP3   OH255044   0.420   3.865   1.788 -0.5232 -0.1310  0.3016
11210TIP3    H155045   0.392   3.834   1.875 -0.3693  1.7799  1.0827
11210TIP3    H255046   0.360   3.822   1.727 -3.0018  1.1480  1.6425
11211TIP3   OH255047   0.140   6.166  12.570 -0.5054 -0.5783 -0.0188
11211TIP3    H155048   0.137   6.070  12.567 -0.5818 -0.5532 -2.4954
11211TIP3    H255049   0.223   6.185  12.615 -0.5521 -1.7897  0.6428
11212TIP3   OH255050   3.694   3.511  15.727  0.2072 -0.3714 -0.3474
11212TIP3    H155051   3.603   3.538  15.739  0.4278  0.4141 -0.4267
11212TIP3    H255052   3.727   3.497  15.815  0.7379  1.7977 -0.1475
11213TIP3   OH255053   2.084   4.078   1.367 -0.1894 -0.1387 -0.2002
11213TIP3    H155054   2.080   4.172   1.384 -1.5345 -0.3332  0.7192
11213TIP3    H255055   2.055   4.070   1.276  3.4404  0.5823 -1.5842
11214TIP3   OH255056   3.156   1.442  16.439  0.1945  0.2509  0.7682
11214TIP3    H155057   3.247   1.470  16.431  0.5742 -1.0266  0.3101
11214TIP3    H255058   3.161   1.347  16.450 -1.1005  0.1107  0.3360
11215TIP3   OH255059   0.003   5.738  12.039  0.3175  0.0645  0.0544
11215TIP3    H155060  -0.081   5.780  12.058  1.3825  1.8387  1.1340
11215TIP3    H255061  -0.002   5.653  12.083 -0.8731  0.1855  0.1850
11216TIP3   OH255062   2.467   0.062   0.722  0.2350 -0.7253  0.2866
11216TIP3    H155063   2.421   0.052   0.639 -0.0036 -0.9218  0.4412
11216TIP3    H255064   2.413   0.015   0.786 -0.3652  0.6657  0.8420
11217TIP3   OH255065   3.974   2.693  14.136 -0.1924  0.4319 -0.0344
11217TIP3    H155066   3.879   2.708  14.133 -0.6397 -1.9756  0.3052
11217TIP3    H255067   3.988   2.648  14.220  1.0395 -0.4800 -0.7043
11218TIP3   OH255068   3.479   4.608  12.912  0.2073  0.4823  0.0406
11218TIP3    H155069   3.432   4.643  12.836 -0.1228  0.6207  0.3033
11218TIP3    H255070   3.421   4.627  12.986  0.8307  0.9400  0.4167
11219TIP3   OH255071   6.392   2.745   4.292  0.0241  0.2420 -0.5097
11219TIP3    H155072   6.408   2.745   4.386 -1.8129  0.0615 -0.1682
11219TIP3    H255073   6.343   2.826   4.276 -1.8689 -0.9242 -0.8772
11220TIP3   OH255074   6.034   1.803   1.113 -0.0289 -0.3172  0.0748
11220TIP3    H155075   6.001   1.741   1.048 -0.7276 -1.9149  1.8421
11220TIP3    H255076   5.959   1.818   1.171  1.2734 -1.0292  2.0054
11221TIP3   OH255077   4.949   6.040   1.061 -0.6228  0.2134 -0.4194
11221TIP3    H155078   4.863   5.997   1.061 -0.4945 -0.1012  1.1997
11221TIP3    H255079   4.991   6.009   0.981 -1.5534 -0.5893 -0.6201
11222TIP3   OH255080   1.611   4.095   4.190 -0.3317 -0.6469  0.6346
11222TIP3    H155081   1.655   4.066   4.110 -0.0267 -1.0766  0.9537
11222TIP3    H255082   1.619   4.190   4.188  0.1530 -0.6861  0.4236
11223TIP3   OH255083   3.252   6.352  12.980  0.5592  0.0347  0.6947
11223TIP3    H155084   3.316   6.282  12.979 -0.6101 -1.0879  1.3374
11223TIP3    H255085   3.189   6.328  12.912 -0.2682  0.0244  1.4411
11224TIP3   OH255086   3.806   1.400  12.789  0.0226 -0.1719 -0.8491
11224TIP3    H155087   3.803   1.370  12.698 -0.4309  0.4338 -1.0427
11224TIP3    H255088   3.827   1.322  12.839  0.2297 -0.5242 -1.4730
11225TIP3   OH255089   1.755   3.294   5.994  0.0945  0.0538 -0.2792
11225TIP3    H155090   1.764   3.228   6.063  1.3179 -0.2715 -0.7135
11225TIP3    H255091   1.670   3.335   6.011 -0.1881 -0.8641  0.6674
11226TIP3   OH255092   5.671   5.287  15.780 -0.2995  0.0653  0.0734
11226TIP3    H155093   5.677   5.341  15.701 -0.9191 -0.8422 -0.6136
11226TIP3    H255094   5.649   5.348  15.850  0.4670  0.9143 -0.4062
11227TIP3   OH255095   2.892   1.174  15.017 -0.2551  0.2477 -0.1597
11227TIP3    H155096   2.862   1.263  14.999 -0.6690  0.0967 -0.2413
11227TIP3    H255097   2.944   1.150  14.941  1.8755  1.2674  0.8804
11228TIP3   OH255098   3.246   0.436  14.510 -0.1129  0.5423  0.1269
11228TIP3    H155099   3.315   0.474  14.565  1.9315  0.0671 -1.9622
11228TIP3    H255100   3.209   0.510  14.463  0.8493  0.5079 -0.7109
11229TIP3   OH255101   1.636   1.240   5.951  0.2785  0.4573  0.0231
11229TIP3    H155102   1.659   1.332   5.946  0.0319  0.4357 -3.2747
11229TIP3    H255103   1.717   1.194   5.928  0.3863 -0.1986  1.5905
11230TIP3   OH255104   4.572   0.865  17.383  0.0444  0.6393  0.3423
11230TIP3    H155105   4.505   0.934  17.376  0.2797  0.7860 -0.5678
11230TIP3    H255106   4.554   0.808  17.308  0.9492  0.6869  0.0876
11231TIP3   OH255107   3.713   6.563   0.877  0.8632 -0.5409  0.2635
11231TIP3    H155108   3.660   6.632   0.837  1.2814 -0.4750 -0.1714
11231TIP3    H255109   3.727   6.499   0.807  0.9619 -0.7909  0.5090
11232TIP3   OH255110   4.379   2.735  12.502 -0.1507 -0.1385  0.4898
11232TIP3    H155111   4.316   2.702  12.566  0.1498  0.8823  1.3293
11232TIP3    H255112   4.465   2.721  12.543 -0.0359  2.3243  1.2345
11233TIP3   OH255113   2.530   5.864  11.799 -0.4353  0.2856 -0.9811
11233TIP3    H155114   2.480   5.809  11.739 -1.6169  3.6574 -3.4322
11233TIP3    H255115   2.614   5.877  11.756 -0.9391  1.9635 -1.5612
11234TIP3   OH255116   2.717   2.510   2.205 -0.4526  0.3632 -0.1560
11234TIP3    H155117   2.628   2.485   2.229 -0.5559  0.5287 -0.3569
11234TIP3    H255118   2.707   2.598   2.167  0.0713  1.3558  1.8465
11235TIP3   OH255119   5.261   5.507  13.057 -0.1377  0.3125 -0.6971
11235TIP3    H155120   5.188   5.562  13.085  1.2871  1.6902  0.5210
11235TIP3    H255121   5.273   5.444  13.128 -1.4283 -1.3503 -1.8528
11236TIP3   OH255122   0.912   0.241   0.247  0.7130 -0.0664 -0.0019
11236TIP3    H155123   0.987   0.188   0.221  0.5801  1.1354 -3.3199
11236TIP3    H255124   0.842   0.178   0.262  1.1085 -1.0020 -1.8147
11237TIP3   OH255125   4.402   4.888  15.316  0.1161 -0.1868 -0.5556
11237TIP3    H155126   4.438   4.855  15.399 -1.8257  1.1118  0.8824
11237TIP3    H255127   4.318   4.927  15.340  0.6669  2.6142 -2.6946
11238TIP3   OH255128   1.470   2.430   5.356 -0.5633 -1.2192 -0.2817
11238TIP3    H155129   1.403   2.470   5.412  0.6919 -0.3480  0.6500
11238TIP3    H255130   1.496   2.501   5.297 -0.6097 -1.6246 -0.7934
11239TIP3   OH255131   4.984   3.376   0.583  0.4037  0.0134 -0.3902
11239TIP3    H155132   4.975   3.430   0.504  0.4550 -0.8335 -0.9889
11239TIP3    H255133   4.966   3.436   0.655 -0.6535  0.5767 -1.0947
11240TIP3   OH255134   1.329   2.591   2.918 -0.0486  0.4878 -0.8413
11240TIP3    H155135   1.353   2.674   2.877  1.3815  1.4331  1.6997
11240TIP3    H255136   1.235   2.600   2.937  0.0964  1.5482 -0.5810
11241TIP3   OH255137   5.541   2.441   6.293 -0.1424 -0.0797  0.1502
11241TIP3    H155138   5.556   2.394   6.211 -1.3357 -0.3957  0.0831
11241TIP3    H255139   5.541   2.372   6.360 -2.0624 -0.2637  0.0320
11242TIP3   OH255140   5.803   1.112   4.566 -0.4643  0.4073 -0.0416
11242TIP3    H155141   5.894   1.085   4.580 -0.5021  1.1332  1.8391
11242TIP3    H255142   5.772   1.053   4.496  1.7345  0.8823 -1.5384
11243TIP3   OH255143   1.673   1.835  12.895  0.1683  0.4063 -0.1614
11243TIP3    H155144   1.585   1.861  12.924  0.0181  1.0916 -1.1524
11243TIP3    H255145   1.706   1.778  12.964 -1.5114 -0.7792 -0.2749
11244TIP3   OH255146   5.738   0.146   0.429  0.2431 -0.1533 -0.3709
11244TIP3    H155147   5.833   0.154   0.431  0.2122  0.1196  1.1705
11244TIP3    H255148   5.712   0.143   0.521 -1.2698  0.1506 -0.7571
11245TIP3   OH255149   4.399   2.201  16.474 -0.2505  0.8370  0.2377
11245TIP3    H155150   4.412   2.166  16.562  0.9062 -0.1215 -0.2809
11245TIP3    H255151   4.307   2.185  16.455  0.6133 -4.3517 -0.8984
11246TIP3   OH255152   6.430   5.591  15.198 -0.0186 -0.6547  0.6133
11246TIP3    H155153   6.342   5.579  15.162 -0.2282  0.0365  0.8708
11246TIP3    H255154   6.488   5.551  15.133 -0.3882  0.4824 -0.4705
11247TIP3   OH255155   3.955   5.994   4.938  0.2831  0.2551  0.4242
11247TIP3    H155156   3.914   5.994   4.851  1.8281 -1.5289 -0.4046
11247TIP3    H255157   3.929   5.910   4.976  1.3358  0.0834  0.7925
11248TIP3   OH255158   3.743   2.795   6.992 -0.2669  0.2591  0.3151
11248TIP3    H155159   3.728   2.846   6.912 -1.3705 -0.0052  0.3388
11248TIP3    H255160   3.779   2.858   7.055  1.1770  0.3488 -0.5459
11249TIP3   OH255161   1.414   3.489   0.489 -0.3189 -0.1231  0.2888
11249TIP3    H155162   1.500   3.465   0.523 -0.0071 -3.3127 -2.1831
11249TIP3    H255163   1.425   3.577   0.453  2.4916 -1.0565 -1.4323
11250TIP3   OH255164   2.100   0.500   3.918 -0.0713 -0.1148  1.2478
11250TIP3    H155165   2.116   0.406   3.929 -1.1826 -0.3979  0.5712
11250TIP3    H255166   2.018   0.516   3.965 -0.9966  0.0870 -0.3822
11251TIP3   OH255167   3.681   6.389   0.388 -0.0756  0.0969 -0.2548
11251TIP3    H155168   3.775   6.406   0.384 -0.1224  0.2659 -0.6476
11251TIP3    H255169   3.644   6.441   0.317 -0.5986  0.9407  0.6024
11252TIP3   OH255170   6.590   4.001   0.617  0.2237 -0.1793  0.2228
11252TIP3    H155171   6.636   4.038   0.542 -1.6478  1.4706 -0.1968
11252TIP3    H255172   6.590   3.906   0.601  1.5922 -0.0327 -0.7971
11253TIP3   OH255173   2.310   2.452  15.884 -0.4012 -0.3670 -0.3198
11253TIP3    H155174   2.333   2.521  15.822 -1.9273 -0.8052 -1.4534
11253TIP3    H255175   2.375   2.459  15.954 -0.4304  2.1054 -0.4707
11254TIP3   OH255176   3.356   0.148  15.198 -0.1270 -0.3296  0.5608
11254TIP3    H155177   3.262   0.137  15.181 -0.1753  0.9753 -0.1139
11254TIP3    H255178   3.396   0.066  15.168 -0.8706 -0.2767 -0.6023
11255TIP3   OH255179   2.705   3.066   0.542  0.1984  0.2813  0.3390
11255TIP3    H155180   2.693   2.997   0.478 -1.4101  0.5708  0.2838
11255TIP3    H255181   2.716   3.146   0.490  1.0661  0.2217  0.4150
11256TIP3   OH255182   1.863   5.860  15.479  0.1307 -0.6525 -0.2979
11256TIP3    H155183   1.861   5.801  15.403 -1.1296 -0.1527 -0.6727
11256TIP3    H255184   1.778   5.903  15.478  0.7235  0.5868  0.4511
11257TIP3   OH255185   0.315   1.449  14.349  0.2807  0.9911  0.9535
11257TIP3    H155186   0.393   1.499  14.376  0.3937 -0.1376  2.8995
11257TIP3    H255187   0.346   1.358  14.343 -0.4826  0.7825 -0.1322
11258TIP3   OH255188   6.468   1.234  16.652  0.1085 -0.6230  0.0654
11258TIP3    H155189   6.509   1.234  16.565  0.9963 -3.0850  0.3878
11258TIP3    H255190   6.529   1.281  16.708  1.4570 -2.2739  0.0621
11259TIP3   OH255191   5.633   4.204  16.536  0.4386  0.2457  0.2305
11259TIP3    H155192   5.559   4.265  16.536  0.1692 -0.0787  0.3378
11259TIP3    H255193   5.598   4.123  16.499  0.9447  0.3283 -0.4659
11260TIP3   OH255194   5.494   1.471   4.004 -0.2661 -0.1201  0.0176
11260TIP3    H155195   5.584   1.444   4.022  0.2024  2.4728  2.2431
11260TIP3    H255196   5.445   1.448   4.083 -0.7412  1.5532  0.2610
11261TIP3   OH255197   0.882   0.172  15.256 -0.4973  0.3888 -0.2373
11261TIP3    H155198   0.875   0.266  15.277  2.8831  0.6982  0.0109
11261TIP3    H255199   0.895   0.130  15.341  2.2681  0.3107 -0.6099
11262TIP3   OH255200   4.642   1.297   1.071  0.1164 -0.3248 -0.5178
11262TIP3    H155201   4.684   1.217   1.101  0.0057 -0.1625  0.0853
11262TIP3    H255202   4.698   1.368   1.103 -0.3947 -0.1219 -0.0540
11263TIP3   OH255203   0.182   5.931   3.133 -0.3827  0.0239  0.3224
11263TIP3    H155204   0.187   6.025   3.151 -1.0878  0.3615 -1.0607
11263TIP3    H255205   0.253   5.893   3.184  0.6092  1.4562  0.0793
11264TIP3   OH255206   0.312   2.605  17.377  0.4471 -0.0319 -0.1290
11264TIP3    H155207   0.268   2.520  17.375  1.0195 -0.3208 -0.7427
11264TIP3    H255208   0.303   2.639  17.288 -1.1258  1.2757  0.4700
11265TIP3   OH255209   1.898   5.497  16.417  0.0685 -0.3289 -0.8539
11265TIP3    H155210   1.886   5.575  16.362 -0.1864  1.2682  1.3102
11265TIP3    H255211   1.989   5.471  16.403  0.4736  1.0062 -0.8842
11266TIP3   OH255212   0.459   6.690  13.128  0.5908 -0.0841 -0.2669
11266TIP3    H155213   0.462   6.769  13.183  1.1027 -0.7560  0.7042
11266TIP3    H255214   0.541   6.690  13.080 -0.5117  1.3516 -2.3295
11267TIP3   OH255215   3.720   2.826  14.654  0.2169  0.7581  0.2445
11267TIP3    H155216   3.791   2.878  14.690 -0.9963  0.9203  2.5459
11267TIP3    H255217   3.688   2.877  14.579  0.1830  2.4902  1.3952
11268TIP3   OH255218   1.067   0.900   1.239  0.5926  0.1791  0.1661
11268TIP3    H155219   1.101   0.877   1.326 -1.3151  0.7237  1.1372
11268TIP3    H255220   1.002   0.832   1.221  1.3867 -0.2500 -1.1150
11269TIP3   OH255221   3.314   4.676   3.283 -0.4377  0.1123  0.4144
11269TIP3    H155222   3.346   4.762   3.311  3.3139 -0.1622 -2.2860
11269TIP3    H255223   3.295   4.686   3.190  0.3788 -2.0002 -0.0302
11270TIP3   OH255224   2.815   3.172   3.236 -0.6265  0.1306  0.7586
11270TIP3    H155225   2.910   3.163   3.246 -0.6133  0.6502  1.1520
11270TIP3    H255226   2.795   3.257   3.275 -0.4731  2.8121 -4.2465
11271TIP3   OH255227   3.529   3.051  11.351  0.2911  0.5301 -0.6610
11271TIP3    H155228   3.611   3.018  11.387 -1.1179 -2.3429  0.1996
11271TIP3    H255229   3.473   3.063  11.428 -0.7990  0.3131 -1.4107
11272TIP3   OH255230   0.447   1.393   1.613 -0.2479  0.6407  0.4981
11272TIP3    H155231   0.464   1.343   1.693  0.6063  0.3386  0.1470
11272TIP3    H255232   0.433   1.483   1.642 -3.3541  0.0209  1.3120
11273TIP3   OH255233   3.819   1.514   4.728 -0.7035 -0.2009  0.0597
11273TIP3    H155234   3.882   1.498   4.798 -0.4391 -2.1727 -0.5893
11273TIP3    H255235   3.786   1.602   4.746  0.3253 -0.1406  1.8874
11274TIP3   OH255236   5.061   0.339  16.054 -0.0879 -0.0873  0.2685
11274TIP3    H155237   4.984   0.388  16.083 -0.2990  0.2517 -0.8234
11274TIP3    H255238   5.069   0.267  16.117 -1.8063 -0.6321 -0.0860
11275TIP3   OH255239   4.163   5.066  11.527 -0.4998 -0.0637 -0.2453
11275TIP3    H155240   4.102   5.049  11.455  1.1902 -1.5295 -1.4040
11275TIP3    H255241   4.127   5.015  11.600 -0.2987 -1.5622 -1.1390
11276TIP3   OH255242   2.727   5.589  12.386  0.2946 -0.5417 -0.1407
11276TIP3    H155243   2.725   5.501  12.348 -0.2726  0.5212 -2.7413
11276TIP3    H255244   2.635   5.612  12.396  0.4267  0.2369 -0.6897
11277TIP3   OH255245   6.093   5.117   3.833 -0.2890 -0.1099 -0.2735
11277TIP3    H155246   6.183   5.101   3.806 -0.2494 -0.4974  0.0754
11277TIP3    H255247   6.071   5.043   3.890 -0.6933  0.1825 -0.0400
11278TIP3   OH255248   0.566   1.552  17.114  0.3686  0.2591 -0.1726
11278TIP3    H155249   0.516   1.633  17.125  0.2831  0.1612  0.1629
11278TIP3    H255250   0.499   1.485  17.100  0.3469 -0.0434  1.2948
11279TIP3   OH255251   5.921   4.544   1.501  0.1406  0.1908  0.3393
11279TIP3    H155252   5.877   4.605   1.443 -0.5207  0.5303  1.1733
11279TIP3    H255253   6.007   4.582   1.517 -0.0564  0.6135  0.3884
11280TIP3   OH255254   5.450   6.358  13.703 -0.5253 -0.2462 -0.4569
11280TIP3    H155255   5.421   6.270  13.679  1.2465 -0.9381 -0.2069
11280TIP3    H255256   5.501   6.345  13.783  1.0956  0.7871 -1.2864
11281TIP3   OH255257   4.986   0.290   3.601  0.3349 -0.0398 -0.6685
11281TIP3    H155258   4.951   0.248   3.679 -0.1105  1.8473  0.1922
11281TIP3    H255259   4.940   0.248   3.528 -2.0981  0.7603  0.2989
11282TIP3   OH255260   1.275   0.208   3.887 -0.2152  0.4296  0.0780
11282TIP3    H155261   1.313   0.148   3.823 -0.2388  0.3811  0.1095
11282TIP3    H255262   1.349   0.260   3.919 -0.1903  0.3974  0.0722
11283TIP3   OH255263   1.911   5.100   0.260 -0.3363 -0.1255 -0.3035
11283TIP3    H155264   1.979   5.034   0.273  0.3692  0.7375  0.4779
11283TIP3    H255265   1.904   5.108   0.165 -0.1736 -1.0541 -0.4052
11284TIP3   OH255266   0.398   3.963   4.919  0.1730 -0.7642  0.1764
11284TIP3    H155267   0.397   4.015   4.839  0.9273 -0.0357  0.6188
11284TIP3    H255268   0.371   3.875   4.891 -0.2146 -0.3640 -0.7493
11285TIP3   OH255269   0.089   3.793  15.685  0.5638  0.2195 -0.2403
11285TIP3    H155270   0.013   3.743  15.716  0.1737  1.0810  0.2537
11285TIP3    H255271   0.106   3.856  15.755  0.8197  0.9976 -0.9728
11286TIP3   OH255272   0.701   3.591   5.895 -0.4023  0.1778  0.3304
11286TIP3    H155273   0.644   3.601   5.971 -0.1796 -0.9334  0.6575
11286TIP3    H255274   0.738   3.679   5.881  0.7965  0.0917  2.4795
11287TIP3   OH255275   3.270   3.519  13.856 -0.2215  0.9088  0.8054
11287TIP3    H155276   3.279   3.564  13.771  1.0408  1.0390  0.9858
11287TIP3    H255277   3.203   3.568  13.902  0.7672  2.3264  0.7966
11288TIP3   OH255278   6.592   6.655  14.193 -0.1561  0.1231 -0.4514
11288TIP3    H155279   6.588   6.598  14.117  0.2444  2.2340 -2.1582
11288TIP3    H255280   6.678   6.636  14.233  0.2904  0.0406 -1.4300
11289TIP3   OH255281   3.901   0.816   5.528  0.2974  0.3279  0.2626
11289TIP3    H155282   3.939   0.737   5.491  0.4341  0.5623 -0.1062
11289TIP3    H255283   3.833   0.842   5.465 -1.0965 -0.5792  1.3440
11290TIP3   OH255284   5.474   2.884  17.316  0.5199  0.0081 -0.2751
11290TIP3    H155285   5.473   2.942  17.240 -3.6898  0.2325 -0.3208
11290TIP3    H255286   5.446   2.799  17.282 -0.5051 -0.1226  0.8047
11291TIP3   OH255287   4.872   2.485   5.434  0.5141  0.4534 -0.2716
11291TIP3    H155288   4.908   2.396   5.440 -0.1144  0.1474 -0.8979
11291TIP3    H255289   4.946   2.540   5.411  0.6914 -0.0899 -1.0234
11292TIP3   OH255290   1.276   2.329  14.549  0.0619 -0.0885 -0.6582
11292TIP3    H155291   1.247   2.276  14.475 -2.0897  1.2043 -0.8395
11292TIP3    H255292   1.209   2.397  14.558  0.5511  0.1647  2.1116
11293TIP3   OH255293   5.200   4.902  14.757 -0.3131  0.0292 -0.1051
11293TIP3    H155294   5.282   4.921  14.803 -0.1882 -0.1538 -0.2520
11293TIP3    H255295   5.134   4.899  14.827 -0.3186  0.8572 -0.0590
11294TIP3   OH255296   1.386   3.027  12.556  0.2051 -0.1945  0.0668
11294TIP3    H155297   1.316   3.026  12.621 -0.2485  1.4088 -0.3336
11294TIP3    H255298   1.373   3.110  12.509  1.3712 -0.6504 -1.1220
11295TIP3   OH255299   2.329   5.967   3.540  0.6780 -0.1331 -0.3820
11295TIP3    H155300   2.363   6.056   3.544 -0.7188  0.3968  0.4491
11295TIP3    H255301   2.396   5.917   3.493  2.1404  1.0393  0.3740
11296TIP3   OH255302   6.378   6.172  15.091 -0.0815  0.0115 -0.2361
11296TIP3    H155303   6.349   6.149  15.002 -0.4657  2.1190 -0.7231
11296TIP3    H255304   6.297   6.192  15.138  0.1910 -0.1137  0.2922
11297TIP3   OH255305   6.102   1.000   0.710  0.2480  0.3183 -0.6958
11297TIP3    H155306   6.103   0.905   0.720  0.2657  0.4490  0.7208
11297TIP3    H255307   6.062   1.015   0.625 -2.5979 -0.8689  0.3195
11298TIP3   OH255308   4.589   3.197   1.584 -0.0657  1.1157 -0.4350
11298TIP3    H155309   4.611   3.110   1.550  2.0258  1.4050  0.0394
11298TIP3    H255310   4.667   3.224   1.632 -0.9140  3.0068 -0.0456
11299TIP3   OH255311   2.473   6.078   3.083  0.2764  1.1716 -0.5462
11299TIP3    H155312   2.443   6.028   3.007  0.9780 -2.0662  1.1064
11299TIP3    H255313   2.403   6.070   3.147  0.3843  2.4525 -0.2349
11300TIP3   OH255314   4.047   3.905  13.541  0.1930 -0.9021 -0.5192
11300TIP3    H155315   4.087   3.921  13.456  0.3757  1.5864 -0.0456
11300TIP3    H255316   3.967   3.958  13.541 -1.1290 -2.7651 -0.0045
11301TIP3   OH255317   2.789   5.318   1.826  0.0423  0.5978 -0.0367
11301TIP3    H155318   2.708   5.315   1.877  0.3880 -1.6146  0.4591
11301TIP3    H255319   2.761   5.313   1.735 -0.3980 -0.7597  0.1511
11302TIP3   OH255320   1.497   0.881  12.516 -0.2971  0.0635  0.3306
11302TIP3    H155321   1.573   0.924  12.477 -0.1663 -0.1935  0.3052
11302TIP3    H255322   1.531   0.832  12.590 -0.0015 -2.1838 -1.2033
11303TIP3   OH255323   0.690   0.783   3.573 -0.5446 -0.1237 -0.2242
11303TIP3    H155324   0.786   0.789   3.578 -0.6468  2.6774  0.1037
11303TIP3    H255325   0.663   0.764   3.663 -0.3197 -1.8712 -0.4837
11304TIP3   OH255326   6.289   3.979  17.146 -0.0382 -0.5109 -0.5915
11304TIP3    H155327   6.234   4.041  17.195  0.2232  0.3183 -1.3135
11304TIP3    H255328   6.242   3.896  17.150 -0.4104 -0.2615  0.3862
11305TIP3   OH255329   1.061   1.921  16.894 -0.2953 -0.0676  0.0351
11305TIP3    H155330   1.020   1.998  16.857  0.2278 -0.2133 -0.8922
11305TIP3    H255331   1.146   1.915  16.849 -0.6453 -1.5965 -0.4717
11306TIP3   OH255332   0.278   1.947  14.876 -0.0937 -0.3052 -0.6756
11306TIP3    H155333   0.289   1.862  14.833  2.6861 -0.1103 -0.5406
11306TIP3    H255334   0.300   2.011  14.809  2.4901  0.0620  0.4100
11307TIP3   OH255335   1.999   2.016   3.150  0.1370 -0.1211 -0.1333
11307TIP3    H155336   1.941   2.084   3.115 -0.3306 -0.3985  0.0806
11307TIP3    H255337   2.056   1.992   3.076 -0.8437 -0.7071 -0.7284
11308TIP3   OH255338   1.008   5.858   4.807 -0.4345 -0.3230 -0.4348
11308TIP3    H155339   1.088   5.890   4.766 -2.1229  2.0890 -2.1552
11308TIP3    H255340   1.001   5.909   4.888 -0.5523 -0.0134 -0.6358
11309TIP3   OH255341   0.198   6.012   4.106  0.0293 -0.4672 -0.0781
11309TIP3    H155342   0.266   6.076   4.085  0.0473  0.1727  1.7691
11309TIP3    H255343   0.238   5.954   4.171 -0.2401 -1.9306 -1.1625
11310TIP3   OH255344   0.793   2.301   0.622  0.4470  0.5359 -0.6305
11310TIP3    H155345   0.700   2.322   0.630  0.8417  2.3670 -0.4749
11310TIP3    H255346   0.823   2.352   0.547  0.9444 -1.5560 -1.9428
11311TIP3   OH255347   2.156   3.426   4.602  0.5513 -0.4001 -0.0928
11311TIP3    H155348   2.082   3.366   4.606  2.1098 -2.7217 -2.8878
11311TIP3    H255349   2.147   3.480   4.681 -2.7712 -2.0710  0.8519
11312TIP3   OH255350   5.925   2.069   0.959  0.3081  0.0620 -0.0747
11312TIP3    H155351   5.859   2.016   0.914  0.5731  0.9562 -1.6117
11312TIP3    H255352   5.876   2.119   1.024 -0.5029  0.4566 -0.9611
11313TIP3   OH255353   4.355   0.843  16.771 -0.1552 -0.7960 -0.2175
11313TIP3    H155354   4.278   0.791  16.797 -0.5955 -0.8656 -1.5906
11313TIP3    H255355   4.341   0.860  16.678  0.7271  0.5379 -0.1171
11314TIP3   OH255356   3.872   5.065   5.335  0.0877  0.2971 -0.2268
11314TIP3    H155357   3.911   5.088   5.251  0.2002  1.7347  0.1891
11314TIP3    H255358   3.803   5.003   5.313 -0.8328  1.7045 -1.5715
11315TIP3   OH255359   0.934   5.952   1.035 -0.3474  0.3061  0.3454
11315TIP3    H155360   0.970   5.865   1.054  0.3240  0.6813  0.8362
11315TIP3    H255361   1.008   6.012   1.047 -0.9382  1.0054  0.5715
11316TIP3   OH255362   2.935   4.609   4.566 -0.2300 -0.3543 -0.2905
11316TIP3    H155363   2.901   4.523   4.592 -1.9531  0.6942  1.1714
11316TIP3    H255364   2.997   4.632   4.635  0.5913 -0.6134 -0.9326
11317TIP3   OH255365   3.756   1.778  16.628 -0.5001 -0.1874 -0.1277
11317TIP3    H155366   3.762   1.840  16.701  1.5417 -0.7129  0.2102
11317TIP3    H255367   3.821   1.809  16.565 -1.2806 -0.5236 -1.1159
11318TIP3   OH255368   0.650   0.407  13.146 -0.3113 -0.1221 -0.9615
11318TIP3    H155369   0.607   0.447  13.071  0.4407  0.3326 -1.1715
11318TIP3    H255370   0.699   0.334  13.110  0.8912  0.7202 -1.1102
11319TIP3   OH255371   4.024   2.746  17.383  0.5701  0.5981  0.4057
11319TIP3    H155372   3.957   2.746  17.451  1.5984  0.9097  1.4619
11319TIP3    H255373   4.060   2.658  17.384  0.3092  0.4808 -0.0418
11320TIP3   OH255374   4.175   6.256   3.437  0.1029  0.7325 -0.5763
11320TIP3    H155375   4.157   6.350   3.440 -0.6697  0.5558  1.1121
11320TIP3    H255376   4.106   6.216   3.489  0.3325 -0.8101 -1.3796
11321TIP3   OH255377   3.119   3.269  16.146  0.1732 -0.8962  0.5458
11321TIP3    H155378   3.035   3.277  16.099 -0.2033  0.0772  1.3720
11321TIP3    H255379   3.167   3.348  16.123  1.7972 -2.3941 -1.6362
11322TIP3   OH255380   3.944   5.722  16.878  0.3769  0.1520 -0.2142
11322TIP3    H155381   3.924   5.745  16.788 -0.7092 -1.5554 -0.4677
11322TIP3    H255382   4.027   5.674  16.873  0.1653 -0.2051 -0.3651
11323TIP3   OH255383   1.287   6.719  15.128  0.0472 -0.0632  0.0372
11323TIP3    H155384   1.263   6.678  15.211 -1.2572 -1.3870 -0.9448
11323TIP3    H255385   1.379   6.696  15.116 -0.2797 -1.6066  0.1959
11324TIP3   OH255386   2.062   6.579  14.087 -0.4554 -0.0894 -0.5730
11324TIP3    H155387   2.132   6.643  14.101  0.6482 -1.7056  2.2581
11324TIP3    H255388   2.068   6.556  13.995 -1.3114  4.1758 -1.9299
11325TIP3   OH255389   6.012   1.404   2.872 -0.2519  0.2383  0.0442
11325TIP3    H155390   6.061   1.458   2.809 -0.6914  0.2787 -0.2677
11325TIP3    H255391   5.921   1.430   2.860 -0.7925 -2.1946 -1.7837
11326TIP3   OH255392   3.655   3.892  10.605 -0.1991  0.3600 -0.3335
11326TIP3    H155393   3.573   3.884  10.654  0.8663 -0.5514  1.3846
11326TIP3    H255394   3.656   3.816  10.548 -1.8349  1.8491 -2.5080
11327TIP3   OH255395   2.562   4.416   2.814  0.3342 -0.3180 -0.4746
11327TIP3    H155396   2.623   4.481   2.850  0.3341  0.3292 -1.5957
11327TIP3    H255397   2.579   4.337   2.865  1.4617  0.1165 -0.1407
11328TIP3   OH255398   0.699   2.530  12.042  0.1015  0.9595 -0.3096
11328TIP3    H155399   0.647   2.526  12.122  0.8105 -1.1809  0.1201
11328TIP3    H255400   0.742   2.445  12.038 -0.9009  0.4719 -3.6635
11329TIP3   OH255401   3.722   5.210  13.637  0.7845 -0.1008  0.1664
11329TIP3    H155402   3.783   5.249  13.700  1.1748 -0.1291 -0.1852
11329TIP3    H255403   3.779   5.163  13.576  0.5278  1.1796 -1.0898
11330TIP3   OH255404   3.382   3.639  17.144 -0.1372 -0.1414 -0.4426
11330TIP3    H155405   3.398   3.702  17.074 -0.3126  1.1318  0.6203
11330TIP3    H255406   3.314   3.680  17.198 -3.2830 -2.9828 -1.8932
11331TIP3   OH255407   5.620   4.588  16.573 -0.3612 -0.3191 -0.8769
11331TIP3    H155408   5.610   4.512  16.516 -1.6249 -1.1132  0.3329
11331TIP3    H255409   5.575   4.659  16.527  0.5721 -0.3588 -1.8757
11332TIP3   OH255410   0.130   1.934   3.791 -0.2846 -0.4362  0.5113
11332TIP3    H155411   0.045   1.893   3.778 -0.2885 -0.3320  0.2137
11332TIP3    H255412   0.185   1.865   3.828 -0.6787 -0.3233  1.3296
11333TIP3   OH255413   4.586   1.569   0.074  0.4324  0.2393 -0.0103
11333TIP3    H155414   4.676   1.600   0.065  0.2552  0.9793  0.6366
11333TIP3    H255415   4.585   1.484   0.030  1.9467 -0.7700  1.7989
11334TIP3   OH255416   3.286   1.577   0.370 -0.7844  0.4715 -0.1077
11334TIP3    H155417   3.257   1.617   0.288 -0.2558  1.7825  0.3106
11334TIP3    H255418   3.329   1.496   0.344 -0.2822  1.0597 -1.1852
11335TIP3   OH255419   0.005   2.080   1.635  0.6132 -0.1393 -0.1829
11335TIP3    H155420  -0.008   2.001   1.583  0.2566  0.6381 -1.3282
11335TIP3    H255421   0.091   2.069   1.675 -0.4276 -2.1748  1.6886
11336TIP3   OH255422   1.488   1.205  11.789  0.1219  0.4222  0.0173
11336TIP3    H155423   1.562   1.144  11.795  0.4127  0.7374 -0.3107
11336TIP3    H255424   1.458   1.216  11.880 -0.6641 -1.0928 -0.0338
11337TIP3   OH255425   3.178   6.009  10.891 -0.5285  0.0471 -0.4138
11337TIP3    H155426   3.101   5.983  10.942  0.2284 -1.1339  0.1830
11337TIP3    H255427   3.181   5.946  10.818 -0.0337 -0.0323 -0.3295
11338TIP3   OH255428   5.675   6.587  16.031 -0.1257 -0.0742 -0.2711
11338TIP3    H155429   5.669   6.585  16.126  2.8080 -2.5956  0.0100
11338TIP3    H255430   5.711   6.673  16.010 -0.1719  0.2472  0.9330
11339TIP3   OH255431   6.672   4.705   5.169 -0.2114  0.2261  0.7737
11339TIP3    H155432   6.732   4.678   5.099 -1.0757 -1.0663  0.4955
11339TIP3    H255433   6.602   4.752   5.124 -2.5323 -3.3850  0.1436
11340TIP3   OH255434   2.915   5.903   0.805 -0.3556  0.2875  0.1911
11340TIP3    H155435   2.859   5.828   0.823  1.6098 -2.0072 -2.3350
11340TIP3    H255436   2.975   5.908   0.879 -0.0830 -1.1150  0.0835
11341TIP3   OH255437   1.238   0.301  13.283  0.2481 -0.0790 -0.1688
11341TIP3    H155438   1.255   0.238  13.353  0.0284  0.8663  0.7646
11341TIP3    H255439   1.153   0.340  13.306  0.1122  0.1597 -1.0330
11342TIP3   OH255440   3.391   3.533   2.579 -0.5608 -0.6652  0.1453
11342TIP3    H155441   3.444   3.510   2.655 -0.6557  0.8781  0.7090
11342TIP3    H255442   3.306   3.558   2.615 -0.1352  1.5530 -0.2779
11343TIP3   OH255443   2.145   4.111  11.659  0.2564 -0.7756 -0.1039
11343TIP3    H155444   2.162   4.066  11.576  2.3485  0.4881 -0.4387
11343TIP3    H255445   2.232   4.136  11.691 -0.6965  2.6040  0.2584
11344TIP3   OH255446   5.727   0.690   2.126  0.4613  0.2113  0.3080
11344TIP3    H155447   5.763   0.746   2.195  0.2152 -0.6308  1.1422
11344TIP3    H255448   5.638   0.722   2.112  1.2310  1.8459 -1.2620
11345TIP3   OH255449   4.236   1.670  15.318  0.5749 -0.4898  0.1817
11345TIP3    H155450   4.315   1.719  15.295 -0.2420  0.6084 -0.3846
11345TIP3    H255451   4.183   1.672  15.238 -0.0847 -1.1017  0.5908
11346TIP3   OH255452   1.041   5.227  15.264 -0.0147 -0.1246 -0.1492
11346TIP3    H155453   1.046   5.214  15.169 -1.9478 -2.5138 -0.0131
11346TIP3    H255454   0.947   5.234  15.282  0.2996 -0.2372  1.6695
11347TIP3   OH255455   6.389   1.056   0.381 -0.0398  0.2662  0.0228
11347TIP3    H155456   6.432   1.126   0.430  0.5458  1.0414 -1.5466
11347TIP3    H255457   6.377   1.092   0.293  1.4957 -2.0600 -1.2243
11348TIP3   OH255458   0.596   5.552  10.328  0.1048 -0.1046  0.0956
11348TIP3    H155459   0.504   5.571  10.348  0.8562  3.5656  0.8589
11348TIP3    H255460   0.622   5.490  10.396 -1.6471 -0.8435  0.1550
11349TIP3   OH255461   3.385   2.834   5.261  0.3002 -0.4396 -0.4950
11349TIP3    H155462   3.303   2.790   5.239 -2.1251  3.2802  0.1214
11349TIP3    H255463   3.371   2.866   5.350  0.0572  4.6735 -2.0624
11350TIP3   OH255464   4.047   1.249  13.914  0.0099 -0.1016 -0.3836
11350TIP3    H155465   4.138   1.221  13.906  0.0730  0.0863 -0.3283
11350TIP3    H255466   4.002   1.173  13.951  0.0846 -0.3000 -0.6925
11351TIP3   OH255467   4.623   3.836   2.198  0.3250 -0.1166 -0.1671
11351TIP3    H155468   4.626   3.765   2.134 -1.3091 -1.2834  0.9508
11351TIP3    H255469   4.646   3.794   2.281  0.0040  0.8033  0.3983
11352TIP3   OH255470   4.182   5.114   5.577  0.0219 -0.3147 -0.3691
11352TIP3    H155471   4.155   5.039   5.524 -1.2626 -0.2020  0.0739
11352TIP3    H255472   4.193   5.185   5.513 -0.2010 -0.5106 -0.6300
11353TIP3   OH255473   6.640   1.121   2.199  0.1071  0.3143 -0.1395
11353TIP3    H155474   6.675   1.196   2.152 -0.2175  0.8817  0.5037
11353TIP3    H255475   6.577   1.082   2.139 -1.3379  1.8420  0.2911
11354TIP3   OH255476   0.247   3.788   1.592 -0.0721  0.4012 -0.0439
11354TIP3    H155477   0.251   3.693   1.577 -0.0145  0.4249 -0.1824
11354TIP3    H255478   0.155   3.810   1.582  0.1101  0.6041 -1.5483
11355TIP3   OH255479   3.186   0.010   2.922  0.6062  0.0148  0.3214
11355TIP3    H155480   3.252   0.025   2.855  1.6681 -1.6092  0.9588
11355TIP3    H255481   3.236  -0.014   3.000 -0.7041 -0.4246  1.0568
11356TIP3   OH255482   6.241   3.484   0.988  0.0699 -0.5023 -0.0761
11356TIP3    H155483   6.183   3.554   0.958 -0.6394 -0.9369  0.2699
11356TIP3    H255484   6.328   3.525   0.992 -0.8456  1.4541  3.6077
11357TIP3   OH255485   3.849   0.175   2.140  0.3315  0.0743 -0.0148
11357TIP3    H155486   3.871   0.231   2.214 -0.2483  0.0710  0.1665
11357TIP3    H255487   3.918   0.192   2.075 -0.4378  1.8504 -0.4297
11358TIP3   OH255488   0.764   4.080   3.053  0.2778  0.0393  0.3054
11358TIP3    H155489   0.679   4.091   3.096 -0.1748 -2.4543  0.2127
11358TIP3    H255490   0.745   4.087   2.960  0.3974  0.6498  0.3240
11359TIP3   OH255491   4.528   4.843  17.284 -0.1520  0.0064 -0.0120
11359TIP3    H155492   4.439   4.870  17.260 -0.8638 -2.4003 -0.3623
11359TIP3    H255493   4.517   4.756  17.323  2.0270 -0.1832  0.3169
11360TIP3   OH255494   6.386   4.900   2.816  0.1782  0.0989 -0.6765
11360TIP3    H155495   6.476   4.892   2.783  0.3365 -0.0467 -0.2155
11360TIP3    H255496   6.386   4.983   2.864  0.0701  0.0889 -0.6603
11361TIP3   OH255497   2.944   3.810   4.223  0.6222 -0.0529  0.0538
11361TIP3    H155498   2.998   3.881   4.189  0.3437  0.1119 -0.0502
11361TIP3    H255499   2.878   3.796   4.154 -0.0977  0.4473  0.6329
11362TIP3   OH255500   0.465   4.018  11.217 -0.8054 -0.1250  0.0393
11362TIP3    H155501   0.405   3.949  11.188  1.5083 -0.7789 -3.9357
11362TIP3    H255502   0.422   4.100  11.190 -1.8213 -0.2424  1.2423
11363TIP3   OH255503   5.365   5.689   1.352  0.5080  0.3189  1.0981
11363TIP3    H155504   5.366   5.600   1.389 -3.6400  0.5385  2.3089
11363TIP3    H255505   5.350   5.676   1.259 -0.9192 -0.3175  1.3934
11364TIP3   OH255506   2.436   6.600   1.032 -0.2542 -0.1897 -0.2145
11364TIP3    H155507   2.452   6.578   0.940 -0.4489 -1.4231  0.0394
11364TIP3    H255508   2.365   6.664   1.028  1.5460  1.8961 -1.0661
11365TIP3   OH255509   0.488   6.057   1.725 -0.6107 -0.2874  0.1143
11365TIP3    H155510   0.443   6.100   1.797 -1.3911 -1.4427  0.3269
11365TIP3    H255511   0.419   6.020   1.671  0.0493 -1.3381 -0.0345
11366TIP3   OH255512   1.861   1.035  14.487 -0.2585 -0.1302  0.2350
11366TIP3    H155513   1.828   1.122  14.509 -1.4574  0.0151 -1.8369
11366TIP3    H255514   1.955   1.048  14.474 -0.4070  0.8458  0.0296
11367TIP3   OH255515   0.531   2.200   2.340  0.2370  0.3484 -0.0127
11367TIP3    H155516   0.569   2.172   2.423 -1.2365 -1.0461  0.2465
11367TIP3    H255517   0.563   2.137   2.276 -0.1735  0.2504 -0.1281
11368TIP3   OH255518   5.423   5.150  15.209 -0.0213 -1.0405  0.5067
11368TIP3    H155519   5.333   5.164  15.179  0.3047  0.1399  0.0423
11368TIP3    H255520   5.435   5.055  15.207 -1.4707 -1.2684  1.2215
11369TIP3   OH255521   5.350   0.289   1.228  0.1939  0.3908  0.4173
11369TIP3    H155522   5.374   0.261   1.317  0.1446 -1.3633 -0.0848
11369TIP3    H255523   5.295   0.219   1.195  0.8931  0.6171 -1.3151
11370TIP3   OH255524   4.682   5.401   3.181  0.6602  0.2751  0.4319
11370TIP3    H155525   4.652   5.316   3.149  1.7681  0.8105 -2.3027
11370TIP3    H255526   4.601   5.451   3.195  0.0212 -1.0347  1.7118
11371TIP3   OH255527   3.565   0.620  15.510 -0.8805  0.4090  0.1786
11371TIP3    H155528   3.562   0.641  15.416 -2.2943 -0.6464 -0.0402
11371TIP3    H255529   3.503   0.548  15.520  0.2835 -0.4245  1.7036
11372TIP3   OH255530   1.652   0.471   2.837  0.0034 -0.1745 -0.3336
11372TIP3    H155531   1.600   0.405   2.791  0.5595 -0.6974 -0.2303
11372TIP3    H255532   1.599   0.550   2.833 -1.5326 -1.0663  1.1198
11373TIP3   OH255533   4.438   3.259  15.279 -0.2631 -0.2696  0.4749
11373TIP3    H155534   4.376   3.186  15.280 -0.8858  0.1289 -1.9888
11373TIP3    H255535   4.523   3.218  15.263 -0.6707 -0.5172 -1.3843
11374TIP3   OH255536   2.201   4.063   2.061 -0.1273  0.2575  0.0191
11374TIP3    H155537   2.165   4.137   2.011 -1.1258  0.0934  0.4728
11374TIP3    H255538   2.175   3.986   2.012 -0.5125  0.1302  0.4171
11375TIP3   OH255539   1.394   2.278  12.691  0.0782 -0.2432 -0.0794
11375TIP3    H155540   1.432   2.225  12.761  0.2816  0.7947  0.6140
11375TIP3    H255541   1.463   2.339  12.666 -0.3108  0.0256 -0.5123
11376TIP3   OH255542   2.163   0.796   0.267 -0.1034  0.0790 -0.5530
11376TIP3    H155543   2.221   0.787   0.191 -0.1182 -0.2669 -0.5258
11376TIP3    H255544   2.126   0.709   0.279 -0.9598  0.3945 -0.8306
11377TIP3   OH255545   6.677   4.691   5.480  0.6819 -0.1996  0.0258
11377TIP3    H155546   6.647   4.672   5.391  1.4288 -0.2324 -0.2240
11377TIP3    H255547   6.675   4.607   5.525  2.4008 -0.5955 -0.6013
11378TIP3   OH255548   4.979   3.033   0.330  0.6035  0.1291  0.0236
11378TIP3    H155549   5.039   3.102   0.303  2.5611 -1.0392  1.1565
11378TIP3    H255550   4.988   2.965   0.263 -0.9579  0.6887 -0.8272
11379TIP3   OH255551   1.669   4.464   3.921  0.2017  0.7677 -0.0566
11379TIP3    H155552   1.627   4.550   3.927 -1.3465  0.2722 -2.3845
11379TIP3    H255553   1.687   4.453   3.827  1.5445 -0.9210  0.3524
11380TIP3   OH255554   6.210   2.957  12.008  0.5194 -0.1066 -0.2492
11380TIP3    H155555   6.286   2.910  12.044  0.1171 -1.1768 -0.7715
11380TIP3    H255556   6.172   3.002  12.084 -0.3072 -2.3056  0.7106
11381TIP3   OH255557   3.729   4.394   5.217 -0.1940 -0.2739 -0.3601
11381TIP3    H155558   3.646   4.397   5.168  0.0693  0.7253 -0.7792
11381TIP3    H255559   3.723   4.469   5.277  0.0341 -0.7310  0.2356
11382TIP3   OH255560   5.336   0.214   5.271  0.0410  0.2990  0.3400
11382TIP3    H155561   5.256   0.203   5.323 -0.5728  1.2523 -0.3687
11382TIP3    H255562   5.406   0.219   5.336 -0.2895 -1.8303  0.9193
11383TIP3   OH255563   2.400   4.996  15.160 -0.0543 -0.2148 -0.0923
11383TIP3    H155564   2.392   4.948  15.242 -1.6585  0.8985  0.4534
11383TIP3    H255565   2.339   5.069  15.168 -1.2848 -0.7925 -2.7710
11384TIP3   OH255566   5.426   2.862  13.093 -0.1251 -0.1381 -0.2501
11384TIP3    H155567   5.511   2.886  13.130 -1.4573  0.1424  2.9110
11384TIP3    H255568   5.400   2.938  13.041  0.5507  0.7226  0.6350
11385TIP3   OH255569   1.625   4.445   6.089 -0.4205 -0.1972  0.1691
11385TIP3    H155570   1.717   4.444   6.063 -0.9801  0.1811 -1.9666
11385TIP3    H255571   1.624   4.490   6.174  1.4632 -1.1813  0.7583
11386TIP3   OH255572   0.006   0.854   1.722 -0.2452  0.1252  0.8566
11386TIP3    H155573  -0.006   0.914   1.649  3.8634 -0.7398 -0.7494
11386TIP3    H255574   0.027   0.911   1.797  3.1790  0.9001 -0.5341
11387TIP3   OH255575   0.975   4.271  14.778  0.2009  0.1344  0.3185
11387TIP3    H155576   0.954   4.205  14.844 -0.6293  0.8931  0.8384
11387TIP3    H255577   1.057   4.240  14.739 -0.5996 -1.6291 -0.0554
11388TIP3   OH255578   2.471   1.301  13.192  0.2016  0.1601  0.0352
11388TIP3    H155579   2.378   1.321  13.186 -0.1239 -1.0831  0.5808
11388TIP3    H255580   2.501   1.301  13.101 -0.5430 -0.3397 -0.2218
11389TIP3   OH255581   5.448   4.125  17.086  0.3661  0.1924 -0.3922
11389TIP3    H155582   5.515   4.193  17.090  0.0731  0.4534  0.2568
11389TIP3    H255583   5.397   4.145  17.007 -1.2387  2.2051  1.0293
11390TIP3   OH255584   3.124   4.000  16.999  0.0054  0.1483  0.2568
11390TIP3    H155585   3.124   4.022  17.093  1.7717  0.8008  0.1501
11390TIP3    H255586   3.039   3.960  16.984 -0.4257  0.2646  2.0915
11391TIP3   OH255587   1.945   0.669   5.359  0.1336  0.1256 -0.3221
11391TIP3    H155588   1.942   0.659   5.264 -1.4002 -1.0673 -0.1737
11391TIP3    H255589   1.881   0.607   5.392 -0.0725  1.2180  1.4506
11392TIP3   OH255590   2.234   6.456   1.552  0.0404  0.0275  0.3848
11392TIP3    H155591   2.268   6.428   1.466 -1.9404 -1.3322 -0.0415
11392TIP3    H255592   2.279   6.538   1.570 -1.1004  1.5893 -3.0523
11393TIP3   OH255593   0.862   0.749  13.105  0.2596  0.2827 -0.1415
11393TIP3    H155594   0.914   0.788  13.034 -0.0731  0.6801 -0.1689
11393TIP3    H255595   0.877   0.655  13.097  1.4761  0.4242  0.2347
11394TIP3   OH255596   3.992   6.170   4.385 -1.2687 -0.4993  0.1536
11394TIP3    H155597   4.086   6.163   4.404 -0.8271  2.0633 -0.6958
11394TIP3    H255598   3.956   6.215   4.461 -1.8914 -1.6444  0.5616
11395TIP3   OH255599   2.192   5.722   2.119 -0.0712 -0.1980  0.2587
11395TIP3    H155600   2.125   5.764   2.173 -0.2941 -0.8548  0.5063
11395TIP3    H255601   2.218   5.645   2.169 -0.7428 -1.1738 -0.8532
11396TIP3   OH255602   0.517   0.046   0.142 -0.5206 -0.5467  0.8508
11396TIP3    H155603   0.547   0.104   0.212 -0.8501 -0.0238  0.5659
11396TIP3    H255604   0.458   0.100   0.090  1.2251 -0.3265 -0.9809
11397TIP3   OH255605   1.149   6.385   5.811 -0.3798  0.4108  0.1405
11397TIP3    H155606   1.156   6.452   5.744 -1.3395  0.3975  0.0141
11397TIP3    H255607   1.218   6.407   5.874  0.4436  0.4896 -0.7757
11398TIP3   OH255608   4.167   1.704   3.046  0.9142 -0.4036 -0.1149
11398TIP3    H155609   4.115   1.684   3.123 -1.7326 -0.4969 -1.7967
11398TIP3    H255610   4.228   1.631   3.038  0.6574 -0.8056  1.3948
11399TIP3   OH255611   2.838   6.134  14.524  0.7565  0.0199 -0.4489
11399TIP3    H155612   2.856   6.134  14.430  0.6036  1.0994 -0.4870
11399TIP3    H255613   2.843   6.226  14.550  0.4570 -0.2260  0.5376
11400TIP3   OH255614   2.057   0.266  12.954 -0.0830  0.1983 -0.6613
11400TIP3    H155615   1.987   0.215  12.913 -1.0071 -0.0425  1.1158
11400TIP3    H255616   2.137   0.217  12.935 -0.5799 -0.2945 -1.5187
11401TIP3   OH255617   4.456   3.829   1.296 -0.0877  0.2657 -1.0702
11401TIP3    H155618   4.493   3.756   1.345  1.3804  0.3766 -1.9712
11401TIP3    H255619   4.438   3.895   1.362  3.7727  1.2390 -0.7695
11402TIP3   OH255620   4.409   0.904  12.314 -0.1191 -0.0086  0.3773
11402TIP3    H155621   4.319   0.936  12.305 -1.0464 -2.6451 -0.8002
11402TIP3    H255622   4.412   0.867  12.402 -0.9535 -1.8361 -0.3055
11403TIP3   OH255623   5.132   3.985  16.674 -0.0429 -0.3477  0.1589
11403TIP3    H155624   5.164   3.896  16.685  0.1592 -0.4916 -1.3137
11403TIP3    H255625   5.120   3.995  16.579 -0.3117  1.0998  0.3108
11404TIP3   OH255626   2.786   2.909  16.168 -0.3758  0.1402  0.0203
11404TIP3    H155627   2.747   2.822  16.181 -0.6634  0.0402 -1.3456
11404TIP3    H255628   2.835   2.901  16.086 -1.3046  1.5561 -0.7035
11405TIP3   OH255629   1.470   4.071  15.654 -0.3187  0.5079 -0.1060
11405TIP3    H155630   1.417   3.997  15.624 -0.5918  0.3855  0.6503
11405TIP3    H255631   1.556   4.057  15.613  0.0091 -0.9153  0.9541
11406TIP3   OH255632   6.172   2.594  14.014 -0.3613  0.2419 -0.1891
11406TIP3    H155633   6.090   2.631  13.981  0.0626  1.5894  0.2271
11406TIP3    H255634   6.240   2.629  13.956 -0.0169 -0.5917 -0.3154
11407TIP3   OH255635   0.303   5.092   0.908  0.0578  0.0995  0.0179
11407TIP3    H155636   0.381   5.057   0.952  0.5076  0.2629 -0.6399
11407TIP3    H255637   0.266   5.018   0.861 -1.1670 -0.4062  1.6602
11408TIP3   OH255638   2.803   0.692  17.053  0.5442 -0.5323  0.3967
11408TIP3    H155639   2.810   0.637  16.975  0.2476 -1.7955  1.2367
11408TIP3    H255640   2.887   0.683  17.097  0.2949 -0.7654  0.8295
11409TIP3   OH255641   6.435   6.565   0.563 -0.5211  0.0211  0.3890
11409TIP3    H155642   6.374   6.532   0.629 -0.9136  2.5025  1.3818
11409TIP3    H255643   6.520   6.562   0.606 -0.6810  0.9992  0.8144
11410TIP3   OH255644   0.917   5.738  15.549 -0.4269 -0.2130  0.0885
11410TIP3    H155645   0.854   5.694  15.491  1.3123 -0.8923 -1.3942
11410TIP3    H255646   0.995   5.682  15.547 -0.2470 -0.1883  3.0693
11411TIP3   OH255647   5.705   4.630   6.107 -0.2064 -0.1056  0.2701
11411TIP3    H155648   5.714   4.653   6.015  1.3444 -1.9794 -0.1224
11411TIP3    H255649   5.758   4.695   6.154  1.7240 -1.0225 -0.5212
11412TIP3   OH255650   5.648   2.242  15.632 -0.6205 -0.3599  0.3597
11412TIP3    H155651   5.651   2.160  15.583  0.5594  0.2414 -0.6294
11412TIP3    H255652   5.582   2.228  15.700 -0.8691 -1.9021 -0.1813
11413TIP3   OH255653   1.374   2.363   4.363  0.4881 -0.1199 -0.3707
11413TIP3    H155654   1.343   2.388   4.276 -0.8284 -0.2164  0.0461
11413TIP3    H255655   1.410   2.275   4.352 -0.5218 -0.5066 -0.6449
11414TIP3   OH255656   4.053   4.216  13.656  0.1538 -0.0359 -0.7346
11414TIP3    H155657   4.140   4.245  13.684 -0.1612  0.9629 -0.7233
11414TIP3    H255658   4.068   4.133  13.611  0.9901 -0.3508  0.0908
11415TIP3   OH255659   5.939   6.416   1.192 -0.6518  0.0876  0.6797
11415TIP3    H155660   5.979   6.503   1.196  0.9156 -0.6300  2.0546
11415TIP3    H255661   5.928   6.399   1.099 -3.8941  2.9420  0.3259
11416TIP3   OH255662   4.631   2.264   5.251  0.2973  0.2363 -0.1441
11416TIP3    H155663   4.628   2.258   5.346 -4.3360 -2.2007 -0.1605
11416TIP3    H255664   4.621   2.358   5.232 -0.0519  0.6280  1.7826
11417TIP3   OH255665   4.579   1.374  16.661  0.4488  0.8160  0.3354
11417TIP3    H155666   4.583   1.341  16.751 -0.3264  0.5145  0.2642
11417TIP3    H255667   4.639   1.317  16.613  1.9778  1.8674  0.9103
11418TIP3   OH255668   5.421   0.714   5.095  0.0969  0.1543  0.3077
11418TIP3    H155669   5.476   0.642   5.125 -1.2960  0.4686  4.1649
11418TIP3    H255670   5.360   0.673   5.033  0.8654 -1.4251  0.5462
11419TIP3   OH255671   2.929   1.856  11.019 -0.5639 -0.0889 -0.1161
11419TIP3    H155672   2.844   1.898  11.006  0.5933  2.0632 -1.2483
11419TIP3    H255673   2.943   1.858  11.114 -2.1666 -1.3743  0.1766
11420TIP3   OH255674   0.190   1.017  12.936 -0.3058  0.1969  0.0985
11420TIP3    H155675   0.257   0.967  12.982  0.5386  0.5063 -0.7642
11420TIP3    H255676   0.224   1.026  12.846 -2.0344 -0.6460 -0.6942
11421TIP3   OH255677   2.551   0.840   4.023 -0.1104  0.4606 -0.2536
11421TIP3    H155678   2.645   0.836   4.040 -0.0549 -1.6770 -0.8449
11421TIP3    H255679   2.514   0.879   4.102  1.1485  0.1954  0.4925
11422TIP3   OH255680   0.859   6.678  15.201  0.1159 -0.1952  0.3112
11422TIP3    H155681   0.869   6.772  15.190 -0.4082 -0.3546 -2.1501
11422TIP3    H255682   0.765   6.665  15.212  0.1162 -0.4681  0.0059
11423TIP3   OH255683   3.759   6.466   1.732  0.7078  0.2030  0.8986
11423TIP3    H155684   3.696   6.538   1.724 -1.2516 -1.4031  1.0110
11423TIP3    H255685   3.841   6.503   1.701  0.1748  2.9526  2.3695
11424TIP3   OH255686   1.196   1.115   1.847 -0.2387 -0.0980 -0.5632
11424TIP3    H155687   1.231   1.052   1.910  1.1923  0.8156 -0.4062
11424TIP3    H255688   1.231   1.086   1.763 -1.3523 -0.7424 -0.8338
11425TIP3   OH255689   4.511   3.750  12.639 -0.0568  0.2070  0.2835
11425TIP3    H155690   4.480   3.841  12.636 -0.0529  0.2083  0.2804
11425TIP3    H255691   4.432   3.698  12.628  0.0731  0.2164 -0.8007
11426TIP3   OH255692   5.985   0.961  11.206 -0.0754  0.4526  0.1986
11426TIP3    H155693   6.038   1.037  11.182 -0.8484  1.3624  1.3145
11426TIP3    H255694   5.912   0.962  11.144 -0.0270  0.5492  0.1424
11427TIP3   OH255695   5.319   6.074   2.124 -0.0202  0.5346 -0.3450
11427TIP3    H155696   5.343   6.083   2.217  0.4329  0.3725 -0.4428
11427TIP3    H255697   5.315   5.979   2.111 -0.3468  0.5592 -0.4272
11428TIP3   OH255698   0.373   4.184  11.871 -0.5859  0.2536 -0.1414
11428TIP3    H155699   0.336   4.104  11.910  0.6714  0.4466  1.5798
11428TIP3    H255700   0.408   4.156  11.787 -0.6556 -0.8998  0.1968
11429TIP3   OH255701   2.987   3.918   5.209 -0.1712  0.0539  0.1000
11429TIP3    H155702   3.049   3.871   5.266  0.6355 -0.0058 -0.7957
11429TIP3    H255703   3.031   4.000   5.189 -1.9722  1.7107  2.4381
11430TIP3   OH255704   4.406   5.370  14.321 -0.1942 -0.4311  0.3123
11430TIP3    H155705   4.451   5.421  14.254  1.5395 -0.9198  1.0247
11430TIP3    H255706   4.421   5.419  14.402 -0.9768 -0.6042  0.5702
11431TIP3   OH255707   4.847   1.715   5.222  0.2984 -0.4843  0.0866
11431TIP3    H155708   4.870   1.645   5.282  1.5949 -0.1875 -0.0348
11431TIP3    H255709   4.780   1.677   5.165  0.0836 -1.2145  0.8077
11432TIP3   OH255710   2.357   6.391  14.402 -0.5269 -0.1070 -0.4742
11432TIP3    H155711   2.288   6.326  14.417 -0.2280 -0.4697 -0.6780
11432TIP3    H255712   2.394   6.367  14.317 -0.9688  0.8238 -0.9465
11433TIP3   OH255713   4.171   3.997  11.002  0.5752 -0.8138 -0.2344
11433TIP3    H155714   4.251   4.023  10.955  0.4223  2.0270  0.8854
11433TIP3    H255715   4.104   3.994  10.934  0.9906  0.1110 -0.7153
11434TIP3   OH255716   0.487   1.131  17.227 -0.3828 -0.3950 -0.7625
11434TIP3    H155717   0.541   1.185  17.169  0.6918 -0.0807  0.4767
11434TIP3    H255718   0.408   1.113  17.176  0.2522  0.3736 -2.0825
11435TIP3   OH255719   1.496   3.940   1.948 -0.4234 -0.3987  0.3360
11435TIP3    H155720   1.439   3.927   2.023 -0.0133 -1.5062  0.4750
11435TIP3    H255721   1.584   3.920   1.980 -0.2219 -0.7215 -0.3818
11436TIP3   OH255722   0.135   1.474  11.522 -0.7746 -0.2597 -0.6177
11436TIP3    H155723   0.044   1.484  11.549  0.0235  1.0109  2.0229
11436TIP3    H255724   0.179   1.553  11.555  1.6040 -1.6557 -0.1609
11437TIP3   OH255725   4.508   2.682   1.330  0.1129 -0.2019 -0.1513
11437TIP3    H155726   4.573   2.748   1.304 -0.9917  0.6871 -0.6977
11437TIP3    H255727   4.525   2.608   1.271 -0.7137  0.8314 -1.7659
11438TIP3   OH255728   5.181   5.242  16.936  0.0876  0.2044 -0.0342
11438TIP3    H155729   5.183   5.337  16.946 -1.8381  0.4476 -1.4366
11438TIP3    H255730   5.178   5.228  16.842 -1.2157 -1.1697  0.1804
11439TIP3   OH255731   5.872   5.770   5.570  0.0490 -0.2704  0.5742
11439TIP3    H155732   5.875   5.851   5.519 -0.0508 -0.5925  0.0373
11439TIP3    H255733   5.792   5.777   5.622  0.9174  0.7189  1.8301
11440TIP3   OH255734   2.097   5.166   3.914  0.2123 -0.4051 -0.5197
11440TIP3    H155735   2.130   5.256   3.914  0.7076 -0.5662  1.0849
11440TIP3    H255736   2.025   5.167   3.977  2.2385 -1.7785  2.0147
11441TIP3   OH255737   1.748   4.943  14.599 -0.0870 -0.0450  0.0405
11441TIP3    H155738   1.716   4.867  14.647 -1.3933 -0.7830 -1.8707
11441TIP3    H255739   1.787   4.907  14.519  0.7870  1.1981 -0.1222
11442TIP3   OH255740   5.067   6.158  12.457 -0.1772 -0.1331 -0.3804
11442TIP3    H155741   4.973   6.170  12.441  0.0349  1.1837 -0.8032
11442TIP3    H255742   5.102   6.247  12.459  1.4711 -0.6215 -2.7632
11443TIP3   OH255743   5.205   4.695   4.922  0.0735  0.1560 -0.5147
11443TIP3    H155744   5.203   4.722   5.014 -1.9437 -0.1316 -0.4156
11443TIP3    H255745   5.260   4.617   4.921 -1.2779 -0.8640  0.7974
11444TIP3   OH255746   5.171   6.600  13.284  0.5890 -0.5262  0.1960
11444TIP3    H155747   5.082   6.584  13.252  0.0682  0.3960  1.1088
11444TIP3    H255748   5.228   6.562  13.217 -0.4320  1.0449 -1.6825
11445TIP3   OH255749   3.065   6.210   1.871  0.7523 -0.0633  0.5747
11445TIP3    H155750   3.035   6.198   1.781  0.9323  0.1507  0.4856
11445TIP3    H255751   3.156   6.179   1.870  1.1886  1.1667  0.3669
11446TIP3   OH255752   0.363   2.332  16.168 -0.7393  0.0730  0.0154
11446TIP3    H155753   0.279   2.298  16.139 -0.0240  0.3460 -2.7152
11446TIP3    H255754   0.401   2.371  16.089  1.5733  0.7211  1.3535
11447TIP3   OH255755   4.792   5.507   3.680 -0.0733 -0.1300  0.0269
11447TIP3    H155756   4.714   5.472   3.723  0.4373 -0.7479  0.4759
11447TIP3    H255757   4.758   5.562   3.610 -0.9182 -1.4436 -0.6460
11448TIP3   OH255758   4.368   0.831  12.827 -0.2671  0.3271 -0.4124
11448TIP3    H155759   4.371   0.765  12.757 -0.8284  0.6988 -0.7892
11448TIP3    H255760   4.425   0.901  12.797  0.7677 -0.2011  0.2331
11449TIP3   OH255761   6.736   0.209  15.930 -0.3010 -0.5398  0.6989
11449TIP3    H155762   6.822   0.246  15.945 -0.3411  0.4728 -1.2914
11449TIP3    H255763   6.682   0.241  16.003  0.7296 -0.3272  1.3790
11450TIP3   OH255764   0.271   1.958   3.458  0.0446  0.2894  0.5937
11450TIP3    H155765   0.250   2.051   3.467 -0.0807  0.3359 -0.0640
11450TIP3    H255766   0.363   1.956   3.432 -0.7466  0.4514 -2.6829
11451TIP3   OH255767   3.434   2.662  14.313 -0.0842  0.0250  0.1731
11451TIP3    H155768   3.356   2.714  14.293  0.4258  1.0340  0.7446
11451TIP3    H255769   3.435   2.656  14.409  0.4043 -0.1765  0.1583
11452TIP3   OH255770   3.915   0.179  12.982  0.3497 -0.5768 -0.3884
11452TIP3    H155771   3.969   0.104  12.958 -1.5669 -1.3880 -2.6033
11452TIP3    H255772   3.842   0.176  12.920 -0.7719  2.0540  0.6685
11453TIP3   OH255773   0.817   2.959  16.648 -0.1727  1.0263  0.1591
11453TIP3    H155774   0.819   2.867  16.622 -0.9035  0.8202  0.7837
11453TIP3    H255775   0.867   2.962  16.729  1.2239  1.4796 -0.7011
11454TIP3   OH255776   0.974   1.183  16.092  0.0791  0.0713  0.7236
11454TIP3    H155777   0.952   1.247  16.159  0.8640 -1.0206  2.0857
11454TIP3    H255778   1.070   1.179  16.092  0.0986 -3.0078  2.6855
11455TIP3   OH255779   3.708   1.650   5.871 -0.0913  0.0311  0.0018
11455TIP3    H155780   3.738   1.728   5.918 -0.9478  0.0573  0.5255
11455TIP3    H255781   3.617   1.670   5.847 -0.1814 -0.6386 -0.2365
11456TIP3   OH255782   5.327   4.338   2.636 -0.2873  1.1404  0.0902
11456TIP3    H155783   5.355   4.274   2.702 -0.1705  0.4420 -0.6250
11456TIP3    H255784   5.398   4.403   2.635  0.4713  0.3208 -0.4504
11457TIP3   OH255785   2.436   6.080  11.961 -0.2980  0.1870 -0.7246
11457TIP3    H155786   2.402   6.135  11.890 -0.7996 -0.3317 -0.9042
11457TIP3    H255787   2.474   6.004  11.915  1.7857  1.0817 -0.5656
11458TIP3   OH255788   1.672   0.928   5.862 -0.1224 -0.0676 -0.1025
11458TIP3    H155789   1.656   0.943   5.955  0.5466 -1.5102  0.2671
11458TIP3    H255790   1.595   0.879   5.832  0.2207 -0.6510 -0.0291
11459TIP3   OH255791   3.483   3.342  13.952 -0.1506  0.1718  0.2066
11459TIP3    H155792   3.516   3.378  14.034 -0.1228  0.3806  0.1062
11459TIP3    H255793   3.419   3.407  13.921  0.1779  0.3257 -0.1657
11460TIP3   OH255794   3.111   0.081  10.727  0.2111 -0.0126 -0.0155
11460TIP3    H155795   3.159   0.123  10.798 -0.3169  0.6353 -0.0372
11460TIP3    H255796   3.068   0.006  10.769  1.1567 -0.5518  0.0208
11461TIP3   OH255797   0.976   3.326  13.739  0.5408 -0.0061 -0.3594
11461TIP3    H155798   0.903   3.386  13.756  0.5348 -0.0475 -0.2370
11461TIP3    H255799   0.940   3.239  13.758  1.1312  0.1059  1.4421
11462TIP3   OH255800   1.755   3.952   5.934 -0.5062 -0.1274 -0.2717
11462TIP3    H155801   1.841   3.985   5.910 -0.6937  0.9052  0.4011
11462TIP3    H255802   1.753   3.954   6.029 -0.8556 -1.2806 -0.2377
11463TIP3   OH255803   3.814   3.064   0.553  0.0198  0.1201 -0.7893
11463TIP3    H155804   3.736   3.117   0.539  0.7409  1.1331 -1.0280
11463TIP3    H255805   3.885   3.113   0.512  1.0517 -0.0739  0.6881
11464TIP3   OH255806   4.910   3.056  15.946  0.0131 -0.0232 -0.3004
11464TIP3    H155807   4.980   3.090  15.891 -0.3248 -1.3346 -1.6036
11464TIP3    H255808   4.946   2.979  15.988 -0.5279 -0.5296 -0.7394
11465TIP3   OH255809   1.548   0.864  15.146 -0.0684 -1.1236  0.7614
11465TIP3    H155810   1.487   0.935  15.128 -1.1739 -1.4827  2.7546
11465TIP3    H255811   1.520   0.793  15.089  1.5585  0.1937 -1.8593
11466TIP3   OH255812   6.686   4.640   1.881 -0.0520  0.4665  0.2898
11466TIP3    H155813   6.760   4.663   1.824 -1.0341  2.3087 -0.3453
11466TIP3    H255814   6.614   4.695   1.849 -1.1301  0.2444  2.1967
11467TIP3   OH255815   2.436   4.286  12.003  0.0617  0.4716  0.3416
11467TIP3    H155816   2.422   4.202  12.046 -2.5371  1.0757  0.8246
11467TIP3    H255817   2.531   4.292  11.993  0.3657 -2.2651  0.7469
11468TIP3   OH255818   3.867   4.387  13.741  0.1231 -0.2065  0.2647
11468TIP3    H155819   3.932   4.342  13.687  0.4703 -0.4728  0.8967
11468TIP3    H255820   3.814   4.316  13.778 -1.2248  0.0399 -1.0822
11469TIP3   OH255821   5.460   1.930   2.489  0.6673 -1.2505  0.4626
11469TIP3    H155822   5.365   1.930   2.498  0.7267 -1.3350  1.1100
11469TIP3    H255823   5.480   2.020   2.461  0.4894 -0.9124  1.3901
11470TIP3   OH255824   0.254   1.875  12.744  0.3237  0.1260  0.4900
11470TIP3    H155825   0.340   1.851  12.709  0.4528 -0.3916  1.1441
11470TIP3    H255826   0.273   1.935  12.816  0.1639 -0.3199  0.9103
11471TIP3   OH255827   1.138   0.204  15.529 -0.2018  0.3191  0.1149
11471TIP3    H155828   1.210   0.215  15.591 -0.1458 -1.5408  0.4632
11471TIP3    H255829   1.068   0.165  15.581 -1.0941  1.1373 -0.4526
11472TIP3   OH255830   4.861   6.612  13.295  0.2996 -0.2992  0.0020
11472TIP3    H155831   4.772   6.625  13.327  0.2319 -2.1253  0.6620
11472TIP3    H255832   4.909   6.580  13.372  1.2114 -0.5700 -0.6631
11473TIP3   OH255833   3.310   1.155   6.441  0.1278  0.2177  0.1688
11473TIP3    H155834   3.308   1.099   6.519  0.0374 -0.9730 -0.6749
11473TIP3    H255835   3.220   1.187   6.433 -0.3385 -1.1824 -0.5094
11474TIP3   OH255836   4.387   0.929  14.298  0.1626  0.4763 -0.0154
11474TIP3    H155837   4.315   0.992  14.303 -1.2584 -1.0117 -0.7772
11474TIP3    H255838   4.345   0.846  14.276  2.0776 -0.5591  0.0008
11475TIP3   OH255839   0.933   4.220  16.069 -0.3301 -0.1530  0.1849
11475TIP3    H155840   0.919   4.298  16.014 -1.1129  1.3303  2.3673
11475TIP3    H255841   0.847   4.179  16.075  0.2105 -1.6577 -1.5164
11476TIP3   OH255842   3.197   5.483  13.195 -0.7293  0.5237  0.0893
11476TIP3    H155843   3.170   5.398  13.232 -1.2579  1.2702  1.5217
11476TIP3    H255844   3.166   5.481  13.105  0.1736 -1.2002 -0.2452
11477TIP3   OH255845   4.158   2.383   5.076 -0.3003  0.0845  0.4093
11477TIP3    H155846   4.128   2.298   5.107  2.7422 -0.9832  0.6829
11477TIP3    H255847   4.178   2.432   5.156 -0.2890  0.3828  0.2264
11478TIP3   OH255848   0.455   4.649  15.221  0.0041 -0.1724 -0.5533
11478TIP3    H155849   0.545   4.623  15.238 -0.6951 -1.8201  0.9961
11478TIP3    H255850   0.422   4.584  15.158 -0.5430 -0.5580  0.1132
11479TIP3   OH255851   0.231   6.562   4.310  0.4758 -0.6028 -0.1015
11479TIP3    H155852   0.233   6.622   4.384  0.4196 -0.5849 -0.1149
11479TIP3    H255853   0.255   6.615   4.234  1.0596 -0.7392 -0.0154
11480TIP3   OH255854   4.188   0.590   1.125 -0.0250 -0.0450  0.3350
11480TIP3    H155855   4.117   0.653   1.111  0.0522 -0.1505 -0.5920
11480TIP3    H255856   4.267   0.644   1.128  0.1057 -0.1150 -1.0241
11481TIP3   OH255857   5.526   1.072  16.427 -0.0271  0.0322  0.3510
11481TIP3    H155858   5.551   1.126  16.352  1.0657  0.2870  0.8795
11481TIP3    H255859   5.609   1.045  16.466 -0.5699 -1.1751  0.7147
11482TIP3   OH255860   1.866   0.467   4.059 -0.0122 -0.6102  0.1196
11482TIP3    H155861   1.837   0.425   4.140  1.1564  1.1891  1.5724
11482TIP3    H255862   1.794   0.454   3.998 -1.3160 -1.2822  1.7239
11483TIP3   OH255863   5.258   5.601   4.111 -0.1450 -0.3787 -0.2883
11483TIP3    H155864   5.178   5.653   4.105 -2.0481 -2.8068  1.9390
11483TIP3    H255865   5.258   5.549   4.031  0.4694  1.2021 -1.3605
11484TIP3   OH255866   1.348   5.660   3.726 -0.2039  0.4510 -0.0232
11484TIP3    H155867   1.436   5.686   3.755  0.1866  1.8388 -2.2519
11484TIP3    H255868   1.350   5.565   3.728  1.6161  0.4280 -0.7093
11485TIP3   OH255869   6.466   0.658  17.267 -0.0789  0.5815  0.4265
11485TIP3    H155870   6.548   0.642  17.313 -1.1030 -0.3334  2.0122
11485TIP3    H255871   6.409   0.697  17.333 -2.0992 -2.1924  0.4823
11486TIP3   OH255872   0.711   3.394  13.260 -0.0954 -0.0586 -0.1705
11486TIP3    H155873   0.772   3.335  13.305  0.9350  0.5720 -0.7158
11486TIP3    H255874   0.670   3.444  13.331  0.8361  0.2825  0.1437
11487TIP3   OH255875   6.438   0.813   2.874 -0.0468 -0.3315  0.6550
11487TIP3    H155876   6.478   0.864   2.803 -1.3121  1.7944  1.3923
11487TIP3    H255877   6.491   0.733   2.878  0.4765 -0.2686 -2.2419
11488TIP3   OH255878   2.200   4.811  12.107  0.0322  0.8119 -0.3169
11488TIP3    H155879   2.254   4.735  12.128  0.7449  1.0760 -1.1572
11488TIP3    H255880   2.124   4.774  12.062  0.5696  0.6170 -1.0822
11489TIP3   OH255881   1.112   3.945  15.798  0.2093  0.7162 -0.9806
11489TIP3    H155882   1.021   3.955  15.769 -0.0252  0.0862 -0.5071
11489TIP3    H255883   1.104   3.909  15.887  0.9218 -0.0500 -1.2122
11490TIP3   OH255884   0.032   0.642   4.824 -0.0043  0.5607  0.3310
11490TIP3    H155885   0.015   0.548   4.819  0.8431  0.3310  1.5672
11490TIP3    H255886   0.127   0.650   4.828 -0.0254  1.5268 -0.4575
11491TIP3   OH255887   5.986   0.875  15.196  0.3888  0.0816  0.2990
11491TIP3    H155888   6.013   0.967  15.192 -0.9315  0.4886  0.5363
11491TIP3    H255889   6.016   0.845  15.281 -0.7575  0.8242  0.9961
11492TIP3   OH255890   0.279   1.546  13.677 -0.2009 -0.0730 -1.2293
11492TIP3    H155891   0.208   1.605  13.704 -0.9791 -1.1216 -0.9010
11492TIP3    H255892   0.344   1.604  13.638  0.9780  1.5951  2.6926
11493TIP3   OH255893   4.197   4.382  13.923 -0.5871  0.5461  0.6474
11493TIP3    H155894   4.212   4.477  13.921 -1.7999  0.7393 -0.3340
11493TIP3    H255895   4.276   4.346  13.965  0.6716  1.8216 -0.5267
11494TIP3   OH255896   3.409   5.257   2.816 -0.2765  0.1833  0.2050
11494TIP3    H155897   3.474   5.297   2.873  1.1795  0.5089 -1.5901
11494TIP3    H255898   3.442   5.169   2.799 -0.4260  0.2508 -0.4910
11495TIP3   OH255899   2.782   6.628   3.485  0.1439 -0.1564  0.5163
11495TIP3    H155900   2.865   6.624   3.532 -0.2582  0.8246  1.3597
11495TIP3    H255901   2.785   6.554   3.424  0.9223 -1.1242  1.6802
11496TIP3   OH255902   1.189   2.489   3.267 -0.1029  0.3708 -0.3001
11496TIP3    H155903   1.283   2.491   3.285  0.0944 -0.7602 -1.1238
11496TIP3    H255904   1.166   2.581   3.256  1.1404  0.6010 -1.2175
11497TIP3   OH255905   5.961   0.235  14.332  0.4567 -0.0002 -0.2967
11497TIP3    H155906   5.898   0.203  14.267  2.6685 -0.3796 -2.3884
11497TIP3    H255907   5.938   0.327  14.344  1.0666  0.6108 -3.0973
11498TIP3   OH255908   3.244   4.844  17.042  0.2321 -0.3399  0.1835
11498TIP3    H155909   3.190   4.844  16.962  0.4547 -0.2052  0.0326
11498TIP3    H255910   3.207   4.914  17.096  0.0148 -0.5005  0.2443
11499TIP3   OH255911   6.619   5.501  12.499  0.2959  0.1582 -0.3509
11499TIP3    H155912   6.572   5.421  12.522 -0.0837  0.6887  0.7865
11499TIP3    H255913   6.709   5.484  12.525 -0.0642  0.6240  1.2718
11500TIP3   OH255914   4.036   3.416   5.746  0.1646 -0.4200  0.1407
11500TIP3    H155915   3.943   3.408   5.769  0.3294 -1.0400  0.6307
11500TIP3    H255916   4.075   3.334   5.776  0.4287 -1.2506 -2.1968
11501TIP3   OH255917   0.213   6.100   2.322  0.2631  0.6103 -0.0663
11501TIP3    H155918   0.158   6.046   2.265 -0.1323 -0.5708  1.3696
11501TIP3    H255919   0.299   6.058   2.318 -0.3290 -0.9112  1.9700
11502TIP3   OH255920   2.521   0.029  13.983  0.1939  0.3068 -0.6072
11502TIP3    H155921   2.578  -0.037  14.022  0.5741  0.4860 -0.8560
11502TIP3    H255922   2.434   0.009  14.018  0.6121  0.8086  0.7808
11503TIP3   OH255923   4.313   3.701  10.946  0.0562  0.4734  0.4247
11503TIP3    H155924   4.402   3.685  10.978  0.0974  0.4713  0.3083
11503TIP3    H255925   4.308   3.653  10.864  0.5640  1.9711 -0.5315
11504TIP3   OH255926   5.527   6.240   5.716 -0.1015 -0.0224 -0.6551
11504TIP3    H155927   5.561   6.315   5.765 -0.6117 -0.6170  0.6451
11504TIP3    H255928   5.434   6.258   5.706 -0.1055 -0.1779 -0.9083
11505TIP3   OH255929   4.269   0.868  16.504  0.2649  0.4457  0.2800
11505TIP3    H155930   4.205   0.842  16.438  0.2555 -0.1350  0.5117
11505TIP3    H255931   4.304   0.952  16.472 -1.4870  1.4177  0.7719
11506TIP3   OH255932   3.320   3.509  15.525  0.4735  0.0494 -0.1234
11506TIP3    H155933   3.275   3.534  15.445  0.9637 -0.9255 -0.7188
11506TIP3    H255934   3.321   3.413  15.523 -0.5517 -0.0413  1.6241
11507TIP3   OH255935   2.256   0.738   2.834  0.1345  0.5623  0.5794
11507TIP3    H155936   2.293   0.822   2.809  1.6973 -0.1731  0.2747
11507TIP3    H255937   2.259   0.685   2.754  0.0437 -0.0793  0.9894
11508TIP3   OH255938   2.316   2.486   1.416  0.2624  0.4560  0.4087
11508TIP3    H155939   2.236   2.528   1.387  0.8659  0.7094 -0.9489
11508TIP3    H255940   2.339   2.425   1.346  0.8393 -0.1997  1.1409
11509TIP3   OH255941   1.105   4.473   5.484 -0.0252 -0.3836 -0.1566
11509TIP3    H155942   1.098   4.510   5.396  2.7374 -0.3823 -0.4583
11509TIP3    H255943   1.107   4.378   5.471 -1.1597 -0.4550  0.0799
11510TIP3   OH255944   4.533   6.245  14.220 -0.0192  0.0369 -0.1431
11510TIP3    H155945   4.554   6.154  14.241 -0.5571 -0.2126 -0.6755
11510TIP3    H255946   4.584   6.264  14.141 -0.6563 -0.1198 -0.6038
11511TIP3   OH255947   6.063   6.441  15.123  0.2128 -0.1748  1.2595
11511TIP3    H155948   6.096   6.366  15.172  1.0839 -1.1222 -0.6806
11511TIP3    H255949   5.969   6.425  15.114  0.4778 -1.3636  0.3803
11512TIP3   OH255950   2.847   4.118  16.257 -0.3020 -0.1117 -0.5478
11512TIP3    H155951   2.890   4.115  16.172 -0.8394  0.2926 -0.8374
11512TIP3    H255952   2.885   4.195  16.300 -0.6257  0.1606 -0.7458
11513TIP3   OH255953   0.426   5.285   1.317  0.4973  0.3380  0.2437
11513TIP3    H155954   0.331   5.273   1.319  0.4388  0.8113  0.5289
11513TIP3    H255955   0.442   5.360   1.374  1.2395 -1.0344  1.9383
11514TIP3   OH255956   2.975   2.987  14.781 -0.3697 -0.0639  0.5820
11514TIP3    H155957   3.019   2.980  14.696  0.9853  1.5840  1.1024
11514TIP3    H255958   2.949   3.079  14.788 -1.6322 -0.4497  1.4198
11515TIP3   OH255959   6.376   2.195   6.468  0.4325  0.5772 -0.5153
11515TIP3    H155960   6.376   2.227   6.377 -0.4046  0.1802 -0.6667
11515TIP3    H255961   6.389   2.101   6.460 -0.0543  0.4838 -0.2545
11516TIP3   OH255962   4.766   0.458  13.187 -0.0392  0.8321 -0.5725
11516TIP3    H155963   4.693   0.512  13.158  0.4466  2.8955  1.7520
11516TIP3    H255964   4.818   0.515  13.244  2.3302 -1.1399 -0.5621
11517TIP3   OH255965   5.950   3.532   1.459  0.4082  0.2572 -0.4842
11517TIP3    H155966   5.915   3.579   1.535  0.8042  2.3191 -1.5205
11517TIP3    H255967   5.879   3.473   1.433  0.4138 -0.8376  1.6824
11518TIP3   OH255968   2.046   3.717  17.261 -0.7087 -0.2222  0.5629
11518TIP3    H155969   2.062   3.802  17.220  3.2657 -1.4215 -0.7521
11518TIP3    H255970   2.002   3.665  17.193 -1.3437  0.1412  0.6854
11519TIP3   OH255971   3.091   0.969   5.045 -0.5375  0.4807  0.9847
11519TIP3    H155972   3.111   1.061   5.066 -1.4165  0.4386  2.0636
11519TIP3    H255973   3.031   0.975   4.971 -1.4636  0.8385  1.7406
11520TIP3   OH255974   3.428   2.528  14.068 -0.7736  0.5708  0.3151
11520TIP3    H155975   3.419   2.558  14.159  0.4206  0.9868  0.3181
11520TIP3    H255976   3.424   2.607  14.015  2.8860  0.9792  0.3598
11521TIP3   OH255977   3.511   3.071   2.639 -0.0959 -0.0166 -0.3626
11521TIP3    H155978   3.484   3.019   2.563  0.0256 -0.1302 -0.3289
11521TIP3    H255979   3.607   3.069   2.636 -0.0169 -1.9584  1.0776
11522TIP3   OH255980   1.575   2.473  12.603  0.0897  0.4027  0.4023
11522TIP3    H155981   1.536   2.561  12.600  0.4850  0.6067  1.0013
11522TIP3    H255982   1.623   2.465  12.520 -0.7906  0.3473 -0.1127
11523TIP3   OH255983   1.595   3.789   2.521 -0.2894 -0.7324  0.0230
11523TIP3    H155984   1.636   3.716   2.567  2.2293  0.9716  0.6761
11523TIP3    H255985   1.665   3.852   2.509 -2.0006  0.9312 -1.9656
11524TIP3   OH255986   5.871   6.065  14.868 -0.0264 -0.2889  0.0713
11524TIP3    H155987   5.779   6.058  14.842 -0.0722  0.6205 -0.0380
11524TIP3    H255988   5.900   6.148  14.832  1.3011 -1.2832 -1.3053
11525TIP3   OH255989   3.400   6.267   0.174 -0.1598  0.2125 -0.6061
11525TIP3    H155990   3.305   6.273   0.162 -0.7297 -3.2640  0.7961
11525TIP3    H255991   3.411   6.242   0.266  2.0703 -0.1879 -0.9148
11526TIP3   OH255992   1.997   2.343   0.619 -0.2233  0.1437  0.2150
11526TIP3    H155993   1.982   2.424   0.668 -0.1571  0.8247 -0.8509
11526TIP3    H255994   2.066   2.366   0.557 -0.6225 -0.5615 -0.5074
11527TIP3   OH255995   3.807   2.519   3.322 -1.3751  0.1685 -0.0336
11527TIP3    H155996   3.869   2.474   3.379 -2.0457 -1.2892 -0.3913
11527TIP3    H255997   3.860   2.555   3.251 -0.9866 -2.3118 -1.1356
11528TIP3   OH255998   5.702   2.341   4.494 -0.1391 -0.3000  0.4712
11528TIP3    H155999   5.785   2.296   4.512 -0.5344 -0.5069  1.8333
11528TIP3    H256000   5.708   2.364   4.401  0.3961 -2.5347 -0.1105
11529TIP3   OH256001   3.469   6.434  15.252 -0.4570 -0.2538 -0.1063
11529TIP3    H156002   3.441   6.516  15.211 -1.6990 -1.1755 -1.1974
11529TIP3    H256003   3.560   6.449  15.277 -0.5653  1.3421 -0.5730
11530TIP3   OH256004   5.620   4.511  16.839 -0.4534 -0.1548  0.4012
11530TIP3    H156005   5.619   4.547  16.750 -0.1125  1.5835  1.0608
11530TIP3    H256006   5.529   4.488  16.856 -0.8242  1.0823  0.1862
11531TIP3   OH256007   0.347   6.743  13.903 -0.2114  0.0844  0.4678
11531TIP3    H156008   0.325   6.833  13.879  1.1248  0.7093  1.4334
11531TIP3    H256009   0.266   6.707  13.938 -0.7348  0.9563  0.1841
11532TIP3   OH256010   3.701   6.554   5.247  0.6085  0.2688 -0.2181
11532TIP3    H156011   3.737   6.491   5.310  1.0652  0.6231 -0.1182
11532TIP3    H256012   3.618   6.516   5.220  1.5446 -1.1333 -1.2734
11533TIP3   OH256013   3.277   1.063   5.891 -0.0065  0.2926 -0.5425
11533TIP3    H156014   3.279   1.037   5.983 -0.6178 -3.0578 -1.3620
11533TIP3    H256015   3.282   0.981   5.842  1.1879  1.9887 -3.5554
11534TIP3   OH256016   2.414   0.018   1.296  0.6542 -0.0934  0.6670
11534TIP3    H156017   2.347   0.086   1.289  1.1294  0.8230  3.5177
11534TIP3    H256018   2.492   0.058   1.256  0.2119 -0.0939 -0.2097
11535TIP3   OH256019   0.744   1.627   1.851  0.6868  0.1973 -0.0618
11535TIP3    H156020   0.738   1.547   1.902 -0.3610 -0.7293 -1.5539
11535TIP3    H256021   0.816   1.613   1.790  0.3907  0.2957 -0.4469
11536TIP3   OH256022   2.018   4.440  12.712 -0.3723  0.9461  0.2410
11536TIP3    H156023   1.996   4.522  12.757 -0.4072  0.2882  1.4844
11536TIP3    H256024   1.958   4.375  12.750  0.4377  0.1163  0.1489
11537TIP3   OH256025   5.082   0.045  10.954 -0.2574 -0.1628  0.1297
11537TIP3    H156026   5.106   0.005  11.037 -1.4931 -0.7326  0.2281
11537TIP3    H256027   4.989   0.062  10.961 -0.2080  0.6148 -0.8062
11538TIP3   OH256028   1.136   2.789  10.709 -0.3004 -0.0384 -0.1710
11538TIP3    H156029   1.113   2.843  10.633  0.2561  1.3751  0.6163
11538TIP3    H256030   1.063   2.803  10.770 -0.8163 -1.2800 -0.4764
11539TIP3   OH256031   0.791   5.878   5.572 -0.5806 -0.1805 -0.0235
11539TIP3    H156032   0.753   5.883   5.484 -2.9796  1.4663  0.9911
11539TIP3    H256033   0.747   5.947   5.621  0.8827 -0.8584  2.4245
11540TIP3   OH256034   6.737   3.161   1.970  0.0374 -0.4163  0.2594
11540TIP3    H156035   6.662   3.101   1.971  0.4629 -1.0304 -1.4107
11540TIP3    H256036   6.752   3.182   2.062  0.0950 -3.1961  0.9883
11541TIP3   OH256037   2.079   5.259   3.102 -0.1659 -0.6275 -0.1705
11541TIP3    H156038   2.140   5.284   3.032 -0.6471 -0.2984 -0.4805
11541TIP3    H256039   2.071   5.164   3.094  2.0662 -1.0200  1.3355
11542TIP3   OH256040   6.361   5.637  17.253  0.7732 -0.0868  0.6162
11542TIP3    H156041   6.400   5.550  17.256  2.1658  0.4509 -0.4540
11542TIP3    H256042   6.277   5.628  17.298 -0.7154 -2.7843 -2.2812
11543TIP3   OH256043   3.834   1.189  13.379  0.3505 -0.3903 -0.2192
11543TIP3    H156044   3.884   1.204  13.459  1.1939  0.7310 -0.9255
11543TIP3    H256045   3.862   1.102  13.349 -1.0928 -1.4816  1.4664
11544TIP3   OH256046   5.759   2.344   0.395  0.5629  0.0506  0.0177
11544TIP3    H156047   5.723   2.432   0.390 -0.5250 -0.4118 -0.7651
11544TIP3    H256048   5.832   2.343   0.333 -0.0294  0.1335 -0.6854
11545TIP3   OH256049   2.949   5.840  14.285 -0.2427 -0.0892 -0.2750
11545TIP3    H156050   3.024   5.786  14.311  0.7870  1.2070 -0.4458
11545TIP3    H256051   2.874   5.782  14.293  0.6024 -1.0398  1.2457
11546TIP3   OH256052   3.565   6.279  12.821 -0.2018  0.1909  0.1163
11546TIP3    H156053   3.513   6.222  12.879  1.2023 -0.0485  1.2153
11546TIP3    H256054   3.572   6.230  12.739  0.1833 -0.8076  0.7295
11547TIP3   OH256055   3.455   5.192  17.149 -0.3374  0.2252 -0.5557
11547TIP3    H156056   3.508   5.170  17.226 -1.9530  0.9462  0.8352
11547TIP3    H256057   3.465   5.117  17.091 -0.3165 -1.0845  1.0666
11548TIP3   OH256058   4.516   4.764  11.144  0.3908  0.3013  0.0417
11548TIP3    H156059   4.553   4.676  11.136 -1.9533 -0.6571 -1.6793
11548TIP3    H256060   4.539   4.807  11.062 -0.6681  0.3128 -0.2704
11549TIP3   OH256061   3.747   1.502   3.274  0.0136  0.3260  0.2908
11549TIP3    H156062   3.739   1.544   3.360  0.5084 -0.0845  0.5426
11549TIP3    H256063   3.815   1.552   3.230  0.2487  0.1044  0.4013
11550TIP3   OH256064   2.318   3.057  14.229 -0.3453 -0.0902  0.1744
11550TIP3    H156065   2.397   3.087  14.184 -1.2952  2.4161  0.0567
11550TIP3    H256066   2.295   2.975  14.184  1.1180  0.1357 -1.0613
11551TIP3   OH256067   5.628   5.921  13.720  0.0415  0.7360 -0.1412
11551TIP3    H156068   5.712   5.884  13.745 -0.3561  0.2956  0.5736
11551TIP3    H256069   5.594   5.962  13.800 -1.7218 -1.5875  0.4112
11552TIP3   OH256070   2.313   3.631   4.085  0.4429  0.1795  0.3550
11552TIP3    H156071   2.408   3.627   4.072  0.5765  0.5607  1.1030
11552TIP3    H256072   2.303   3.640   4.180 -0.2641  1.7940  0.1682
11553TIP3   OH256073   4.032   1.311  11.890  0.2560  0.1428 -0.0229
11553TIP3    H156074   4.079   1.235  11.857  1.4318  1.2095 -0.8990
11553TIP3    H256075   4.093   1.351  11.953 -0.3128  0.4170  0.3641
11554TIP3   OH256076   2.679   4.604   6.154  0.1656 -0.2634  0.5864
11554TIP3    H156077   2.634   4.646   6.081 -1.5207  0.7542  2.1079
11554TIP3    H256078   2.762   4.650   6.163  1.4538 -1.8643 -2.0029
11555TIP3   OH256079   0.986   1.251   0.880 -0.0592 -0.0892  0.3433
11555TIP3    H156080   1.070   1.211   0.902 -1.0119 -2.5042 -0.0998
11555TIP3    H256081   0.961   1.211   0.797 -2.0437 -0.1147  0.9021
11556TIP3   OH256082   0.090   4.093   4.643 -0.3538 -0.0792 -0.5503
11556TIP3    H156083   0.099   4.010   4.597 -2.5612 -1.2080  0.8729
11556TIP3    H256084   0.035   4.146   4.586  1.1697  0.5396 -1.5255
11557TIP3   OH256085   3.950   4.323   1.970 -0.3067 -0.4419  0.2281
11557TIP3    H156086   3.944   4.229   1.952 -1.3017 -0.6238  1.3798
11557TIP3    H256087   3.956   4.329   2.065  0.3334  0.6518  0.1367
11558TIP3   OH256088   2.554   2.372   6.435 -0.5727 -0.1575  0.1973
11558TIP3    H156089   2.530   2.311   6.504 -2.4710  1.4100  1.0393
11558TIP3    H256090   2.496   2.350   6.362 -1.2879  0.6188  0.5158
11559TIP3   OH256091   3.556   3.120   2.906  0.0283  0.5194 -0.1212
11559TIP3    H156092   3.626   3.185   2.907  0.1499  0.4442 -1.6134
11559TIP3    H256093   3.558   3.083   2.818 -1.6716  0.2850 -0.1068
11560TIP3   OH256094   6.743   1.046  17.131 -0.3254  0.2215  0.4210
11560TIP3    H156095   6.777   1.051  17.220  0.3813  2.1219  0.0953
11560TIP3    H256096   6.651   1.025  17.142  0.1675 -1.6718  1.4735
11561TIP3   OH256097   2.428   2.543  12.230 -0.2902 -0.0282  0.1850
11561TIP3    H156098   2.465   2.528  12.143  1.8437  2.5591  0.5287
11561TIP3    H256099   2.377   2.624  12.220 -0.8557 -0.2564  1.1413
11562TIP3   OH256100   2.994   5.377   1.081  0.1315  0.3983 -0.5833
11562TIP3    H156101   2.952   5.460   1.059  2.0505  1.4095 -0.6355
11562TIP3    H256102   3.073   5.376   1.027  0.0849 -1.5427 -0.6678
11563TIP3   OH256103   5.761   5.753  15.604 -0.5113 -0.2578  0.1815
11563TIP3    H156104   5.774   5.666  15.566 -1.1029 -0.5215  0.5743
11563TIP3    H256105   5.725   5.805  15.532  1.1578  0.0630 -0.4729
11564TIP3   OH256106   2.589   4.895  13.164  0.4392  0.1492 -0.4181
11564TIP3    H156107   2.589   4.895  13.068  0.1351  0.4809 -0.4195
11564TIP3    H256108   2.667   4.844  13.187  0.2441 -0.3451 -0.8359
11565TIP3   OH256109   6.697   2.192  15.368 -0.2467 -0.3401  0.4728
11565TIP3    H156110   6.762   2.140  15.414 -0.3285 -1.6592 -0.8197
11565TIP3    H256111   6.740   2.276  15.351  0.0235 -0.0829  2.2604
11566TIP3   OH256112   6.132   4.791  11.540  0.1737 -0.5195  0.1224
11566TIP3    H156113   6.209   4.734  11.539 -0.0896 -0.8810  0.3145
11566TIP3    H256114   6.058   4.730  11.543 -0.1252 -0.1788 -0.2951
11567TIP3   OH256115   4.642   3.736  13.479  0.1427  0.1867 -0.4461
11567TIP3    H156116   4.637   3.665  13.543  0.5092  0.6001  0.0419
11567TIP3    H256117   4.727   3.724  13.436  0.1765  0.2895 -0.4092
11568TIP3   OH256118   2.351   3.705   2.605 -0.8037  0.2708  0.3642
11568TIP3    H156119   2.386   3.619   2.627 -0.5617  0.3947  0.4689
11568TIP3    H256120   2.396   3.729   2.524 -0.7687  0.3567  0.4083
11569TIP3   OH256121   2.039   6.535   0.967 -0.7014 -0.0844  0.5083
11569TIP3    H156122   2.032   6.554   1.061  0.6953 -1.9506  1.0567
11569TIP3    H256123   1.950   6.545   0.934 -1.1050  1.3016  1.8708
11570TIP3   OH256124   3.878   2.134   5.930  0.1912 -0.2809  0.4890
11570TIP3    H156125   3.968   2.109   5.909  0.6107  1.5943 -0.1300
11570TIP3    H256126   3.887   2.211   5.986 -1.0151  0.4506 -0.2742
11571TIP3   OH256127   3.653   3.215   5.484  0.0676  0.5427  0.5636
11571TIP3    H156128   3.619   3.138   5.439  1.3644  0.0099  0.4547
11571TIP3    H256129   3.699   3.265   5.415  2.9699 -0.7955  1.3746
11572TIP3   OH256130   5.053   4.538   1.114 -0.3353  0.9173 -0.4693
11572TIP3    H156131   5.127   4.546   1.055  0.9050 -1.8076  0.5406
11572TIP3    H256132   4.990   4.483   1.067 -0.2411  0.4586 -0.0712
11573TIP3   OH256133   5.437   1.951   4.008 -0.9962 -0.4704 -0.7067
11573TIP3    H156134   5.448   2.013   4.080  1.7048 -0.3654 -1.1410
11573TIP3    H256135   5.448   2.002   3.929  3.9145 -1.6261 -1.1062
11574TIP3   OH256136   4.821   2.377   0.680 -0.2988 -0.1496 -0.4909
11574TIP3    H156137   4.762   2.446   0.647 -1.0512 -1.1201 -1.2288
11574TIP3    H256138   4.818   2.309   0.613  1.9000 -0.1243 -0.6858
11575TIP3   OH256139   2.295   1.215  16.898  0.3490 -0.1354 -0.4487
11575TIP3    H156140   2.272   1.273  16.826  0.4555  0.0570 -0.3275
11575TIP3    H256141   2.387   1.194  16.884 -0.0453 -1.3771 -1.2621
11576TIP3   OH256142   5.555   2.142  12.038  0.4880 -0.1224 -0.0513
11576TIP3    H156143   5.534   2.050  12.021  0.9635 -0.2755  0.1848
11576TIP3    H256144   5.483   2.174  12.092  0.4208 -0.4050  0.0265
11577TIP3   OH256145   0.063   6.289  14.287  0.8002 -0.4276 -0.5834
11577TIP3    H156146   0.085   6.379  14.263  0.9395  0.2513  1.7811
11577TIP3    H256147   0.083   6.284  14.381 -1.1639 -2.2951 -0.1738
11578TIP3   OH256148   0.675   1.789   2.359  0.2452 -0.2351  0.5089
11578TIP3    H156149   0.770   1.776   2.347  0.3476  0.4321  0.5592
11578TIP3    H256150   0.650   1.850   2.289  0.0206  0.2644  1.0180
11579TIP3   OH256151   0.180   1.127  13.758 -0.1255 -0.5568  0.5516
11579TIP3    H156152   0.213   1.209  13.794  0.6015 -0.2017 -0.8252
11579TIP3    H256153   0.257   1.086  13.718 -0.7683 -1.1995 -0.0547
11580TIP3   OH256154   2.898   6.042   5.673 -0.2886  0.0070  0.1097
11580TIP3    H156155   2.804   6.042   5.653  0.2344  1.2538 -2.9549
11580TIP3    H256156   2.920   6.134   5.686  1.0019  0.2080 -2.6823
11581TIP3   OH256157   1.498   4.515  13.716  0.0541 -0.5848 -0.0890
11581TIP3    H156158   1.503   4.555  13.629  0.4294  0.5527  0.4377
11581TIP3    H256159   1.535   4.427  13.704 -2.7968 -1.6777 -1.7446
11582TIP3   OH256160   6.509   0.303  16.632 -0.0596  0.1781 -0.5531
11582TIP3    H156161   6.462   0.376  16.592  1.3997  0.6662 -1.4445
11582TIP3    H256162   6.593   0.300  16.587  1.6718  0.6835  2.3405
11583TIP3   OH256163   1.383   6.409  17.268  0.0483 -0.1315  0.2952
11583TIP3    H156164   1.387   6.334  17.327 -0.6118  1.4377  2.4485
11583TIP3    H256165   1.298   6.399  17.224  0.4880 -1.2474 -0.3601
11584TIP3   OH256166   5.656   4.371   1.911  0.5576 -0.2068 -0.4720
11584TIP3    H156167   5.711   4.430   1.860  0.0030 -0.1690 -1.0223
11584TIP3    H256168   5.593   4.336   1.849 -0.0118 -0.2979  0.1457
11585TIP3   OH256169   1.294   5.130   1.170 -0.3597 -0.6793 -0.4532
11585TIP3    H156170   1.200   5.136   1.155 -0.6959  2.3803  1.8610
11585TIP3    H256171   1.304   5.063   1.238 -0.7866 -1.2553 -0.9484
11586TIP3   OH256172   6.104   5.784   6.102 -0.2942  0.0760 -0.0834
11586TIP3    H156173   6.019   5.793   6.060  0.2425  2.0433 -0.8614
11586TIP3    H256174   6.115   5.864   6.154  0.3427 -0.9483  1.4515
11587TIP3   OH256175   3.756   0.812  16.089 -0.1005  0.2436  0.0479
11587TIP3    H156176   3.801   0.729  16.076  0.9936  0.5587  1.4908
11587TIP3    H256177   3.784   0.841  16.176 -1.7187  1.3500  0.2496
11588TIP3   OH256178   5.418   1.541  14.841  0.0772  0.0803 -0.1771
11588TIP3    H156179   5.377   1.524  14.756 -0.4163 -1.2812  0.2995
11588TIP3    H256180   5.508   1.566  14.820 -0.2131  0.3620 -1.1191
11589TIP3   OH256181   2.608   5.615  13.909  0.0588 -0.4144 -0.0127
11589TIP3    H156182   2.643   5.683  13.966 -1.4679  1.3476 -1.0518
11589TIP3    H256183   2.541   5.659  13.857 -1.7217 -2.9492 -0.0711
11590TIP3   OH256184   5.485   3.858  17.151  0.1674  0.2097 -0.2203
11590TIP3    H156185   5.401   3.814  17.143  0.8456 -0.8436 -2.2841
11590TIP3    H256186   5.477   3.936  17.096  0.1985  0.7076  0.4647
11591TIP3   OH256187   0.408   5.722  14.253  0.5979  0.0579 -1.0054
11591TIP3    H156188   0.384   5.681  14.337 -1.2691 -1.6700 -2.2823
11591TIP3    H256189   0.355   5.801  14.249  1.1162  0.4474 -0.3186
11592TIP3   OH256190   0.378   5.032  13.305 -0.5806  0.2577  0.3591
11592TIP3    H156191   0.335   5.060  13.386 -0.3249  0.0837  0.5551
11592TIP3    H256192   0.308   5.034  13.240 -0.6670  0.9238  0.4622
11593TIP3   OH256193   6.531   4.825  14.608 -0.1449 -0.4518  0.4187
11593TIP3    H156194   6.457   4.767  14.630  0.2440 -0.9688  0.3912
11593TIP3    H256195   6.555   4.865  14.692 -1.1836  0.6111  0.2360
11594TIP3   OH256196   0.673   2.154   4.329  0.6136  0.8123 -0.1307
11594TIP3    H156197   0.606   2.100   4.289  0.9523  0.6941 -0.5462
11594TIP3    H256198   0.676   2.125   4.421 -0.7666  1.6770  0.2145
11595TIP3   OH256199   5.550   4.815  16.882 -0.2414  0.0632 -0.2169
11595TIP3    H156200   5.462   4.811  16.845  0.2866  0.1259 -1.5309
11595TIP3    H256201   5.586   4.898  16.852 -0.2057  0.6779  1.4538
11596TIP3   OH256202   3.858   0.060  14.426 -0.1916  0.2642  0.9395
11596TIP3    H156203   3.866   0.148  14.462 -0.5525  1.3954 -1.5368
11596TIP3    H256204   3.811   0.011  14.493 -0.2976  2.0372  2.2311
11597TIP3   OH256205   2.980   4.921  11.641 -0.2635 -0.6678 -0.2901
11597TIP3    H156206   2.914   4.872  11.690 -0.1980 -1.1965 -0.7188
11597TIP3    H256207   2.931   4.991  11.597 -0.5655 -1.1518 -0.7295
11598TIP3   OH256208   1.924   6.119   2.152  0.1541 -0.6870 -0.7057
11598TIP3    H156209   1.843   6.170   2.157 -0.0178 -1.0508  0.6413
11598TIP3    H256210   1.919   6.074   2.068 -0.3656  0.3952 -1.2814
11599TIP3   OH256211   3.279   0.974  13.214 -0.0129  0.0197  0.0039
11599TIP3    H156212   3.333   1.052  13.205 -0.7296  0.4494 -0.6401
11599TIP3    H256213   3.316   0.912  13.151  0.1058  0.1024 -0.0086
11600TIP3   OH256214   0.324   1.067  12.374  0.0829 -0.1582  0.7788
11600TIP3    H156215   0.412   1.076  12.411  0.0015  1.1782  0.6755
11600TIP3    H256216   0.338   1.047  12.282  0.2722 -0.6130  0.9024
11601TIP3   OH256217   4.167   0.940  14.118 -0.1168  0.3866  0.0037
11601TIP3    H156218   4.085   0.957  14.073 -0.0703  0.2947 -0.1161
11601TIP3    H256219   4.181   1.016  14.174  1.0398  1.6669 -1.9116
11602TIP3   OH256220   1.149   2.371   6.670 -0.0392 -0.1474  0.9812
11602TIP3    H156221   1.244   2.375   6.686  0.3596  1.0065 -1.3166
11602TIP3    H256222   1.138   2.298   6.609 -0.8032 -0.9545  2.0511
11603TIP3   OH256223   0.991   6.634   2.078  0.0980 -0.0417 -0.0691
11603TIP3    H156224   0.956   6.612   2.164 -0.9204 -0.5205 -0.5821
11603TIP3    H256225   0.979   6.554   2.027  0.3240  0.3617 -0.7661
11604TIP3   OH256226   3.213   5.681   2.185  0.5855  0.1758 -0.2895
11604TIP3    H156227   3.306   5.704   2.184  0.8045 -0.6375  0.1731
11604TIP3    H256228   3.211   5.590   2.156  0.2263 -0.7254  2.3079
11605TIP3   OH256229   2.854   4.879  11.934 -0.3254 -0.2003 -0.0245
11605TIP3    H156230   2.921   4.882  12.001 -1.5612 -1.2615  1.3264
11605TIP3    H256231   2.791   4.946  11.959 -1.6971 -1.7861  0.9434
11606TIP3   OH256232   5.702   1.121  15.334 -0.0249 -0.3204 -0.2550
11606TIP3    H156233   5.740   1.119  15.245 -0.5353 -0.4961 -0.4690
11606TIP3    H256234   5.674   1.031  15.350 -2.7755  0.2954 -1.1558
11607TIP3   OH256235   2.253   0.862   3.301 -0.1589 -0.2499 -0.3412
11607TIP3    H156236   2.309   0.815   3.363  0.3723  2.8186  1.7153
11607TIP3    H256237   2.200   0.920   3.356 -1.6654  0.6792 -2.6240
11608TIP3   OH256238   5.659   1.720  13.009 -0.1969 -0.2369  0.4733
11608TIP3    H156239   5.609   1.638  13.000 -1.8777  0.5887  1.6860
11608TIP3    H256240   5.740   1.704  12.961 -1.2518 -1.9713 -0.8709
11609TIP3   OH256241   3.795   5.313  16.187 -0.1699 -0.2151  0.0798
11609TIP3    H156242   3.784   5.393  16.136 -0.4185 -0.3944 -0.1473
11609TIP3    H256243   3.860   5.336  16.254 -0.6283  0.3264  0.3407
11610TIP3   OH256244   0.082   0.750   0.759  0.3886 -0.0095  0.2424
11610TIP3    H156245   0.125   0.677   0.803  0.4672  0.4713  0.9772
11610TIP3    H256246   0.154   0.802   0.723  0.4347  0.6745  1.2804
11611TIP3   OH256247   3.449   5.641  12.356 -0.3766  0.0899 -0.1765
11611TIP3    H156248   3.438   5.721  12.305  0.0323  0.0344 -0.3603
11611TIP3    H256249   3.363   5.625  12.395  0.0049  1.6581  1.4147
11612TIP3   OH256250   5.210   2.870   2.473  0.4074  0.5339  0.1633
11612TIP3    H156251   5.274   2.839   2.537  0.1930  1.1089  0.6642
11612TIP3    H256252   5.221   2.966   2.472 -3.1422  1.2263  3.3112
11613TIP3   OH256253   5.138   1.129  10.978 -0.0130  0.4478  0.4833
11613TIP3    H156254   5.120   1.218  11.009  1.4377  0.4380  1.4549
11613TIP3    H256255   5.054   1.083  10.987 -1.1405  2.0375 -1.3217
11614TIP3   OH256256   1.006   6.664  12.308  0.2906 -0.4873  0.4740
11614TIP3    H156257   0.944   6.727  12.345  0.9118  0.0157  0.6811
11614TIP3    H256258   1.022   6.696  12.219  0.5647 -0.3753  0.5607
11615TIP3   OH256259   4.709   3.200   6.479  0.0638  0.3043  0.1435
11615TIP3    H156260   4.694   3.114   6.439  0.7037  1.2358 -2.2536
11615TIP3    H256261   4.796   3.192   6.519 -0.3866 -0.4993  1.0115
11616TIP3   OH256262   3.633   3.115   6.119  0.0735  0.0522 -0.3751
11616TIP3    H156263   3.637   3.209   6.137 -1.3455  0.1995 -0.6771
11616TIP3    H256264   3.608   3.109   6.027 -1.0980 -0.5900 -0.0410
11617TIP3   OH256265   4.036   1.060   4.578 -0.2894 -0.3301  0.1374
11617TIP3    H156266   4.029   1.052   4.482  0.6797 -0.0725  0.0340
11617TIP3    H256267   3.976   0.993   4.611 -1.3643  0.2181 -0.6341
11618TIP3   OH256268   2.436   4.729  16.236  0.2599 -0.1464 -0.0850
11618TIP3    H156269   2.437   4.733  16.141 -0.6131  1.2674 -0.0722
11618TIP3    H256270   2.524   4.754  16.262  1.4360 -3.4194 -0.5124
11619TIP3   OH256271   0.056   1.050  14.274  0.1795 -0.3355 -0.7443
11619TIP3    H156272   0.019   1.120  14.328 -0.2463 -0.9463 -0.2383
11619TIP3    H256273   0.014   0.970  14.305  1.9798 -1.0795 -0.0763
11620TIP3   OH256274   4.268   5.614   0.847  0.1740  0.3773  0.3870
11620TIP3    H156275   4.238   5.657   0.767  0.5105 -0.6416 -0.3068
11620TIP3    H256276   4.339   5.556   0.818 -1.9273 -2.6254  0.7911
11621TIP3   OH256277   0.891   4.716  15.259  0.2347  0.8119 -0.4858
11621TIP3    H156278   0.832   4.641  15.256  1.5705 -0.2456 -1.4114
11621TIP3    H256279   0.872   4.759  15.343  0.0134 -1.0526  0.4581
11622TIP3   OH256280   6.425   2.291   4.499  0.0497  0.4966 -0.3068
11622TIP3    H156281   6.484   2.361   4.529 -1.0864  1.0203  0.8331
11622TIP3    H256282   6.483   2.219   4.475  1.2757  1.9358 -1.8432
11623TIP3   OH256283   4.601   6.057   0.113  0.4415  0.8436  0.2793
11623TIP3    H156284   4.656   6.047   0.191 -0.7212  0.7957  1.1115
11623TIP3    H256285   4.514   6.076   0.147  0.2174  2.4315 -1.0348
11624TIP3   OH256286   5.546   5.468   6.046 -0.2956  0.1206  0.1772
11624TIP3    H156287   5.568   5.551   6.004 -1.6864  0.1440 -0.5621
11624TIP3    H256288   5.468   5.487   6.097 -1.7697 -1.1181 -1.4898
11625TIP3   OH256289   0.447   6.175  11.270 -0.4319 -0.4186  0.1068
11625TIP3    H156290   0.520   6.233  11.291 -0.0496 -0.7977 -0.1587
11625TIP3    H256291   0.439   6.179  11.175  1.2895 -2.7504 -0.2440
11626TIP3   OH256292   1.580   1.216   6.301  0.4469  0.4791  0.0168
11626TIP3    H156293   1.582   1.173   6.387 -2.3998  1.1165  0.4965
11626TIP3    H256294   1.565   1.309   6.321  1.5001  0.9255 -1.1444
11627TIP3   OH256295   0.424   0.520  13.909  0.0783 -0.1016 -0.5845
11627TIP3    H156296   0.475   0.449  13.870 -0.2936 -0.6250 -0.1298
11627TIP3    H256297   0.477   0.550  13.983  0.5080  0.4960 -1.1225
11628TIP3   OH256298   0.531   1.808  15.316  0.1520  0.5474  0.3146
11628TIP3    H156299   0.438   1.832  15.316 -0.0122 -0.0115  1.1682
11628TIP3    H256300   0.577   1.891  15.308 -0.4223  0.9185  0.7503
11629TIP3   OH256301   3.226   2.556  16.333  0.2871  0.2685  0.4592
11629TIP3    H156302   3.282   2.562  16.409  1.0170  0.1616 -0.0565
11629TIP3    H256303   3.232   2.464  16.306  0.3302  0.3856  0.0582
11630TIP3   OH256304   4.564   1.860  11.379 -0.1575 -0.0940 -0.1105
11630TIP3    H156305   4.550   1.808  11.458 -0.7264 -0.1499 -0.2462
11630TIP3    H256306   4.653   1.894  11.388 -0.2763  0.0316  0.6278
11631TIP3   OH256307   6.020   4.289  17.091  0.5611 -0.1434  0.4080
11631TIP3    H156308   6.060   4.249  17.014 -0.5826 -1.0113  0.2337
11631TIP3    H256309   6.053   4.379  17.092  0.3624 -0.0282 -1.2755
11632TIP3   OH256310   3.197   1.189  13.642  0.2174  0.6330  0.0944
11632TIP3    H156311   3.185   1.283  13.627 -3.4705  0.6704  2.1370
11632TIP3    H256312   3.155   1.147  13.568  2.1636  0.4709 -0.9959
11633TIP3   OH256313   4.959   6.403  11.520 -0.3182 -0.0799 -0.1504
11633TIP3    H156314   4.906   6.482  11.528  0.6575  0.6494 -0.6379
11633TIP3    H256315   4.922   6.342  11.584  1.3725  2.1687  3.1890
11634TIP3   OH256316   0.020   3.280  15.160  0.0162 -0.0310 -0.5475
11634TIP3    H156317   0.110   3.266  15.190 -0.3964  1.6812  1.7728
11634TIP3    H256318  -0.030   3.210  15.202 -0.2812  1.3659  1.6421
11635TIP3   OH256319   0.927   1.727   5.303 -0.0807  0.2134  0.7978
11635TIP3    H156320   0.898   1.782   5.376 -1.2997  1.6108 -0.6629
11635TIP3    H256321   0.985   1.783   5.252  1.2067 -0.9289  0.9652
11636TIP3   OH256322   0.835   4.882   1.583  0.1888 -0.3762  0.2594
11636TIP3    H156323   0.852   4.853   1.673  0.5281  0.2110  0.3860
11636TIP3    H256324   0.921   4.911   1.551 -0.1730  0.6669  0.2000
11637TIP3   OH256325   3.958   4.517   3.193  0.1812  0.0544 -0.5424
11637TIP3    H156326   3.914   4.476   3.118  1.4916  0.0947 -1.3714
11637TIP3    H256327   3.890   4.523   3.260 -0.9516 -0.2751 -1.6121
11638TIP3   OH256328   6.579   0.885  12.812 -0.0966 -0.1638 -0.3686
11638TIP3    H156329   6.548   0.839  12.890 -0.0543  0.0518 -0.2229
11638TIP3    H256330   6.580   0.819  12.743  0.8403 -0.6009  0.0541
11639TIP3   OH256331   0.980   0.525   1.924 -0.4243 -0.6770 -0.7017
11639TIP3    H156332   1.015   0.510   2.012  0.6017  1.9381 -0.5697
11639TIP3    H256333   0.889   0.496   1.929 -0.0507 -1.7274  0.8267
11640TIP3   OH256334   6.573   1.148  11.789 -0.0692  0.3691 -0.1430
11640TIP3    H156335   6.579   1.063  11.747  0.2763 -0.6978  1.9183
11640TIP3    H256336   6.656   1.159  11.835 -1.2783  0.2970  2.2335
11641TIP3   OH256337   6.741   1.051   1.514  0.1293 -0.3269  0.1886
11641TIP3    H156338   6.810   1.095   1.564  0.4299  1.5507 -1.7322
11641TIP3    H256339   6.712   1.116   1.450 -2.7859 -1.3817  0.2777
11642TIP3   OH256340   5.911   3.270  14.842 -0.1395 -0.1132  0.1458
11642TIP3    H156341   5.816   3.278  14.852 -0.1236  0.2377  0.0131
11642TIP3    H256342   5.927   3.176  14.843 -0.5225 -0.1820 -0.1455
11643TIP3   OH256343   1.717   2.475  13.771  0.3252 -0.1954  0.2454
11643TIP3    H156344   1.797   2.476  13.720 -0.9710  0.5371 -1.9154
11643TIP3    H256345   1.726   2.546  13.834  1.0308  0.4439 -0.5613
11644TIP3   OH256346   5.988   2.426  15.553  0.0053 -0.0465  0.1429
11644TIP3    H156347   6.010   2.516  15.529  0.5776  0.2813  1.7577
11644TIP3    H256348   5.905   2.409  15.510 -0.6772  1.6614  0.7075
11645TIP3   OH256349   5.622   2.582  13.815 -0.0609 -0.0890  0.2916
11645TIP3    H156350   5.543   2.620  13.776 -1.1608 -1.2658  1.2690
11645TIP3    H256351   5.597   2.563  13.906  1.5520  0.0718  0.7968
11646TIP3   OH256352   5.753   3.683   2.954  0.4081 -0.4276  0.1169
11646TIP3    H156353   5.800   3.650   3.031  1.3832 -0.9266 -0.6687
11646TIP3    H256354   5.743   3.777   2.971 -0.2759 -0.6961  1.2933
11647TIP3   OH256355   4.701   2.881  13.697 -0.2284  0.3265  0.0027
11647TIP3    H156356   4.672   2.968  13.666 -1.0443 -0.1638 -0.6663
11647TIP3    H256357   4.677   2.879  13.789 -2.7543 -0.1751 -0.5838
11648TIP3   OH256358   1.699   4.015  13.630 -0.0749 -0.0315  0.2073
11648TIP3    H156359   1.654   4.081  13.684  3.2767  1.2054  1.7481
11648TIP3    H256360   1.690   3.934  13.680  0.3508  0.4475  1.0921
11649TIP3   OH256361   5.792   1.060  16.602  0.2062  0.0732  0.0521
11649TIP3    H156362   5.743   0.978  16.608 -1.8225  1.2992  1.3955
11649TIP3    H256363   5.797   1.092  16.692  2.3800  0.6995 -0.2196
11650TIP3   OH256364   0.087   2.195   5.589  0.0669 -0.4292  0.0192
11650TIP3    H156365   0.115   2.105   5.572  0.2372 -0.3620 -0.0646
11650TIP3    H256366  -0.007   2.189   5.603  0.3347 -0.8803  1.8070
11651TIP3   OH256367   1.833   0.352   0.117 -0.2597 -0.3085 -0.1101
11651TIP3    H156368   1.828   0.280   0.180 -0.8166 -0.3617 -0.2100
11651TIP3    H256369   1.903   0.327   0.057  0.5308 -0.0916  0.6936
11652TIP3   OH256370   5.617   6.657  15.515 -0.6588 -0.4816  0.3154
11652TIP3    H156371   5.558   6.732  15.519 -1.1297 -0.7834 -0.6877
11652TIP3    H256372   5.594   6.605  15.593 -0.8162  0.0461  0.6273
11653TIP3   OH256373   3.357   0.258  11.392  0.1300  0.0169 -0.2932
11653TIP3    H156374   3.333   0.168  11.368 -1.6212  0.5209 -0.5230
11653TIP3    H256375   3.351   0.307  11.310  0.5630  0.4641 -0.0631
11654TIP3   OH256376   0.552   1.711   3.871 -0.1845  0.9444  0.0109
11654TIP3    H156377   0.487   1.640   3.869  1.3398 -0.5626 -2.9933
11654TIP3    H256378   0.543   1.754   3.786  2.5165  0.8262 -0.4218
11655TIP3   OH256379   3.615   4.018  10.947  0.2035  0.4972  0.2212
11655TIP3    H156380   3.523   4.039  10.933  0.0508 -0.4887 -0.3597
11655TIP3    H256381   3.656   4.102  10.970 -0.9577  0.8232  1.1983
11656TIP3   OH256382   3.761   6.061  12.978  0.3131 -0.3614  0.3888
11656TIP3    H156383   3.699   6.133  12.982  0.3776 -0.1539 -1.4358
11656TIP3    H256384   3.757   6.021  13.064 -2.4504 -0.4497  0.3127
11657TIP3   OH256385   4.148   1.081  12.927  0.1506  0.3626 -0.5193
11657TIP3    H156386   4.140   1.088  12.832  0.5157 -0.5280 -0.6272
11657TIP3    H256387   4.235   1.116  12.947 -0.5739  2.1159 -0.3089
11658TIP3   OH256388   5.756   5.439   4.793 -0.2487  0.0528 -0.5658
11658TIP3    H156389   5.667   5.404   4.788 -1.0622  1.6147  1.5973
11658TIP3    H256390   5.810   5.364   4.818 -1.3839 -0.4326  0.5677
11659TIP3   OH256391   6.475   5.127   6.201  0.3338 -0.1402  0.2161
11659TIP3    H156392   6.551   5.177   6.228 -0.6254  1.2764  0.4073
11659TIP3    H256393   6.416   5.129   6.277 -0.4692 -0.0261 -0.3942
11660TIP3   OH256394   0.771   2.636  11.654 -0.3204 -0.1771  0.4237
11660TIP3    H156395   0.866   2.626  11.649 -0.5251 -1.9846 -2.8963
11660TIP3    H256396   0.754   2.663  11.744  3.5780  4.2972  0.2051
11661TIP3   OH256397   3.760   4.216   6.634  0.3161  0.6457 -0.0329
11661TIP3    H156398   3.674   4.222   6.593  0.0383  1.1444  0.6155
11661TIP3    H256399   3.790   4.127   6.613  0.1949  0.8873 -1.3168
11662TIP3   OH256400   2.062   5.403  16.002 -0.2031 -0.3454 -0.9242
11662TIP3    H156401   2.011   5.351  16.065  0.4705  1.5690  1.3387
11662TIP3    H256402   2.153   5.383  16.022  0.1301  2.4843  0.8689
11663TIP3   OH256403   2.103   2.119  15.977 -0.2807 -0.4613  0.4556
11663TIP3    H156404   2.076   2.209  15.995  1.2475 -0.2878  2.1756
11663TIP3    H256405   2.082   2.071  16.057  2.2375 -0.7949  1.0012
11664TIP3   OH256406   1.499   1.947   2.627 -0.6634 -0.2687 -0.6720
11664TIP3    H156407   1.433   2.009   2.595  0.1944 -0.2341 -2.5090
11664TIP3    H256408   1.583   1.986   2.601  0.0304 -0.9931  0.3925
11665TIP3   OH256409   6.549   3.021  16.474 -0.2673 -0.5344  0.9051
11665TIP3    H156410   6.519   3.055  16.558 -1.7685  3.4835 -0.9843
11665TIP3    H256411   6.640   3.051  16.467 -0.6532  0.6307  0.5168
11666TIP3   OH256412   6.272   5.356  10.664 -0.1289 -0.1739  0.4177
11666TIP3    H156413   6.339   5.413  10.702 -0.0341 -0.6365  0.9593
11666TIP3    H256414   6.319   5.276  10.641 -0.2036  0.0645 -0.6195
11667TIP3   OH256415   3.363   6.687  15.555 -0.9331  0.2862  0.5365
11667TIP3    H156416   3.378   6.766  15.504 -1.5172 -0.6203 -1.1190
11667TIP3    H256417   3.293   6.710  15.616 -2.2099  0.6368 -1.0043
11668TIP3   OH256418   4.251   2.977  15.138 -0.3302 -0.8580 -0.2398
11668TIP3    H156419   4.339   2.946  15.116  1.0113  2.4638 -0.2273
11668TIP3    H256420   4.244   2.964  15.232  0.6666 -0.0577 -0.0416
11669TIP3   OH256421   4.806   5.786   0.718 -0.0788  0.1667 -0.3328
11669TIP3    H156422   4.888   5.831   0.697 -0.6564  1.1979 -0.4363
11669TIP3    H256423   4.810   5.773   0.813 -0.4961  1.6877 -0.0815
11670TIP3   OH256424   5.171   4.573   2.147  0.1390 -0.4926 -0.1820
11670TIP3    H156425   5.130   4.499   2.102 -1.0993 -0.3030  0.6096
11670TIP3    H256426   5.113   4.646   2.130  1.9993  0.6615 -2.0445
11671TIP3   OH256427   4.308   4.780   2.493 -0.2226  0.1952  0.0413
11671TIP3    H156428   4.385   4.778   2.437  1.9509  2.4005  2.6342
11671TIP3    H256429   4.263   4.861   2.471  1.2572  1.6564  2.0145
11672TIP3   OH256430   3.822   3.073   4.509  0.1002 -0.5842  0.1135
11672TIP3    H156431   3.860   2.985   4.512 -0.9974 -1.1254 -0.8794
11672TIP3    H256432   3.874   3.124   4.571  1.8288 -1.5102 -0.4963
11673TIP3   OH256433   5.316   1.192  16.579 -0.0526 -0.2992  0.3592
11673TIP3    H156434   5.314   1.127  16.649 -0.3890 -1.1693 -0.4255
11673TIP3    H256435   5.400   1.177  16.536 -0.8064 -1.3625 -0.8304
11674TIP3   OH256436   3.445   3.059  16.796  0.5521 -0.5411 -0.6520
11674TIP3    H156437   3.414   2.975  16.831 -1.7187  0.4118 -0.1670
11674TIP3    H256438   3.384   3.124  16.832  3.5742  1.7046  0.9195
11675TIP3   OH256439   4.780   4.269  13.592 -0.0357  0.2486 -0.0987
11675TIP3    H156440   4.783   4.279  13.497  1.8210 -0.4271 -0.1558
11675TIP3    H256441   4.851   4.207  13.612 -0.2155  0.5740  1.7515
11676TIP3   OH256442   2.135   2.951   5.161 -0.0037 -0.3500 -0.1829
11676TIP3    H156443   2.211   2.948   5.103  0.8902 -0.2887  0.9586
11676TIP3    H256444   2.150   2.880   5.224 -0.2234  0.4995  0.8523
11677TIP3   OH256445   0.508   2.853   6.493 -0.3471 -0.1563 -0.3215
11677TIP3    H156446   0.479   2.921   6.432  0.3576 -2.4203 -3.3740
11677TIP3    H256447   0.426   2.814   6.526 -0.7350  0.6002 -0.3734
11678TIP3   OH256448   0.570   5.690   1.803 -0.2465  0.5388 -0.2449
11678TIP3    H156449   0.482   5.709   1.835 -0.2891  1.3347 -0.7875
11678TIP3    H256450   0.568   5.716   1.711  0.8646  1.6893  0.0164
11679TIP3   OH256451   5.290   3.150  16.532  0.5465  0.4459 -0.9681
11679TIP3    H156452   5.200   3.160  16.563  0.2435 -1.5309 -1.0676
11679TIP3    H256453   5.289   3.068  16.482  2.5794 -0.0785 -0.2391
11680TIP3   OH256454   4.333   4.306  13.684 -0.0905 -0.2298  0.3342
11680TIP3    H156455   4.324   4.324  13.778  0.2388  1.1769  0.1195
11680TIP3    H256456   4.396   4.234  13.679 -0.0299 -0.2416  1.1817
11681TIP3   OH256457   6.617   1.838  13.332  0.0941 -0.1175 -0.0330
11681TIP3    H156458   6.669   1.758  13.344 -2.2583 -1.6774  0.4398
11681TIP3    H256459   6.646   1.874  13.248  1.6748 -1.0864  0.0715
11682TIP3   OH256460   4.855   1.795   1.174  0.2611 -0.0354  0.3371
11682TIP3    H156461   4.835   1.782   1.266  2.0517 -0.5735  0.7001
11682TIP3    H256462   4.778   1.838   1.138  0.3635  2.2083  2.5523
11683TIP3   OH256463   3.179   3.544   2.847 -0.1800  0.9743 -0.2198
11683TIP3    H156464   3.164   3.638   2.836  1.0476  1.2673  0.4667
11683TIP3    H256465   3.131   3.521   2.926  0.7260  1.3461  0.4521
11684TIP3   OH256466   6.421   0.625  15.343 -0.1347 -0.0270 -0.1467
11684TIP3    H156467   6.371   0.669  15.411 -0.4750  0.0726 -0.4600
11684TIP3    H256468   6.366   0.552  15.314  0.9428 -1.4907  1.2646
11685TIP3   OH256469   3.664   1.742  16.295  0.1211 -0.1306  0.2349
11685TIP3    H156470   3.630   1.710  16.378  1.3781 -1.0725  0.4114
11685TIP3    H256471   3.701   1.665  16.252 -0.1514  0.4087 -1.0359
11686TIP3   OH256472   5.408   1.355   5.616  0.2946 -0.0769 -0.3873
11686TIP3    H156473   5.377   1.272   5.652 -1.0113  0.5822  0.1126
11686TIP3    H256474   5.339   1.380   5.554  0.9144  0.3963 -0.8866
11687TIP3   OH256475   2.470   5.143  12.579  0.3417  0.3341 -0.2011
11687TIP3    H156476   2.468   5.051  12.554  1.8051  0.4273 -0.7722
11687TIP3    H256477   2.390   5.181  12.542  0.5730 -0.3527 -1.4445
11688TIP3   OH256478   5.085   0.560   0.172  0.0417 -0.3613 -0.0297
11688TIP3    H156479   5.065   0.564   0.265  0.8073 -0.5362  0.1471
11688TIP3    H256480   5.139   0.481   0.162 -1.5607 -1.4211 -0.9154
11689TIP3   OH256481   1.700   4.994  11.046  0.2262  0.2332  0.0102
11689TIP3    H156482   1.679   4.953  11.130  0.6973  1.0753  0.5635
11689TIP3    H256483   1.621   5.041  11.021 -0.5763 -1.5390 -0.9976
11690TIP3   OH256484   5.241   6.019   6.472 -0.0766 -0.0522 -0.4919
11690TIP3    H156485   5.253   6.109   6.500 -0.2658 -0.1970  0.0773
11690TIP3    H256486   5.148   6.012   6.453  0.1881  0.2835 -2.0604
11691TIP3   OH256487   2.968   4.057  15.993 -0.0272  0.2420  0.1757
11691TIP3    H156488   2.978   3.962  15.987  1.0554  0.1792  2.2585
11691TIP3    H256489   2.940   4.084  15.905 -1.1599 -2.0778 -0.2420
11692TIP3   OH256490   3.229   0.801  13.956  0.4568 -0.5606 -0.0113
11692TIP3    H156491   3.155   0.740  13.954  1.2446 -1.5536 -1.7614
11692TIP3    H256492   3.189   0.888  13.947 -0.5192 -1.0668 -0.7695
11693TIP3   OH256493   1.401   3.414  16.651 -0.4724 -0.4203 -0.1278
11693TIP3    H156494   1.388   3.368  16.568  0.4966  1.1871 -1.2216
11693TIP3    H256495   1.487   3.455  16.642 -1.5961  2.2277  0.4574
11694TIP3   OH256496   0.089   0.600  13.997  0.4724  0.4812 -0.4322
11694TIP3    H156497   0.088   0.659  14.072 -3.7771 -0.5779  0.6216
11694TIP3    H256498   0.156   0.535  14.018  1.5695  1.9633  0.8572
11695TIP3   OH256499   3.102   5.230  16.980 -0.0103  0.6116  0.0409
11695TIP3    H156500   3.148   5.148  16.999  1.1010  1.4710  1.2871
11695TIP3    H256501   3.065   5.218  16.893  0.3317 -1.1149  0.1028
11696TIP3   OH256502   1.533   0.812   4.180 -0.1101  0.0757  0.7308
11696TIP3    H156503   1.627   0.828   4.176 -0.3733  2.9968  2.7090
11696TIP3    H256504   1.516   0.788   4.271 -1.3958  1.2115  0.8356
11697TIP3   OH256505   3.193   1.823  12.090 -0.1406 -0.0753 -0.7653
11697TIP3    H156506   3.227   1.735  12.103  1.5833  0.7418  0.6167
11697TIP3    H256507   3.099   1.815  12.107  0.1946 -1.3866  0.7465
11698TIP3   OH256508   4.564   4.265   0.814 -0.0967  0.4132 -0.3054
11698TIP3    H156509   4.590   4.327   0.882 -0.9221  0.3684  0.0667
11698TIP3    H256510   4.620   4.188   0.828 -0.9430 -0.0070  0.9993
11699TIP3   OH256511   4.742   1.798  16.251  0.0730  0.0404  0.1231
11699TIP3    H156512   4.667   1.782  16.308 -1.1728  1.1116 -1.1376
11699TIP3    H256513   4.761   1.891  16.262  2.0362 -0.4536  1.3287
11700TIP3   OH256514   1.586   5.911  16.986  0.4264  0.1845  0.4735
11700TIP3    H156515   1.550   5.823  16.975  0.7754 -0.0086  0.8524
11700TIP3    H256516   1.679   5.902  16.964  0.5989  0.3193  1.1290
11701TIP3   OH256517   3.837   2.281  11.714 -0.3617 -0.3895 -0.2630
11701TIP3    H156518   3.855   2.287  11.620  0.7428  0.2477 -0.0285
11701TIP3    H256519   3.790   2.362  11.734  1.6371  0.7468  0.1678
11702TIP3   OH256520   6.314   5.334  14.720  0.3190 -0.4312  0.2936
11702TIP3    H156521   6.392   5.388  14.705  0.3090 -0.1392  1.2326
11702TIP3    H256522   6.342   5.245  14.703  0.1683 -0.1079 -1.9519
11703TIP3   OH256523   0.778   2.962  10.650  0.0994 -0.5017  0.5189
11703TIP3    H156524   0.843   2.956  10.580 -0.0616  1.9080  0.0946
11703TIP3    H256525   0.797   3.045  10.694 -1.2064 -0.8936  1.9251
11704TIP3   OH256526   3.395   1.269   5.015  0.0987 -0.5937  0.0904
11704TIP3    H156527   3.435   1.291   4.931  2.0079  0.0952  1.1003
11704TIP3    H256528   3.459   1.212   5.058 -2.1075 -3.3676 -0.0085
11705TIP3   OH256529   1.451   6.719   3.973  0.3219  0.7737  0.0182
11705TIP3    H156530   1.477   6.650   4.034  1.2603 -0.0839 -1.2777
11705TIP3    H256531   1.363   6.743   3.999 -1.4380 -3.2569 -1.4351
11706TIP3   OH256532   5.825   5.581  15.392  0.5980 -0.0630 -0.1215
11706TIP3    H156533   5.919   5.567  15.405  0.6173 -0.3052 -0.5310
11706TIP3    H256534   5.808   5.552  15.303 -0.3280 -2.3297  0.7352
11707TIP3   OH256535   2.817   6.574  13.650 -0.2965  0.4183  0.1865
11707TIP3    H156536   2.810   6.514  13.724 -0.4497  1.0136  0.6694
11707TIP3    H256537   2.882   6.639  13.678  1.6870 -0.8031 -1.2540
11708TIP3   OH256538   2.609   5.947  16.120 -0.2551 -0.5554 -0.4202
11708TIP3    H156539   2.633   5.858  16.144  2.5070  0.1875 -0.1719
11708TIP3    H256540   2.688   5.985  16.082 -0.6394  2.4578  1.4069
11709TIP3   OH256541   4.777   4.191  14.289  0.0224  0.6768  0.4058
11709TIP3    H156542   4.711   4.123  14.291  0.0115  0.7066  1.6161
11709TIP3    H256543   4.743   4.256  14.227  0.2407 -0.5938 -1.0835
11710TIP3   OH256544   3.581   6.392  15.837 -0.0603  0.7741  0.2260
11710TIP3    H156545   3.555   6.406  15.746 -0.2636 -1.0514 -0.0303
11710TIP3    H256546   3.500   6.366  15.882 -0.0116  1.8751  1.0119
11711TIP3   OH256547   3.551   5.447  13.561 -0.6741  0.3680  0.4836
11711TIP3    H156548   3.475   5.397  13.529 -0.4483  0.2366  0.1399
11711TIP3    H256549   3.619   5.381  13.575 -0.4979  0.5302  0.4066
11712TIP3   OH256550   2.271   2.457   0.808 -0.1205  0.1873 -0.3135
11712TIP3    H156551   2.177   2.469   0.794 -0.7380 -2.6933  0.5623
11712TIP3    H256552   2.301   2.413   0.728  0.6348  1.5653 -0.8123
11713TIP3   OH256553   3.238   2.506  11.145  0.3371  0.9489  0.3580
11713TIP3    H156554   3.144   2.518  11.154  0.2679 -0.4455  2.0073
11713TIP3    H256555   3.260   2.547  11.061 -2.0215 -0.2710 -0.9635
11714TIP3   OH256556   2.525   0.337  14.796  0.2188  0.1947  0.2911
11714TIP3    H156557   2.527   0.242  14.795 -1.4778  0.1345 -0.8101
11714TIP3    H256558   2.552   0.363  14.708 -1.6818  0.6128 -0.2062
11715TIP3   OH256559   1.578   5.926  16.143  0.0594  0.0458  0.0091
11715TIP3    H156560   1.602   5.836  16.118  0.7548  0.2736 -0.1511
11715TIP3    H256561   1.501   5.946  16.089 -2.0021 -1.5284  2.1726
11716TIP3   OH256562   3.034   5.677   6.345 -0.2490 -0.2977  0.0530
11716TIP3    H156563   3.026   5.597   6.395 -0.9147 -1.0795 -1.2490
11716TIP3    H256564   2.998   5.656   6.259  0.2083  1.1890 -0.5478
11717TIP3   OH256565   3.366   2.494  12.119 -0.2115 -0.3768  0.9170
11717TIP3    H156566   3.296   2.482  12.055 -1.1949 -0.6307  2.0000
11717TIP3    H256567   3.390   2.405  12.145  0.2377 -0.2769  0.8457
11718TIP3   OH256568   0.180   0.733  14.212 -0.2641 -0.0804  0.0355
11718TIP3    H156569   0.154   0.693  14.295 -0.4126 -1.2561 -0.5576
11718TIP3    H256570   0.262   0.779  14.232 -0.0836 -0.6869  0.7331
11719TIP3   OH256571   3.552   1.938   5.121 -0.2450  0.6336  0.0416
11719TIP3    H156572   3.570   2.029   5.143 -1.4502  1.0258 -0.4854
11719TIP3    H256573   3.611   1.887   5.177 -0.0197  1.7114  0.8095
11720TIP3   OH256574   5.707   4.200  13.699  0.4580  0.1930  0.5684
11720TIP3    H156575   5.797   4.175  13.718 -0.0639 -2.0112  0.3787
11720TIP3    H256576   5.667   4.121  13.663 -1.6605  1.0167  0.9747
11721TIP3   OH256577   0.941   2.626  11.132 -0.1096 -0.1128  0.1539
11721TIP3    H156578   0.989   2.706  11.151 -2.3105  1.0094  1.2764
11721TIP3    H256579   0.890   2.647  11.053  0.6463 -1.0473 -0.6094
11722TIP3   OH256580   3.469   4.241  16.641  0.3668  0.5369  0.1490
11722TIP3    H156581   3.428   4.326  16.655  1.3078  0.8076  1.4254
11722TIP3    H256582   3.495   4.242  16.549 -1.0697  0.9536 -0.2846
11723TIP3   OH256583   5.428   4.065  13.595  0.3638 -0.3291  0.1047
11723TIP3    H156584   5.468   4.011  13.527 -0.0140 -0.4033 -0.0664
11723TIP3    H256585   5.353   4.106  13.551  1.2482  1.1682 -0.0742
11724TIP3   OH256586   0.616   3.956  14.264  0.3377 -0.2391  0.6676
11724TIP3    H156587   0.665   3.902  14.327  0.2683 -0.8923  0.1795
11724TIP3    H256588   0.674   4.030  14.246  1.0135 -0.8185  0.3756
11725TIP3   OH256589   3.408   2.710   0.033  0.5504 -0.9981  0.5576
11725TIP3    H156590   3.489   2.662   0.016  0.9847 -0.5014  1.1899
11725TIP3    H256591   3.350   2.645   0.072  0.9165 -1.1723  0.8232
11726TIP3   OH256592   5.472   4.887   5.072 -0.5480  0.2493 -0.1134
11726TIP3    H156593   5.450   4.834   5.149 -0.2783  1.1669  0.6199
11726TIP3    H256594   5.558   4.856   5.045 -0.5629  0.0495  0.0693
11727TIP3   OH256595   2.147   3.490   0.073 -0.2861 -0.0933 -0.2257
11727TIP3    H156596   2.068   3.458   0.029  1.2483 -0.8783 -2.6520
11727TIP3    H256597   2.171   3.569   0.023 -1.1077  1.9197  2.3674
11728TIP3   OH256598   4.199   2.226  17.174  0.4685  0.4681  0.1921
11728TIP3    H156599   4.247   2.151  17.140 -2.2223 -1.7723  0.9258
11728TIP3    H256600   4.219   2.227  17.268  0.3079  0.5178  0.2257
11729TIP3   OH256601   2.491   0.875  13.904  0.0650  0.7473  0.1806
11729TIP3    H156602   2.497   0.909  13.815 -1.7066  1.7710  0.3877
11729TIP3    H256603   2.411   0.821  13.903 -1.9294  3.4161  1.8519
11730TIP3   OH256604   4.623   3.614   2.045  0.3455 -0.6208 -0.9011
11730TIP3    H156605   4.544   3.573   2.009  0.5096 -1.7856 -0.0193
11730TIP3    H256606   4.695   3.568   2.003  0.5348 -1.8421  0.6547
11731TIP3   OH256607   2.647   2.451  12.932 -0.3756 -0.6600 -0.2099
11731TIP3    H156608   2.554   2.466  12.944 -0.5681 -1.0698 -1.1023
11731TIP3    H256609   2.657   2.433  12.839  0.4226 -1.8637  0.0846
11732TIP3   OH256610   1.792   6.270   0.791  0.5546  0.6776 -0.1805
11732TIP3    H156611   1.842   6.257   0.711 -0.0819  1.3621 -0.6945
11732TIP3    H256612   1.717   6.211   0.783 -0.4739  2.0341 -0.9334
11733TIP3   OH256613   3.517   6.441   1.130  0.0856 -0.4906  0.7184
11733TIP3    H156614   3.612   6.451   1.131  0.0870 -0.4843  1.6964
11733TIP3    H256615   3.497   6.410   1.042  1.0141 -0.6581  0.5559
11734TIP3   OH256616   3.823   4.785  14.172  0.0746  0.6925  0.4144
11734TIP3    H156617   3.840   4.693  14.190 -3.3685  0.0988  1.2676
11734TIP3    H256618   3.899   4.831  14.207  0.8269 -1.6521  2.0800
11735TIP3   OH256619   4.700   3.101  13.536  0.1211  0.4413 -0.4563
11735TIP3    H156620   4.763   3.048  13.489  0.5486 -1.5103  2.0916
11735TIP3    H256621   4.621   3.098  13.482  0.8133 -0.9688 -1.4482
11736TIP3   OH256622   1.275   2.144   3.638  0.4618  0.2884 -0.4049
11736TIP3    H156623   1.327   2.116   3.563  0.3030 -2.0139  0.2458
11736TIP3    H256624   1.184   2.136   3.608  0.4046 -0.4185 -0.0810
11737TIP3   OH256625   4.541   5.455  16.836  0.0075  0.2251  0.1579
11737TIP3    H156626   4.495   5.372  16.848  0.5202  0.0865  1.2845
11737TIP3    H256627   4.619   5.432  16.785 -0.7423  0.3297 -1.0701
11738TIP3   OH256628   2.377   5.983   6.039  0.1577 -0.6373 -0.0030
11738TIP3    H156629   2.366   5.910   6.099  1.5864 -1.1443 -0.3128
11738TIP3    H256630   2.404   6.057   6.094 -0.0266 -0.6877  0.1543
11739TIP3   OH256631   6.196   4.755   5.506  0.1295  0.2568 -0.1603
11739TIP3    H156632   6.243   4.789   5.430 -0.2262  0.7398 -0.1715
11739TIP3    H256633   6.245   4.677   5.532 -0.2704 -0.4626 -1.4490
11740TIP3   OH256634   0.782   4.077  12.391  0.3131  0.2361  0.2933
11740TIP3    H156635   0.789   4.044  12.301  0.8757 -0.1083  0.4562
11740TIP3    H256636   0.696   4.118  12.395 -0.5029 -1.3854  0.1449
11741TIP3   OH256637   5.750   3.038  16.414 -0.4026 -0.5023 -0.0868
11741TIP3    H156638   5.749   3.003  16.325 -1.4599 -1.8387  0.3973
11741TIP3    H256639   5.839   3.068  16.428 -0.2319 -0.2680 -1.5913
11742TIP3   OH256640   4.424   3.474   1.853  0.2070 -0.5043 -0.0043
11742TIP3    H156641   4.356   3.466   1.920 -0.1074  0.5268 -0.1910
11742TIP3    H256642   4.448   3.383   1.833  0.3281 -0.8405  1.5089
11743TIP3   OH256643   2.136   4.307  15.043 -0.2121 -0.1145 -0.0131
11743TIP3    H156644   2.106   4.294  15.133 -2.3352  0.7705 -0.5414
11743TIP3    H256645   2.214   4.363  15.052  0.1409 -0.7668  1.2962
11744TIP3   OH256646   0.727   0.872   5.777  0.5532  0.1149 -0.0470
11744TIP3    H156647   0.816   0.879   5.812  0.3912  1.2722  0.1777
11744TIP3    H256648   0.679   0.825   5.845  0.4193  1.6957  1.0005
11745TIP3   OH256649   6.403   4.296   2.381  0.3029  0.2487 -0.3846
11745TIP3    H156650   6.448   4.253   2.308 -1.1525  0.3390 -1.3557
11745TIP3    H256651   6.311   4.297   2.356 -0.0956  1.1859  1.0153
11746TIP3   OH256652   4.760   2.212   4.807  0.4209  0.2402 -0.1112
11746TIP3    H156653   4.683   2.170   4.846  0.7579  1.2281  1.7803
11746TIP3    H256654   4.819   2.139   4.785 -0.3918 -0.4392 -0.0750
11747TIP3   OH256655   3.767   2.633  16.093 -0.7655 -0.6532  0.5436
11747TIP3    H156656   3.858   2.618  16.116 -0.4536  0.1156 -0.1247
11747TIP3    H256657   3.770   2.670  16.005 -1.7065 -0.3496  0.6206
11748TIP3   OH256658   1.506   0.386  12.807 -0.5085 -0.2638  0.1003
11748TIP3    H156659   1.577   0.400  12.870  0.2133  1.0007 -0.9391
11748TIP3    H256660   1.514   0.459  12.746 -2.6718 -0.1350 -0.1073
11749TIP3   OH256661   0.520   5.862  15.948 -0.5431 -0.3274 -0.2152
11749TIP3    H156662   0.555   5.930  16.006 -1.2517  0.2676 -0.4664
11749TIP3    H256663   0.598   5.819  15.912 -0.0240  1.3680 -1.2253
11750TIP3   OH256664   1.494   1.447  13.819  0.7845  0.0787  0.1214
11750TIP3    H156665   1.578   1.407  13.798  0.4758  0.7786 -2.8075
11750TIP3    H256666   1.517   1.536  13.847  1.0631  0.1936 -0.4492
11751TIP3   OH256667   1.071   0.436  16.317 -0.2780  0.2769  0.3772
11751TIP3    H156668   1.018   0.424  16.239  1.4433  1.5643 -1.0671
11751TIP3    H256669   1.079   0.530  16.328 -0.2389  0.1302  1.9700
11752TIP3   OH256670   3.321   3.951   0.655 -0.0612 -0.2838  0.1315
11752TIP3    H156671   3.243   4.002   0.677 -0.7480 -0.7790 -1.1049
11752TIP3    H256672   3.306   3.921   0.566  1.1544 -1.1282  0.1914
11753TIP3   OH256673   1.791   1.919  10.848  0.1324  0.7682  0.0065
11753TIP3    H156674   1.831   1.992  10.895  0.4973  0.4659  0.1784
11753TIP3    H256675   1.861   1.853  10.842 -0.4398  0.0789  0.6467
11754TIP3   OH256676   6.657   0.148  13.899 -0.0569  0.5976  0.1858
11754TIP3    H156677   6.579   0.177  13.852 -1.0184  0.3525  1.5518
11754TIP3    H256678   6.658   0.202  13.979  0.6197 -0.0623  0.6343
11755TIP3   OH256679   2.693   1.841  14.893 -0.0050  0.0739  0.0093
11755TIP3    H156680   2.606   1.868  14.861  0.6066  1.5148 -0.5160
11755TIP3    H256681   2.741   1.819  14.814  0.5070  0.5539  0.1808
11756TIP3   OH256682   0.000   0.215  17.096  0.3164 -0.0696 -0.1863
11756TIP3    H156683   0.031   0.293  17.050  0.6696  0.4579  0.9019
11756TIP3    H256684  -0.082   0.193  17.053  0.1665  0.9603 -0.4648
11757TIP3   OH256685   6.587   5.033   1.383 -0.1702 -0.2847  0.2901
11757TIP3    H156686   6.597   5.128   1.390  0.4644 -0.3520  0.3023
11757TIP3    H256687   6.635   5.009   1.303 -2.8612 -0.2163 -1.4858
11758TIP3   OH256688   5.222   5.386  15.592  0.0760  0.4857  0.3128
11758TIP3    H156689   5.138   5.430  15.575  0.1971  0.1008 -1.4425
11758TIP3    H256690   5.283   5.457  15.609 -0.0921  0.9492 -0.8799
11759TIP3   OH256691   3.109   1.605  14.922 -0.4748 -0.2817  0.5692
11759TIP3    H156692   3.107   1.551  15.001 -0.2190  0.4736  1.0987
11759TIP3    H256693   3.055   1.681  14.942 -0.0536  0.1312  0.1771
11760TIP3   OH256694   6.015   2.236   0.264 -0.6547  0.0404 -0.5272
11760TIP3    H156695   5.953   2.166   0.244  1.6971 -2.7304  1.1573
11760TIP3    H256696   6.084   2.228   0.199 -0.0401  0.3301  0.0704
11761TIP3   OH256697   6.519   1.194   1.044  0.5222 -0.1322  0.4712
11761TIP3    H156698   6.562   1.263   1.095  1.9146 -1.1697  0.7810
11761TIP3    H256699   6.500   1.125   1.108  0.8079 -0.7776 -0.1212
11762TIP3   OH256700   0.561   6.431  15.182  0.0712  0.4180  0.0994
11762TIP3    H156701   0.587   6.432  15.090 -2.0114  2.2110 -0.5375
11762TIP3    H256702   0.643   6.417  15.230  1.1008 -1.2906 -1.9991
11763TIP3   OH256703   2.909   6.409  14.554 -0.4714  0.5776 -0.3557
11763TIP3    H156704   2.943   6.449  14.474  0.4796  0.3964 -0.0610
11763TIP3    H256705   2.987   6.377  14.600 -1.0412  0.2332  0.4050
11764TIP3   OH256706   6.350   0.349  17.346  0.6440 -0.0829  0.2811
11764TIP3    H156707   6.268   0.380  17.384  0.8189 -0.2475  0.7905
11764TIP3    H256708   6.368   0.410  17.274  1.1623  1.2179  1.4594
11765TIP3   OH256709   4.686   0.444   2.091 -0.3694  0.4163  0.0063
11765TIP3    H156710   4.626   0.374   2.064 -1.7126  1.8706 -0.9507
11765TIP3    H256711   4.677   0.510   2.022  0.9365  1.4851  0.8325
11766TIP3   OH256712   0.248   1.742  11.549 -0.1618 -0.6681 -0.2393
11766TIP3    H156713   0.332   1.718  11.588 -0.0964 -0.2312 -0.1056
11766TIP3    H256714   0.214   1.812  11.605  0.0420  0.1254 -1.0765
11767TIP3   OH256715   0.979   2.644   2.644 -0.2670 -0.0039  0.2609
11767TIP3    H156716   1.005   2.693   2.722  0.3096  0.7244 -0.3784
11767TIP3    H256717   0.903   2.692   2.610  0.5186  0.6799 -0.5686
11768TIP3   OH256718   0.760   4.601  13.547 -0.4094  0.3116 -0.0681
11768TIP3    H156719   0.850   4.621  13.574 -0.4735  0.6659 -0.1195
11768TIP3    H256720   0.713   4.683  13.556 -1.4385 -0.4867  2.6632
11769TIP3   OH256721   1.208   3.680  13.547 -0.4807  0.3541  0.2686
11769TIP3    H156722   1.182   3.591  13.524  1.5171 -0.5387  1.1843
11769TIP3    H256723   1.212   3.680  13.643  0.5619  1.0777  0.2446
11770TIP3   OH256724   0.535   6.199   2.952 -0.1141 -0.1290 -0.6013
11770TIP3    H156725   0.443   6.225   2.957  0.3586  1.3346  1.4801
11770TIP3    H256726   0.542   6.123   3.008 -0.4986 -1.8956 -2.8076
11771TIP3   OH256727   6.389   4.391  14.616 -0.4147  0.0138 -0.3667
11771TIP3    H156728   6.414   4.313  14.566 -1.2407  0.3087 -1.2737
11771TIP3    H256729   6.307   4.420  14.576 -1.4862 -0.1060  1.5804
11772TIP3   OH256730   0.414   4.687  16.216 -0.0299 -0.3794  0.0998
11772TIP3    H156731   0.365   4.706  16.135  0.8361 -2.3510 -0.9574
11772TIP3    H256732   0.349   4.690  16.285 -0.7380  1.7213 -0.5817
11773TIP3   OH256733   4.275   5.927   1.536  0.6062 -0.2752 -0.3503
11773TIP3    H156734   4.330   5.872   1.591  0.7797  0.7683  0.5433
11773TIP3    H256735   4.309   5.913   1.447  0.9208 -1.2580 -0.0956
11774TIP3   OH256736   3.538   1.295  17.283  0.0295  0.0554 -0.3222
11774TIP3    H156737   3.480   1.218  17.281 -1.8510  1.3590  0.7240
11774TIP3    H256738   3.626   1.258  17.289 -0.7139 -2.0210 -1.1798
11775TIP3   OH256739   1.661   1.416  12.667 -0.4751 -0.4797 -0.2566
11775TIP3    H156740   1.699   1.498  12.697 -0.7187  0.9563 -3.4183
11775TIP3    H256741   1.568   1.424  12.688 -0.7133  0.6743 -1.5644
11776TIP3   OH256742   5.008   0.379   0.542  0.1714  0.7030 -0.5381
11776TIP3    H156743   4.923   0.395   0.582  0.2195 -0.1125 -0.0928
11776TIP3    H256744   5.030   0.461   0.499  1.0441  2.3246  2.7584
11777TIP3   OH256745   2.428   0.189   4.265 -0.3824 -0.5351  0.3371
11777TIP3    H156746   2.462   0.260   4.209 -2.6650 -0.2472 -0.8109
11777TIP3    H256747   2.478   0.112   4.239 -0.2895 -0.0588 -1.0081
11778TIP3   OH256748   0.844   5.873  16.982  0.6555  0.2194 -0.5442
11778TIP3    H156749   0.804   5.954  17.014  2.8173 -0.3144  4.4354
11778TIP3    H256750   0.936   5.896  16.968  1.4456 -1.3255  1.5585
11779TIP3   OH256751   1.879   2.064   0.896 -0.3652  0.0214  0.5735
11779TIP3    H156752   1.892   2.070   0.802  0.3571  0.3126  0.6867
11779TIP3    H256753   1.874   1.970   0.913 -0.7994 -0.0251  0.2114
11780TIP3   OH256754   5.844   6.676   4.316 -0.5223 -0.6281  0.1329
11780TIP3    H156755   5.860   6.752   4.371 -0.8828  0.9246 -1.7839
11780TIP3    H256756   5.853   6.601   4.375  2.8856  0.6552  1.4853
11781TIP3   OH256757   3.584   5.570  12.613 -0.0978 -0.2224  0.3864
11781TIP3    H156758   3.663   5.615  12.642  0.1361 -0.6773  0.4686
11781TIP3    H256759   3.514   5.634  12.625  0.2919  0.2685  0.0788
11782TIP3   OH256760   2.249   2.404  13.992  0.0376  0.0004 -0.1653
11782TIP3    H156761   2.207   2.419  14.077  4.8551  1.2350  2.4038
11782TIP3    H256762   2.234   2.486  13.944 -1.3323 -0.0285  0.1851
11783TIP3   OH256763   2.408   1.516  15.057 -0.2473 -0.0254 -0.2683
11783TIP3    H156764   2.368   1.546  14.976  2.3006  0.3735 -1.5075
11783TIP3    H256765   2.371   1.571  15.125  0.2574  2.2707 -1.7207
11784TIP3   OH256766   1.794   1.719  12.163 -0.4342 -0.1078  0.1521
11784TIP3    H156767   1.883   1.746  12.188 -0.5870  0.3885  0.1546
11784TIP3    H256768   1.796   1.623  12.172  0.0987 -0.1036  0.1567
11785TIP3   OH256769   3.222   1.374   1.954 -0.2867 -0.0540  0.5774
11785TIP3    H156770   3.279   1.413   2.020 -0.1733  0.4284  0.2063
11785TIP3    H256771   3.272   1.379   1.873 -0.3722 -0.7665  0.4755
11786TIP3   OH256772   3.643   1.759  13.221  0.2463 -0.2917 -0.3083
11786TIP3    H156773   3.689   1.842  13.229  0.5396 -0.4770 -0.0109
11786TIP3    H256774   3.591   1.752  13.301 -0.2128 -0.1375 -0.5906
11787TIP3   OH256775   6.081   0.447  17.352 -0.1969  0.5595 -0.4345
11787TIP3    H156776   6.118   0.535  17.341 -0.4978  0.5618 -1.4969
11787TIP3    H256777   5.989   0.463  17.375 -0.4447  0.5295 -1.3645
11788TIP3   OH256778   1.845   3.342  11.779 -0.2758  0.5710 -0.1839
11788TIP3    H156779   1.831   3.326  11.686 -1.2465 -2.1099  0.3288
11788TIP3    H256780   1.889   3.427  11.782 -0.5941  0.9498 -3.0337
11789TIP3   OH256781   5.133   1.744   3.317  0.7109  0.1456 -0.1027
11789TIP3    H156782   5.141   1.651   3.338  0.8984  0.1058 -0.3415
11789TIP3    H256783   5.159   1.790   3.397  0.9629 -0.0065 -0.0976
11790TIP3   OH256784   1.732   4.552  16.929  0.7763 -0.3302  0.1152
11790TIP3    H156785   1.643   4.517  16.920  0.1731  1.1728 -0.1130
11790TIP3    H256786   1.744   4.565  17.023 -0.6307  2.7070 -0.0203
11791TIP3   OH256787   2.055   1.087   2.413 -0.0037  0.3680  0.1674
11791TIP3    H156788   2.052   1.002   2.456  1.7473  0.6783  0.9618
11791TIP3    H256789   1.965   1.102   2.383 -0.7342 -0.9409  1.5924
11792TIP3   OH256790   0.465   4.568   1.679 -0.5118 -0.4011 -0.1498
11792TIP3    H156791   0.507   4.530   1.601 -1.5542 -1.6976 -0.1193
11792TIP3    H256792   0.537   4.607   1.729  0.0573  1.5309 -2.3004
11793TIP3   OH256793   3.180   6.722  13.305  0.0928  0.1292 -0.0775
11793TIP3    H156794   3.149   6.656  13.367  2.4322 -2.6012 -1.5675
11793TIP3    H256795   3.239   6.777  13.356 -0.8722  0.3144  0.8877
11794TIP3   OH256796   0.120   4.978  16.233 -0.2116  0.1379 -0.0740
11794TIP3    H156797   0.173   4.991  16.311 -0.8516  0.1526  0.3645
11794TIP3    H256798   0.162   4.905  16.188 -0.4782 -0.6036  0.8524
11795TIP3   OH256799   6.116   2.607   3.736 -0.2243 -0.1259  0.1395
11795TIP3    H156800   6.185   2.572   3.681 -0.3672  2.3625 -1.7921
11795TIP3    H256801   6.145   2.589   3.826  1.5614 -1.5127 -0.6686
11796TIP3   OH256802   4.418   6.396  13.166 -0.1771  0.3334 -0.2990
11796TIP3    H156803   4.424   6.463  13.098  0.0594  0.4908 -0.1246
11796TIP3    H256804   4.337   6.416  13.213 -2.8122 -2.3059 -3.2105
11797TIP3   OH256805   0.103   4.498   5.197  0.4122  0.1005 -0.6337
11797TIP3    H156806   0.185   4.544   5.179 -0.0946  0.7837 -1.2936
11797TIP3    H256807   0.037   4.568   5.199 -0.1023 -0.3893  0.2745
11798TIP3   OH256808   2.235   4.327   1.172 -0.4170  0.1721  0.1449
11798TIP3    H156809   2.148   4.368   1.174 -1.4578 -1.8848  0.8319
11798TIP3    H256810   2.251   4.308   1.079 -0.8120  0.3855  0.0319
11799TIP3   OH256811   1.649   4.521   2.990 -0.5616 -0.1210 -0.0671
11799TIP3    H156812   1.726   4.465   2.997 -1.6629 -2.0071 -1.9202
11799TIP3    H256813   1.578   4.469   3.028 -1.1170  1.1961  0.7510
11800TIP3   OH256814   1.861   0.630   5.103  0.0460  0.5238 -0.0481
11800TIP3    H156815   1.925   0.601   5.038 -0.9281 -0.1377 -0.7242
11800TIP3    H256816   1.783   0.577   5.087 -0.1189  0.0982  1.8817
11801TIP3   OH256817   3.919   6.237  14.852 -0.3609  0.1198  0.5048
11801TIP3    H156818   3.958   6.248  14.765 -2.4705 -0.7638 -0.6408
11801TIP3    H256819   3.842   6.294  14.851 -0.4502  0.0504  1.7852
11802TIP3   OH256820   3.676   4.480   4.544 -0.2783 -0.3884  0.3247
11802TIP3    H156821   3.617   4.483   4.620 -1.5268 -0.6390 -0.5949
11802TIP3    H256822   3.659   4.562   4.498  2.5408  1.1334  1.7375
11803TIP3   OH256823   2.332   5.679   4.044 -0.3700 -0.1327 -0.1676
11803TIP3    H156824   2.360   5.754   3.992  1.5930  0.2949  1.3617
11803TIP3    H256825   2.328   5.713   4.134  2.6803 -2.2063  0.9269
11804TIP3   OH256826   5.692   0.510  15.133  0.1948 -0.3755 -0.1791
11804TIP3    H156827   5.716   0.465  15.053  0.1662  0.8716 -0.9112
11804TIP3    H256828   5.610   0.468  15.160 -0.6361  0.2086 -1.6677
11805TIP3   OH256829   1.668   6.320  11.804 -0.4808 -0.2596  0.0165
11805TIP3    H156830   1.578   6.351  11.795 -0.4749 -0.7424 -2.4565
11805TIP3    H256831   1.715   6.364  11.733  0.6263 -2.0590 -0.4146
11806TIP3   OH256832   6.465   0.019  11.450  0.2341  0.0291  0.2365
11806TIP3    H156833   6.471   0.100  11.502  3.1669  0.7595 -1.0341
11806TIP3    H256834   6.521   0.035  11.374 -0.4266 -2.6275 -0.9240
11807TIP3   OH256835   6.087   2.638  11.640  0.4554  0.3944  0.3585
11807TIP3    H156836   6.003   2.670  11.674  0.7136  2.8160 -1.0778
11807TIP3    H256837   6.086   2.545  11.660 -1.4871  0.7810  2.5893
11808TIP3   OH256838   0.334   4.501   0.192  0.6743  0.5300 -0.2733
11808TIP3    H156839   0.388   4.512   0.114  3.5327  0.5558  1.5292
11808TIP3    H256840   0.302   4.589   0.212 -2.6714  0.1007 -2.9423
11809TIP3   OH256841   4.165   0.763   5.912  0.1768 -0.0161 -0.6119
11809TIP3    H156842   4.239   0.815   5.881  0.7383 -0.2263  0.3396
11809TIP3    H256843   4.087   0.810   5.882  0.6819 -0.1815 -2.2805
11810TIP3   OH256844   1.095   3.390  13.997 -0.2805 -0.6800 -0.0522
11810TIP3    H156845   1.018   3.387  14.053  0.1787 -0.0390  0.6298
11810TIP3    H256846   1.060   3.385  13.908 -1.0751 -0.8150  0.2619
11811TIP3   OH256847   3.411   1.295   0.708  0.5923  0.1612 -0.0802
11811TIP3    H156848   3.463   1.367   0.743  1.1170 -0.0855 -0.3480
11811TIP3    H256849   3.368   1.257   0.786  0.7674  0.3986  0.1340
11812TIP3   OH256850   2.552   2.085  15.457  0.9558  0.0280 -0.1202
11812TIP3    H156851   2.491   2.074  15.384  0.5487  0.4514  0.1529
11812TIP3    H256852   2.563   2.179  15.466  1.9864 -0.0510 -0.4339
11813TIP3   OH256853   4.253   1.060   3.442  0.2976 -0.3185  0.4043
11813TIP3    H156854   4.216   1.026   3.360  0.9931 -2.3718  0.8664
11813TIP3    H256855   4.278   0.982   3.491  0.1938  0.8658  2.4712
11814TIP3   OH256856   0.121   0.317  12.277 -0.3008  0.2084  0.5528
11814TIP3    H156857   0.152   0.407  12.283 -1.3991  0.5162  2.1176
11814TIP3    H256858   0.034   0.318  12.315 -1.6164 -0.9619 -2.1352
11815TIP3   OH256859   4.906   0.575  12.259 -0.1877  0.0946 -0.3774
11815TIP3    H156860   4.883   0.563  12.351 -0.4718 -2.2220 -0.6963
11815TIP3    H256861   4.862   0.503  12.213  0.2560  0.9687 -2.2762
11816TIP3   OH256862   3.220   4.886  14.813 -0.1903 -0.1117 -0.1317
11816TIP3    H156863   3.273   4.824  14.863 -0.0090 -2.5453 -3.0019
11816TIP3    H256864   3.148   4.833  14.779 -1.1428  1.7434 -1.1517
11817TIP3   OH256865   1.513   2.898   4.122 -0.3904  0.2859  0.7129
11817TIP3    H156866   1.445   2.953   4.083 -0.8082  0.1121  1.2038
11817TIP3    H256867   1.563   2.957   4.178 -1.1011  0.0764  1.5717
11818TIP3   OH256868   4.981   2.005   3.362  0.0240  0.4432 -0.5332
11818TIP3    H156869   5.038   1.968   3.294  0.3927 -0.4300  0.2153
11818TIP3    H256870   5.005   1.956   3.441  0.2202  2.0265  0.4222
11819TIP3   OH256871   0.026   1.191   2.474 -0.1243  0.0904  0.1767
11819TIP3    H156872  -0.064   1.222   2.487  0.1815  1.1575 -0.1554
11819TIP3    H256873   0.058   1.243   2.400  0.9135  0.0324  0.5758
11820TIP3   OH256874   2.639   5.390  17.041  0.0783 -0.2231 -0.3094
11820TIP3    H156875   2.732   5.400  17.059 -0.4462  2.2234  1.5156
11820TIP3    H256876   2.598   5.390  17.128 -1.6823 -0.5618 -1.1067
11821TIP3   OH256877   3.777   0.045  15.538  0.1815 -0.3252 -0.3469
11821TIP3    H156878   3.863   0.003  15.541  0.8735  1.0933  0.6768
11821TIP3    H256879   3.725  -0.004  15.602  1.1466  0.6607  1.2642
11822TIP3   OH256880   4.138   5.537  17.178  0.0263 -0.6364  0.0454
11822TIP3    H156881   4.192   5.461  17.201 -1.9806 -2.2102 -0.2123
11822TIP3    H256882   4.126   5.584  17.261  2.1326  0.0444  0.0245
11823TIP3   OH256883   2.844   3.681   3.118  0.4557  0.2583 -0.4407
11823TIP3    H156884   2.751   3.669   3.101  0.2574 -0.3230  0.9146
11823TIP3    H256885   2.848   3.738   3.195  1.1669 -0.5038  0.1219
11824TIP3   OH256886   4.447   1.585   2.535 -0.2673 -0.0603  0.0648
11824TIP3    H156887   4.475   1.511   2.483 -0.9179 -1.4566  1.5862
11824TIP3    H256888   4.354   1.567   2.554 -0.0880  0.4272  1.5676
11825TIP3   OH256889   0.239   0.396   1.376  0.0831  0.4843  0.3645
11825TIP3    H156890   0.238   0.364   1.286 -2.5097 -1.1741  0.8524
11825TIP3    H256891   0.232   0.491   1.368 -0.8269  0.3210 -1.2235
11826TIP3   OH256892   0.189   5.708   2.750  0.4351  0.3775 -0.0186
11826TIP3    H156893   0.281   5.683   2.757  0.0599 -1.2563 -0.5173
11826TIP3    H256894   0.172   5.709   2.656  0.0494  1.1292  0.0502
11827TIP3   OH256895   5.236   4.617  11.994 -0.1045  0.7761  0.4422
11827TIP3    H156896   5.160   4.579  12.038 -0.6530  2.3126  0.9053
11827TIP3    H256897   5.311   4.584  12.042 -0.6154  1.0961  1.4815
11828TIP3   OH256898   5.321   1.094  15.826  0.1489  0.4871  0.0152
11828TIP3    H156899   5.271   1.077  15.905 -0.6574 -0.7345 -0.7133
11828TIP3    H256900   5.266   1.061  15.755  1.3220  0.5172 -0.9526
11829TIP3   OH256901   1.169   0.749  16.023  0.2398 -0.2925 -0.6586
11829TIP3    H156902   1.095   0.805  15.998 -0.7577 -1.2326  0.0619
11829TIP3    H256903   1.247   0.798  15.995 -0.5783  1.4158 -0.1150
11830TIP3   OH256904   3.510   5.102   3.426  0.2063  0.2324  0.6385
11830TIP3    H156905   3.490   5.183   3.473 -0.5260 -1.4307  3.4567
11830TIP3    H256906   3.434   5.087   3.370 -0.1335  0.9789  0.8947
11831TIP3   OH256907   3.768   1.380   6.439 -0.0257 -0.3284 -0.2000
11831TIP3    H156908   3.694   1.366   6.497 -0.1609  1.4180  0.1032
11831TIP3    H256909   3.821   1.300   6.447 -0.1955 -0.2670  2.1022
11832TIP3   OH256910   0.650   3.867  16.860  0.0344 -0.4223  0.4514
11832TIP3    H156911   0.671   3.945  16.809  0.3243 -0.0412  1.1395
11832TIP3    H256912   0.659   3.894  16.951 -0.5562 -1.0673  0.7160
11833TIP3   OH256913   0.804   2.259  15.563  0.5557  0.0212 -0.0083
11833TIP3    H156914   0.761   2.275  15.479  1.0050  2.8753  0.1944
11833TIP3    H256915   0.873   2.325  15.567  0.9280 -0.4302  2.3449
11834TIP3   OH256916   2.457   6.572   0.467  0.3803  0.5655 -0.0283
11834TIP3    H156917   2.451   6.511   0.394 -1.8487  0.7358 -0.0555
11834TIP3    H256918   2.530   6.630   0.444  1.1892 -0.7860 -0.9832
11835TIP3   OH256919   0.521   1.873   2.716  0.4627  0.1263 -0.3282
11835TIP3    H156920   0.542   1.872   2.810 -1.0663 -0.3306  0.0262
11835TIP3    H256921   0.527   1.965   2.691 -0.6243  0.4594  0.5842
11836TIP3   OH256922   5.018   4.077   4.746 -0.4042 -0.0964 -0.3917
11836TIP3    H156923   4.975   4.007   4.795  0.3546 -0.3980 -0.1462
11836TIP3    H256924   4.949   4.142   4.733 -0.8222 -0.3557  0.4050
11837TIP3   OH256925   6.418   1.321   0.751 -0.1142 -0.4418  0.3812
11837TIP3    H156926   6.484   1.273   0.800 -0.8316 -0.8867  0.9310
11837TIP3    H256927   6.380   1.382   0.815  1.3449  1.4730 -0.4962
11838TIP3   OH256928   2.454   5.903  12.448 -0.0845  0.4071  0.3724
11838TIP3    H156929   2.437   5.833  12.511 -1.1161 -1.1531 -1.5320
11838TIP3    H256930   2.367   5.940  12.429 -0.0444 -0.2638 -1.3024
11839TIP3   OH256931   2.690   2.580  16.205 -0.4548 -0.2881  0.1544
11839TIP3    H156932   2.649   2.584  16.119  2.4679 -0.1157 -1.3448
11839TIP3    H256933   2.751   2.506  16.200  0.2466  0.1206  1.8454
11840TIP3   OH256934   5.511   5.901  15.675 -0.6210 -0.4519 -0.4720
11840TIP3    H156935   5.430   5.938  15.709 -0.4515 -2.0100  1.8331
11840TIP3    H256936   5.552   5.858  15.750  0.9991 -2.0552 -2.1436
11841TIP3   OH256937   1.822   0.930  17.190  0.0854 -0.9833 -0.8244
11841TIP3    H156938   1.905   0.907  17.231  0.5313 -0.8507 -1.6466
11841TIP3    H256939   1.833   0.907  17.098 -0.7067 -0.7416 -0.9883
11842TIP3   OH256940   0.953   4.562   0.445  0.3235 -0.6092 -0.0852
11842TIP3    H156941   0.875   4.599   0.487  0.2299 -0.0452 -0.7351
11842TIP3    H256942   1.017   4.552   0.516 -0.2979 -0.9696  0.4303
11843TIP3   OH256943   1.656   6.276  14.603 -0.7275 -0.2926  0.7103
11843TIP3    H156944   1.618   6.197  14.565  0.0721  0.2011 -1.2868
11843TIP3    H256945   1.746   6.278  14.570 -0.9088  1.7371  0.1741
11844TIP3   OH256946   0.127   4.921   0.768  0.0384  0.0863  0.1755
11844TIP3    H156947   0.110   4.861   0.841  0.8688  1.3648  1.4665
11844TIP3    H256948   0.041   4.961   0.750 -0.2035 -0.3514  0.3473
11845TIP3   OH256949   0.768   3.892  12.122  0.3586  0.1763 -0.1982
11845TIP3    H156950   0.776   3.850  12.036  0.2516  0.3949 -0.3157
11845TIP3    H256951   0.717   3.971  12.106 -0.6157 -0.3433  0.2602
11846TIP3   OH256952   5.833   3.493  13.492 -0.2114  0.0181 -0.3282
11846TIP3    H156953   5.918   3.469  13.456 -0.1287 -0.8141  0.3976
11846TIP3    H256954   5.791   3.410  13.515 -1.8510  0.3057 -2.0347
11847TIP3   OH256955   2.976   3.764   3.702 -0.1251 -0.1203 -0.2446
11847TIP3    H156956   2.881   3.778   3.699  0.0304  1.5744  1.1086
11847TIP3    H256957   3.001   3.791   3.791  1.5225 -1.3475 -0.2970
11848TIP3   OH256958   2.065   4.897  14.908 -0.8070 -0.3344  0.3648
11848TIP3    H156959   2.154   4.928  14.891 -0.9537 -0.3955 -0.6032
11848TIP3    H256960   2.048   4.919  14.999 -0.1164  0.4576  0.3100
11849TIP3   OH256961   6.350   2.929   5.765  0.3161  0.5983  0.2743
11849TIP3    H156962   6.343   2.852   5.821  0.1031  1.1242  0.9734
11849TIP3    H256963   6.347   2.893   5.676 -1.6835 -0.0817  0.5575
11850TIP3   OH256964   3.652   5.456   2.698  0.0015 -0.0155  0.5065
11850TIP3    H156965   3.604   5.493   2.771  0.2256  0.6274  0.3353
11850TIP3    H256966   3.739   5.496   2.702  0.1806 -0.3516  0.1828
11851TIP3   OH256967   6.587   6.656  14.719 -0.1295 -0.4314 -0.3737
11851TIP3    H156968   6.540   6.718  14.662  0.4466  0.7142  0.3627
11851TIP3    H256969   6.679   6.677  14.706  0.0446 -0.7406  0.3339
11852TIP3   OH256970   2.116   5.882  12.919  0.4652 -0.1305 -0.1502
11852TIP3    H156971   2.115   5.970  12.881 -1.4357  0.3612  0.8954
11852TIP3    H256972   2.206   5.852  12.908  1.0886  1.8211 -0.7985
11853TIP3   OH256973   5.075   3.554   3.614  0.4230 -0.1725 -0.0653
11853TIP3    H156974   5.050   3.574   3.705 -0.1669  0.4139 -0.3454
11853TIP3    H256975   5.017   3.608   3.561  1.5382  0.3679 -0.7773
11854TIP3   OH256976   4.639   0.866  14.249 -0.1210 -0.4214 -0.4691
11854TIP3    H156977   4.545   0.862  14.228 -0.0217 -2.1391 -0.6664
11854TIP3    H256978   4.642   0.864  14.344 -0.2986  0.4753 -0.4332
11855TIP3   OH256979   3.499   5.092   0.863  0.2473 -0.4297  0.0004
11855TIP3    H156980   3.528   5.082   0.954 -2.0808 -0.0869  0.8273
11855TIP3    H256981   3.476   5.003   0.836  1.4882 -0.6255 -0.4987
11856TIP3   OH256982   4.183   1.100   4.037 -0.5661  0.3090 -0.1408
11856TIP3    H156983   4.241   1.034   3.998  0.8929  0.5141  1.5534
11856TIP3    H256984   4.224   1.122   4.121 -2.5685  1.2527  0.6667
11857TIP3   OH256985   5.920   5.392  11.850  0.3927  0.0007  0.1461
11857TIP3    H156986   6.012   5.417  11.844  0.1924  0.4891 -1.6365
11857TIP3    H256987   5.911   5.350  11.936  1.9387  1.2663  0.9731
11858TIP3   OH256988   4.098   2.294  16.499 -0.1288 -0.0681 -0.2497
11858TIP3    H156989   4.065   2.275  16.587  1.0262  0.2136  0.2656
11858TIP3    H256990   4.165   2.360  16.513  0.2176 -0.1780 -1.3303
11859TIP3   OH256991   3.746   2.592   0.712  0.1306  0.4171 -0.1021
11859TIP3    H156992   3.784   2.504   0.707  0.2032  0.4881 -1.1580
11859TIP3    H256993   3.654   2.581   0.687  0.1066  0.6134 -0.1082
11860TIP3   OH256994   4.244   4.552  12.994 -0.5357 -0.3922  0.3345
11860TIP3    H156995   4.314   4.563  13.058 -0.4183 -2.4296  0.6340
11860TIP3    H256996   4.288   4.547  12.910 -0.4176 -0.6228  0.4099
11861TIP3   OH256997   1.339   1.528  13.141  0.0994 -0.2946  0.7512
11861TIP3    H156998   1.265   1.545  13.198  0.9179 -1.0681  2.0858
11861TIP3    H256999   1.308   1.462  13.079  0.3137 -2.4139  2.7804
11862TIP3   OH257000   0.125   3.390  17.278 -0.0622 -0.6419  0.5270
11862TIP3    H157001   0.055   3.339  17.237 -1.5522  0.9836  0.9070
11862TIP3    H257002   0.184   3.325  17.316 -1.9159 -2.0864  1.0817
11863TIP3   OH257003   5.664   6.033   1.683  0.2630  0.1771  0.0895
11863TIP3    H157004   5.734   6.098   1.692  1.2563 -0.5520 -1.8226
11863TIP3    H257005   5.696   5.956   1.729  0.2776  0.1751  0.0764
11864TIP3   OH257006   4.534   6.197   2.543  0.1157  0.1511 -0.4632
11864TIP3    H157007   4.500   6.178   2.630  0.3408 -1.4003 -0.6787
11864TIP3    H257008   4.565   6.112   2.510  1.6817  1.0047 -1.3408
11865TIP3   OH257009   4.871   5.432   4.611  0.0458 -0.0438  0.2615
11865TIP3    H157010   4.853   5.396   4.524  3.0785 -0.1444 -0.4468
11865TIP3    H257011   4.808   5.503   4.621 -2.4051 -1.9565 -0.6629
11866TIP3   OH257012   4.388   2.252   2.776  0.2667  0.1543  0.1253
11866TIP3    H157013   4.455   2.188   2.751 -0.3310 -1.4856  2.3978
11866TIP3    H257014   4.320   2.200   2.818 -1.7688  1.9597 -0.7503
11867TIP3   OH257015   0.891   5.665   0.476  0.0748 -0.0666  0.3183
11867TIP3    H157016   0.942   5.746   0.471  0.4897 -0.3748 -0.9214
11867TIP3    H257017   0.915   5.627   0.561  2.6045 -0.6133 -0.5353
11868TIP3   OH257018   6.543   4.920   5.012  0.6040  0.7397  0.6222
11868TIP3    H157019   6.484   4.864   4.961  2.5312  0.8995 -1.9736
11868TIP3    H257020   6.529   5.008   4.977  0.6605  1.1847  1.6898
11869TIP3   OH257021   3.570   3.013   3.156 -0.2282  0.3461  0.3965
11869TIP3    H157022   3.561   3.059   3.072 -2.1344  0.7554  0.7678
11869TIP3    H257023   3.507   2.940   3.149  0.8339 -0.6348  0.8375
11870TIP3   OH257024   3.897   6.218   3.921 -0.1658  0.1109  0.3163
11870TIP3    H157025   3.863   6.134   3.891  1.1684 -0.9405  1.6479
11870TIP3    H257026   3.821   6.276   3.918 -1.4678 -1.4985  0.7355
11871TIP3   OH257027   5.704   0.037   1.660 -0.3753 -0.1046  0.4538
11871TIP3    H157028   5.711   0.063   1.569  0.2696 -2.4831 -0.2601
11871TIP3    H257029   5.621  -0.011   1.665  0.0554 -0.8360  0.8414
11872TIP3   OH257030   2.479   3.986  15.404 -0.4831  0.1154  0.0249
11872TIP3    H157031   2.440   3.921  15.346  0.3846  1.2314 -1.9187
11872TIP3    H257032   2.550   3.939  15.449  0.1223 -0.3006 -1.3271
11873TIP3   OH257033   5.501   4.069   4.284 -0.7494 -0.0916 -0.0814
11873TIP3    H157034   5.538   4.142   4.233 -1.0332 -0.6287 -1.0917
11873TIP3    H257035   5.545   3.992   4.251 -0.8571 -0.4446  0.5890
11874TIP3   OH257036   3.215   4.456  16.427  0.6529  0.7850  0.1871
11874TIP3    H157037   3.263   4.529  16.386  2.2692 -0.8302 -0.9344
11874TIP3    H257038   3.268   4.433  16.503  0.8492 -0.0426 -0.1966
11875TIP3   OH257039   3.864   1.150   5.088  0.1149 -0.3786 -0.3472
11875TIP3    H157040   3.914   1.136   5.008  0.2226 -3.4377  0.1533
11875TIP3    H257041   3.923   1.125   5.158 -0.4076  1.0325  0.6427
11876TIP3   OH257042   2.218   2.914  16.568 -0.1988 -0.1752  0.3178
11876TIP3    H157043   2.280   2.863  16.516 -1.0917 -0.4556 -0.4972
11876TIP3    H257044   2.172   2.969  16.504 -0.6003  0.2326  0.9465
11877TIP3   OH257045   5.951   5.918   2.993 -0.1965 -0.0341 -0.7948
11877TIP3    H157046   6.009   5.993   2.976  0.4174 -0.6445 -1.4291
11877TIP3    H257047   5.866   5.945   2.958 -0.3948  0.9789  0.3769
11878TIP3   OH257048   2.795   4.748   4.097 -0.6440 -0.3811  0.1848
11878TIP3    H157049   2.884   4.766   4.127 -0.9922  0.3267  0.8448
11878TIP3    H257050   2.806   4.696   4.017  0.3249 -1.4802  1.0094
11879TIP3   OH257051   3.453   4.344   2.743 -0.2396 -0.6586  0.0010
11879TIP3    H157052   3.548   4.332   2.742 -0.3866 -2.0980  0.5426
11879TIP3    H257053   3.418   4.262   2.708 -1.2679  0.4912 -1.8589
11880TIP3   OH257054   3.075   6.065  13.056  0.0255 -0.0473  0.3139
11880TIP3    H157055   3.148   6.088  13.113  1.1861 -0.4308 -0.9541
11880TIP3    H257056   3.084   6.123  12.980 -0.0705 -1.1281 -0.5510
11881TIP3   OH257057   4.083   6.000   4.003  0.6372 -0.3051 -0.2596
11881TIP3    H157058   4.090   6.094   3.988  1.7528 -0.3541 -0.1461
11881TIP3    H257059   4.167   5.976   4.042 -0.0411 -1.1592  0.7407
11882TIP3   OH257060   4.532   6.378   1.111 -0.1041  0.0735 -0.4524
11882TIP3    H157061   4.578   6.414   1.186  0.1676 -0.5531 -0.3110
11882TIP3    H257062   4.581   6.299   1.089  2.3733  2.2538 -3.8335
11883TIP3   OH257063   0.663   4.090   0.898 -0.3156  0.2958  0.5495
11883TIP3    H157064   0.569   4.106   0.908 -0.9685 -2.6388  0.1210
11883TIP3    H257065   0.668   4.001   0.862  2.6472  0.2204  0.9283
11884TIP3   OH257066   4.556   6.230  10.937 -0.1179  0.4748  0.2213
11884TIP3    H157067   4.643   6.211  10.972 -0.5300 -0.8143  0.6251
11884TIP3    H257068   4.546   6.170  10.863 -0.4266  1.0579 -0.2226
11885TIP3   OH257069   2.513   3.283   2.896  0.1421  0.6714 -0.1956
11885TIP3    H157070   2.609   3.276   2.898  0.0265 -2.3182 -0.3891
11885TIP3    H257071   2.491   3.327   2.978  1.6804  1.6000 -0.2390
11886TIP3   OH257072   1.003   6.485  14.490  0.1698 -0.0891  0.9088
11886TIP3    H157073   1.016   6.395  14.522 -1.8219  0.1667  2.7225
11886TIP3    H257074   1.006   6.539  14.568  1.5834  1.5287 -0.1867
11887TIP3   OH257075   5.194   0.082   1.153 -0.2704 -0.1915 -0.6695
11887TIP3    H157076   5.218   0.012   1.213  0.2448  0.4526 -0.0999
11887TIP3    H257077   5.098   0.082   1.153 -0.2753 -0.4460 -0.1373
11888TIP3   OH257078   4.884   6.483  15.540  0.1812 -0.6822  0.4215
11888TIP3    H157079   4.954   6.425  15.572  1.1003 -1.4026 -2.5895
11888TIP3    H257080   4.910   6.504  15.451 -2.3627  0.9005 -0.0245
11889TIP3   OH257081   3.084   2.399   1.179  0.7048  0.3034  0.8229
11889TIP3    H157082   3.011   2.347   1.144  1.6250 -1.8192  1.8381
11889TIP3    H257083   3.158   2.378   1.122  1.0863  0.4885  1.2427
11890TIP3   OH257084   3.944   6.081  14.323 -0.5772 -0.4987  0.3311
11890TIP3    H157085   4.033   6.047  14.334 -0.5085 -0.1060  1.0308
11890TIP3    H257086   3.887   6.014  14.360 -0.6669 -1.2487 -1.0820
11891TIP3   OH257087   4.796   4.420   3.004 -0.2085  0.5586  0.0561
11891TIP3    H157088   4.786   4.384   2.916  3.5721 -0.5612 -0.1017
11891TIP3    H257089   4.861   4.490   2.994 -1.0565  1.6429  1.7148
11892TIP3   OH257090   6.678   4.457  17.164  0.8244 -0.1053 -0.0034
11892TIP3    H157091   6.593   4.431  17.125  0.7259  0.8784 -0.4684
11892TIP3    H257092   6.659   4.470  17.256 -0.1140  2.4338 -0.4918
11893TIP3   OH257093   1.689   0.822   3.642 -0.4048  0.0913 -0.2185
11893TIP3    H157094   1.668   0.819   3.735  4.5340 -1.4441  1.1702
11893TIP3    H257095   1.677   0.732   3.612 -2.1239  0.6083 -1.2403
11894TIP3   OH257096   3.869   5.019   1.223  0.3380 -0.0797 -0.3595
11894TIP3    H157097   3.841   4.937   1.183 -0.7417  0.1899 -0.1990
11894TIP3    H257098   3.859   5.084   1.154 -0.0189  0.1212 -0.1237
11895TIP3   OH257099   1.602   5.597  15.210  0.4323  0.0976 -0.4860
11895TIP3    H157100   1.612   5.513  15.164 -0.8932  0.8878 -2.3645
11895TIP3    H257101   1.584   5.573  15.301  3.0890 -1.5563 -0.2886
11896TIP3   OH257102   3.776   2.915   5.272  0.4752 -0.1727 -0.7826
11896TIP3    H157103   3.739   2.858   5.204 -1.3174 -0.5012  0.3973
11896TIP3    H257104   3.719   2.992   5.271  1.0831  0.2916 -0.3586
11897TIP3   OH257105   3.442   2.216   5.777 -0.6258  0.1221  0.4091
11897TIP3    H157106   3.368   2.157   5.761  0.4610 -1.7536  1.8643
11897TIP3    H257107   3.414   2.268   5.852 -1.7228  1.7807 -1.0867
11898TIP3   OH257108   2.554   2.792  14.352  0.0135  0.1934 -0.4547
11898TIP3    H157109   2.542   2.885  14.366 -2.7708  0.2240 -2.2439
11898TIP3    H257110   2.579   2.757  14.437 -0.3906  2.3309  0.5948
11899TIP3   OH257111   2.194   4.551   4.546 -0.4258 -0.2142 -0.3913
11899TIP3    H157112   2.248   4.485   4.502  0.6267 -1.0583  1.9711
11899TIP3    H257113   2.189   4.624   4.484  2.8239 -0.4029 -1.0501
11900TIP3   OH257114   0.514   4.279   5.757 -0.1670  0.0468  0.1615
11900TIP3    H157115   0.570   4.321   5.692  0.1646 -2.3765 -1.2481
11900TIP3    H257116   0.431   4.326   5.751  0.9707  2.2313  0.6576
11901TIP3   OH257117   5.270   1.997   5.085  0.4759  0.6903 -0.1826
11901TIP3    H157118   5.198   2.034   5.034  1.5615  1.0211 -1.5466
11901TIP3    H257119   5.227   1.945   5.153 -1.0436  1.2770 -0.6442
11902TIP3   OH257120   1.060   5.109  10.483 -0.3921  0.1224  0.2069
11902TIP3    H157121   0.965   5.118  10.469 -0.6985  0.4265  2.1541
11902TIP3    H257122   1.067   5.052  10.560  1.0699 -0.9950 -0.7147
11903TIP3   OH257123   4.580   2.768  13.277 -1.1656  0.2443 -0.2584
11903TIP3    H157124   4.649   2.708  13.248  0.5206  1.8297  0.2937
11903TIP3    H257125   4.562   2.742  13.367 -0.6935  0.3334 -0.1358
11904TIP3   OH257126   5.365   6.456  12.032 -0.0716 -0.8210 -0.2105
11904TIP3    H157127   5.272   6.478  12.019 -0.3402  0.1080  2.6064
11904TIP3    H257128   5.367   6.360  12.030 -1.0465 -0.8470 -0.6477
11905TIP3   OH257129   2.231   0.576   6.059  0.2077 -0.2713  0.2262
11905TIP3    H157130   2.315   0.623   6.066 -0.5123  0.9735  0.8360
11905TIP3    H257131   2.219   0.536   6.145  0.6607 -1.3412 -0.1908
11906TIP3   OH257132   4.306   2.487  15.538 -1.2683  0.1493 -0.3798
11906TIP3    H157133   4.394   2.455  15.558 -0.0177  1.1632 -3.6471
11906TIP3    H257134   4.247   2.418  15.569  1.0295 -3.6654 -3.5791
11907TIP3   OH257135   5.945   0.513  11.442  0.3147 -0.3569 -0.5533
11907TIP3    H157136   6.033   0.535  11.412 -0.0706 -0.9818 -2.2499
11907TIP3    H257137   5.890   0.523  11.365 -1.0151 -0.5951  0.3211
11908TIP3   OH257138   4.896   3.542  16.821 -0.2305 -0.0987  0.6573
11908TIP3    H157139   4.902   3.446  16.818  0.8797 -0.0202 -0.5778
11908TIP3    H257140   4.807   3.560  16.850 -1.2602 -1.5194 -1.3928
11909TIP3   OH257141   5.995   4.077  17.290  0.3503 -0.2942 -0.1505
11909TIP3    H157142   6.014   4.136  17.217  1.1205 -1.6902 -1.1286
11909TIP3    H257143   5.902   4.058  17.282  0.1862  0.4255 -0.0789
11910TIP3   OH257144   0.602   2.147   0.202  0.2605  0.4108  0.4940
11910TIP3    H157145   0.669   2.079   0.195 -1.3389 -1.2957  1.0787
11910TIP3    H257146   0.527   2.111   0.156 -0.7837  1.6025  1.2131
11911TIP3   OH257147   0.965   3.364   5.666  0.0871 -0.2166 -0.0725
11911TIP3    H157148   1.048   3.411   5.677  0.9503 -1.3726 -1.3729
11911TIP3    H257149   0.980   3.280   5.709 -0.5412 -0.2933 -0.0019
11912TIP3   OH257150   5.474   1.622  11.965 -0.5821 -0.7583  0.0839
11912TIP3    H157151   5.508   1.624  11.876 -1.7136  0.1211 -0.3584
11912TIP3    H257152   5.444   1.532  11.978  1.3544 -1.4110  0.3030
11913TIP3   OH257153   2.063   0.422  13.676 -0.1779 -0.2441 -0.4879
11913TIP3    H157154   2.109   0.373  13.609  1.3722 -0.2733  0.5416
11913TIP3    H257155   2.119   0.415  13.754  0.0998  3.0762 -0.2670
11914TIP3   OH257156   3.774   6.304  12.467  0.4645  0.0461  0.1901
11914TIP3    H157157   3.817   6.336  12.388  0.5900 -1.7422 -0.5288
11914TIP3    H257158   3.815   6.219  12.484 -0.8735 -0.4675  1.0672
11915TIP3   OH257159   4.909   1.583   2.719 -0.3246 -1.1613 -0.4306
11915TIP3    H157160   4.814   1.584   2.728 -0.6377  0.0246 -2.9707
11915TIP3    H257161   4.926   1.532   2.639  1.1073 -0.5876 -0.5324
11916TIP3   OH257162   1.690   4.708  14.737 -0.2927  0.1054  0.1059
11916TIP3    H157163   1.597   4.704  14.716 -0.2070  0.4807 -0.3620
11916TIP3    H257164   1.709   4.624  14.779 -1.4443  1.0427  2.7492
11917TIP3   OH257165   2.004   4.606   1.923 -0.2441 -0.2233 -0.1249
11917TIP3    H157166   2.057   4.581   1.999 -0.3051  2.5835  0.9715
11917TIP3    H257167   1.920   4.635   1.960 -0.2440  1.2890 -1.1966
11918TIP3   OH257168   0.678   6.610   6.014 -0.0941  0.0585  0.0315
11918TIP3    H157169   0.693   6.704   6.012 -1.2667  0.2432 -1.8733
11918TIP3    H257170   0.682   6.583   5.922 -1.2064 -1.5129  0.4137
11919TIP3   OH257171   4.180   0.135   5.767 -0.1744 -0.0915 -0.2495
11919TIP3    H157172   4.197   0.086   5.687 -0.0519  0.4459 -0.5595
11919TIP3    H257173   4.184   0.227   5.740  1.3287  0.1359  0.6471
11920TIP3   OH257174   5.260   0.182   1.776 -0.0836 -0.1410 -0.5892
11920TIP3    H157175   5.266   0.187   1.872  0.2497  0.8636 -0.6488
11920TIP3    H257176   5.332   0.237   1.745  1.1727 -2.1191 -1.4433
11921TIP3   OH257177   4.568   4.790  14.330  0.0114 -0.4539  0.2432
11921TIP3    H157178   4.530   4.804  14.417  1.6329  1.1045  0.7521
11921TIP3    H257179   4.576   4.877  14.292  4.1201 -0.4507  0.7002
11922TIP3   OH257180   5.575   6.118  14.300 -0.0259  0.1179 -0.2255
11922TIP3    H157181   5.588   6.131  14.394  2.5705  1.8817 -0.7078
11922TIP3    H257182   5.553   6.205  14.267  5.0247  1.1157 -1.8813
11923TIP3   OH257183   3.224   2.796  14.206  0.2119 -0.0837  0.4564
11923TIP3    H157184   3.258   2.862  14.146  1.5926 -1.6908 -0.6577
11923TIP3    H257185   3.158   2.749  14.155  0.7510 -0.8870  0.4810
11924TIP3   OH257186   5.871   1.105   3.882  0.2906  0.0167  0.0899
11924TIP3    H157187   5.811   1.055   3.936  1.6729 -0.6399  1.0788
11924TIP3    H257188   5.955   1.059   3.890  0.9351  0.8655 -1.2768
11925TIP3   OH257189   6.504   2.284  17.231 -0.2400 -0.2047 -0.3332
11925TIP3    H157190   6.431   2.223  17.220 -0.5239  0.4557 -2.7514
11925TIP3    H257191   6.466   2.358  17.278 -1.1779  0.1093 -1.5131
11926TIP3   OH257192   3.712   3.691   0.911 -0.0354 -0.0462  0.3226
11926TIP3    H157193   3.795   3.721   0.948  0.5211 -0.3660 -0.6394
11926TIP3    H257194   3.646   3.749   0.949  0.4168 -0.7433  2.2891
11927TIP3   OH257195   5.959   5.204  11.428 -0.1566  0.3427  0.7224
11927TIP3    H157196   6.038   5.161  11.461 -0.9712 -0.8854  1.1423
11927TIP3    H257197   5.973   5.297  11.446  1.1804  0.1549  0.7841
11928TIP3   OH257198   1.694   4.541  12.686  0.4357 -0.0369  0.7094
11928TIP3    H157199   1.710   4.495  12.603  0.5985  1.6282 -0.2140
11928TIP3    H257200   1.655   4.474  12.742 -1.2875 -0.8239 -1.2632
11929TIP3   OH257201   2.107   4.635   2.191 -0.2886  0.3783  0.0455
11929TIP3    H157202   2.092   4.690   2.268 -1.0974  1.3270 -0.7658
11929TIP3    H257203   2.180   4.678   2.145 -1.1398  0.9964 -0.7646
11930TIP3   OH257204   3.249   0.623  17.236 -0.1695 -0.0397 -0.0146
11930TIP3    H157205   3.177   0.649  17.178 -0.6584  1.4240  1.1868
11930TIP3    H257206   3.206   0.595  17.316  0.5901  1.5455  0.9879
11931TIP3   OH257207   6.313   0.552   2.623 -0.3239 -0.3370 -0.5813
11931TIP3    H157208   6.230   0.513   2.648 -0.1131  0.2575  1.1684
11931TIP3    H257209   6.301   0.646   2.636  0.7356 -0.2800  0.1011
11932TIP3   OH257210   4.666   1.058  16.211 -0.3648  0.2437  0.4673
11932TIP3    H157211   4.575   1.033  16.201  0.0597 -0.6269 -1.6232
11932TIP3    H257212   4.678   1.129  16.148  0.4141  0.3165  0.6895
11933TIP3   OH257213   6.291   2.699  15.880  1.0215  0.3050  0.1098
11933TIP3    H157214   6.322   2.655  15.800 -0.2433  0.1515 -0.3219
11933TIP3    H257215   6.294   2.793  15.858 -1.9046  0.2065 -1.2004
11934TIP3   OH257216   0.413   6.533   2.676 -0.2409  0.1450 -0.5569
11934TIP3    H157217   0.438   6.575   2.594  1.9375  0.2958  0.1245
11934TIP3    H257218   0.420   6.439   2.658  1.3249  0.1816 -0.2832
11935TIP3   OH257219   4.954   0.081  11.703  0.4443 -0.0540  0.3407
11935TIP3    H157220   4.877   0.107  11.754  0.2280  0.0200 -0.0178
11935TIP3    H257221   5.027   0.126  11.744  0.4030 -0.7013  1.1395
11936TIP3   OH257222   4.587   1.937   5.592 -0.0819 -0.0236 -0.0004
11936TIP3    H157223   4.564   1.853   5.631  0.9560 -0.6918 -0.7750
11936TIP3    H257224   4.617   1.915   5.504  4.9453  0.4437  1.2906
11937TIP3   OH257225   5.544   0.401  17.384 -0.4786  0.6194  0.0192
11937TIP3    H157226   5.514   0.311  17.401  1.5910  0.2108  2.0005
11937TIP3    H257227   5.483   0.456  17.433 -0.7513  0.1839  0.1795
11938TIP3   OH257228   1.347   5.398  13.290  0.1064 -0.5409 -0.0452
11938TIP3    H157229   1.320   5.307  13.301  2.9185 -1.3883  0.6051
11938TIP3    H257230   1.422   5.394  13.230  0.9363  1.2053  0.8134
11939TIP3   OH257231   4.058   3.533  15.714  0.5888 -0.3058 -0.0233
11939TIP3    H157232   4.019   3.583  15.643  1.1901 -0.4742 -0.4844
11939TIP3    H257233   4.090   3.599  15.776 -1.2845 -0.1766  0.8553
11940TIP3   OH257234   1.888   5.390   4.735  0.3504  0.4000 -0.1261
11940TIP3    H157235   1.947   5.358   4.803 -1.0238  0.9898  1.4083
11940TIP3    H257236   1.906   5.334   4.659  0.8398 -1.3112  1.1978
11941TIP3   OH257237   4.599   4.013   1.958 -0.3501  0.1678 -0.9522
11941TIP3    H157238   4.663   4.081   1.977  1.5538 -1.5511 -0.8171
11941TIP3    H257239   4.611   3.948   2.028 -2.8078  0.1059 -0.4724
11942TIP3   OH257240   1.948   0.188  14.495 -0.3198  0.5794 -0.0930
11942TIP3    H157241   1.973   0.120  14.433 -0.4481  0.2440  0.2241
11942TIP3    H257242   2.025   0.199  14.550  0.2824  1.7958 -1.1097
11943TIP3   OH257243   6.342   2.065  14.882 -0.0909  0.4627 -0.2460
11943TIP3    H157244   6.294   2.130  14.935 -1.6676 -0.8432 -0.0130
11943TIP3    H257245   6.308   2.076  14.794  0.6322  0.8486 -0.4858
11944TIP3   OH257246   3.754   0.110  16.921  0.3747  0.1425 -0.1059
11944TIP3    H157247   3.803   0.171  16.976 -1.9371 -0.1970  2.5316
11944TIP3    H257248   3.801   0.027  16.931  0.7982  0.4106  0.1637
11945TIP3   OH257249   1.596   1.673  13.936 -0.1566 -0.0554  0.1551
11945TIP3    H157250   1.615   1.683  14.030  0.5287  0.5954 -0.0440
11945TIP3    H257251   1.671   1.713  13.892 -0.6585 -0.0100 -0.6775
11946TIP3   OH257252   2.537   4.617   1.355 -0.5168  0.5048  0.6293
11946TIP3    H157253   2.581   4.662   1.428  0.9630 -0.5089  0.4061
11946TIP3    H257254   2.453   4.591   1.391  1.4532 -3.1345  3.2804
11947TIP3   OH257255   0.276   6.035  15.173 -0.8284  0.0596  0.6170
11947TIP3    H157256   0.365   6.010  15.197  0.4873  0.7733 -2.9439
11947TIP3    H257257   0.244   5.962  15.120 -2.5770 -0.3062  2.0310
11948TIP3   OH257258   0.209   2.385  15.494  0.2748 -0.0566  0.0471
11948TIP3    H157259   0.249   2.471  15.498 -1.0024  0.6629 -1.3389
11948TIP3    H257260   0.190   2.362  15.585  1.6881  0.5805  0.5201
11949TIP3   OH257261   4.272   0.534  16.104 -0.0393  0.4325 -0.3827
11949TIP3    H157262   4.334   0.599  16.136  0.2398  0.6187 -1.2974
11949TIP3    H257263   4.236   0.495  16.184  0.1423  1.3654  0.1681
11950TIP3   OH257264   2.079   3.256   3.526 -0.7039  0.3579 -0.0871
11950TIP3    H157265   2.137   3.331   3.514  0.3826 -0.4188  0.0566
11950TIP3    H257266   2.041   3.269   3.613  1.4045 -0.4323  1.0604
11951TIP3   OH257267   5.001   3.837  13.199 -0.0507 -0.3357  0.3439
11951TIP3    H157268   5.008   3.930  13.218  1.1923 -0.3711  0.1390
11951TIP3    H257269   4.924   3.829  13.143  0.6087  0.7575 -0.7618
11952TIP3   OH257270   0.061   4.747  10.683 -0.1613 -0.0105  0.3321
11952TIP3    H157271   0.115   4.778  10.610  0.8709  0.6766  1.3690
11952TIP3    H257272  -0.022   4.723  10.641 -0.2425  2.0366 -0.8583
11953TIP3   OH257273   2.453   2.465  14.649  0.0305  0.3484 -0.6158
11953TIP3    H157274   2.524   2.425  14.699 -0.8451  1.5763  1.7815
11953TIP3    H257275   2.493   2.541  14.607  0.9270 -1.0548 -2.4214
11954TIP3   OH257276   2.535   2.095   4.342  0.4059  0.0081  0.1516
11954TIP3    H157277   2.531   2.170   4.401  1.5779 -0.9519  1.5306
11954TIP3    H257278   2.564   2.131   4.258  0.1142  1.2005  0.5529
11955TIP3   OH257279   0.877   0.941   0.921 -0.9679 -0.3853  0.3808
11955TIP3    H157280   0.803   1.001   0.928 -1.2284 -0.7633  0.8747
11955TIP3    H257281   0.849   0.862   0.966 -0.2488 -0.5240  0.5992
11956TIP3   OH257282   1.173   5.210   0.006  0.0460 -0.4657  0.2560
11956TIP3    H157283   1.170   5.213   0.101  0.6238 -0.6748  0.2833
11956TIP3    H257284   1.081   5.203  -0.021 -0.0438 -2.4508  0.8815
11957TIP3   OH257285   3.398   6.557   0.851 -0.2550  0.1165  0.3702
11957TIP3    H157286   3.413   6.599   0.767  0.6796  1.3843  1.1324
11957TIP3    H257287   3.459   6.483   0.852 -0.4268 -0.0374 -0.1416
11958TIP3   OH257288   1.179   4.148   1.355  0.2848 -0.5054  0.0818
11958TIP3    H157289   1.189   4.241   1.376 -0.1085  0.0065 -1.8215
11958TIP3    H257290   1.249   4.130   1.292  1.1738 -1.8693  1.3630
11959TIP3   OH257291   2.496   3.600   0.511  0.1148 -0.2432 -0.1080
11959TIP3    H157292   2.468   3.531   0.571 -2.2560  1.4736  0.9543
11959TIP3    H257293   2.473   3.568   0.424  0.5378 -1.4069  0.1903
11960TIP3   OH257294   4.545   4.824   5.983  0.7315  0.0572  0.1460
11960TIP3    H157295   4.559   4.823   6.078  0.1318  1.7494  0.2928
11960TIP3    H257296   4.611   4.764   5.949 -0.3002 -2.1258  1.7453
11961TIP3   OH257297   0.686   0.816   1.895 -0.1734  0.2710 -0.1862
11961TIP3    H157298   0.685   0.720   1.897  0.6474  0.2073 -1.5656
11961TIP3    H257299   0.753   0.840   1.959 -0.7044 -0.0401  0.5055
11962TIP3   OH257300   3.842   5.458   4.276  0.6251 -0.3667  0.7121
11962TIP3    H157301   3.859   5.550   4.253 -0.6309 -0.4586 -0.7170
11962TIP3    H257302   3.756   5.439   4.238  0.9751 -2.2168  0.7572
11963TIP3   OH257303   6.633   0.641  13.820  0.3341 -0.1882 -0.5625
11963TIP3    H157304   6.705   0.610  13.875 -0.0404 -1.3965 -0.7080
11963TIP3    H257305   6.668   0.638  13.731  0.3000 -0.2027 -0.5757
11964TIP3   OH257306   3.238   2.296   4.754 -0.3967 -0.2710 -0.2778
11964TIP3    H157307   3.329   2.287   4.784 -0.7200 -3.2143  0.0986
11964TIP3    H257308   3.239   2.260   4.665 -1.4906 -2.2782  0.4620
11965TIP3   OH257309   2.614   4.882   4.235  0.3150 -0.2700 -0.0640
11965TIP3    H157310   2.616   4.975   4.214  0.0012 -0.3077 -0.2725
11965TIP3    H257311   2.666   4.841   4.167 -2.1887 -0.5968 -1.9387
11966TIP3   OH257312   2.608   0.234   5.314  0.5044  0.4278 -0.2860
11966TIP3    H157313   2.613   0.272   5.402  1.0155  2.7338 -1.2287
11966TIP3    H257314   2.515   0.212   5.302 -0.0545  2.4324 -0.0273
11967TIP3   OH257315   4.959   5.768  12.880  0.0624 -0.0668 -0.2690
11967TIP3    H157316   4.970   5.849  12.830 -2.1713 -0.2580 -1.1732
11967TIP3    H257317   4.983   5.699  12.818  1.6824 -0.1564  0.4104
11968TIP3   OH257318   4.591   5.480   5.374 -0.0696  0.5115 -0.3972
11968TIP3    H157319   4.599   5.572   5.397 -0.5144  0.8916 -1.6999
11968TIP3    H257320   4.675   5.442   5.399  0.3571  1.4123 -0.4323
11969TIP3   OH257321   4.615   3.098   5.311 -0.0943 -0.3581 -0.3425
11969TIP3    H157322   4.695   3.050   5.332 -0.3197 -0.2540  0.8388
11969TIP3    H257323   4.602   3.083   5.217 -0.0118 -2.3767 -0.0661
11970TIP3   OH257324   2.925   6.291  13.155 -0.0598  0.1487  0.6532
11970TIP3    H157325   2.901   6.212  13.107  1.2251  0.9743 -1.4643
11970TIP3    H257326   2.871   6.288  13.234 -3.9126 -0.2539 -1.7364
11971TIP3   OH257327   4.568   4.091  15.562  0.2686 -0.1252 -0.4784
11971TIP3    H157328   4.620   4.067  15.638  0.8749  1.3170 -0.4257
11971TIP3    H257329   4.512   4.014  15.546 -0.4774 -0.1440  1.9145
11972TIP3   OH257330   3.242   5.095   4.039 -0.4850 -0.2624 -0.4521
11972TIP3    H157331   3.190   5.152   4.096  1.2954 -1.0306  2.1036
11972TIP3    H257332   3.216   5.006   4.062  2.5867 -0.7375  1.7764
11973TIP3   OH257333   4.315   1.763  11.642 -0.0322  0.2390 -0.3119
11973TIP3    H157334   4.373   1.720  11.579  1.8079  0.7810  0.9255
11973TIP3    H257335   4.276   1.835  11.592  0.6517  0.0935 -1.0960
11974TIP3   OH257336   6.349   1.439   1.682  0.4619  0.2016 -0.4062
11974TIP3    H157337   6.411   1.451   1.754  0.4692  0.6947 -0.4906
11974TIP3    H257338   6.263   1.450   1.721  0.4526  0.0763 -0.3938
11975TIP3   OH257339   3.932   0.801  15.381 -0.3919 -0.7398 -0.3352
11975TIP3    H157340   3.956   0.862  15.450  2.1275 -2.0657  0.0932
11975TIP3    H257341   3.914   0.719  15.426 -1.1373 -1.0005 -1.0818
11976TIP3   OH257342   5.693   0.694  14.777  0.0194  0.2033  0.2031
11976TIP3    H157343   5.738   0.610  14.780  1.3162  0.7865 -1.5317
11976TIP3    H257344   5.715   0.736  14.860  1.8307  0.0273 -0.1522
11977TIP3   OH257345   0.378   4.488  14.759 -0.4376 -0.7180 -0.1088
11977TIP3    H157346   0.463   4.447  14.738 -0.4727  0.4780 -3.0232
11977TIP3    H257347   0.314   4.432  14.717 -0.8397  0.0559 -0.5278
11978TIP3   OH257348   6.274   0.980  15.692  0.3209 -0.4192 -0.2853
11978TIP3    H157349   6.211   0.993  15.762  1.6243 -0.8816  1.0250
11978TIP3    H257350   6.359   0.992  15.734  1.1272  0.0647 -1.9663
11979TIP3   OH257351   3.812   3.504  12.645  0.1143  0.7233  0.9323
11979TIP3    H157352   3.867   3.445  12.594 -0.6399 -0.1607  1.1120
11979TIP3    H257353   3.867   3.531  12.719  1.2449  2.0800 -0.3391
11980TIP3   OH257354   3.927   0.987   4.331 -0.4772 -0.2599  0.0993
11980TIP3    H157355   3.843   1.025   4.357  0.5057  1.4177  0.9461
11980TIP3    H257356   3.935   1.011   4.239 -0.2772  0.8752  0.3934
11981TIP3   OH257357   0.819   2.449   5.737 -0.6838 -0.5194 -0.5336
11981TIP3    H157358   0.786   2.539   5.739 -0.1277 -0.3173 -0.1758
11981TIP3    H257359   0.877   2.446   5.661 -1.4987 -0.8732 -1.1590
11982TIP3   OH257360   0.592   5.238   4.983 -0.5411 -0.2346  0.3391
11982TIP3    H157361   0.657   5.306   4.968  0.2735 -0.7578  1.3571
11982TIP3    H257362   0.509   5.285   4.994  0.2749  0.7764  2.7562
11983TIP3   OH257363   3.316   1.798  15.084 -0.0148  0.2056  0.0810
11983TIP3    H157364   3.406   1.818  15.061  0.3054  0.3457  1.3581
11983TIP3    H257365   3.312   1.703  15.086 -0.1245  0.1880 -0.7955
11984TIP3   OH257366   1.568   2.237   1.184 -0.0644 -0.6024  0.4503
11984TIP3    H157367   1.543   2.329   1.181  2.3863  0.1351  0.0577
11984TIP3    H257368   1.486   2.189   1.170 -1.0745  1.5587 -1.9234
11985TIP3   OH257369   0.392   6.737  14.730  0.4702  0.8003 -0.2843
11985TIP3    H157370   0.464   6.683  14.698  0.5616  0.3376  0.6720
11985TIP3    H257371   0.383   6.806  14.665  3.1893  2.1389  0.6271
11986TIP3   OH257372   4.672   1.921   5.938  0.5064  0.5032  0.4457
11986TIP3    H157373   4.695   1.905   5.846 -0.5238  2.7312 -0.2516
11986TIP3    H257374   4.714   1.849   5.986 -0.1390 -1.5770 -1.9006
11987TIP3   OH257375   6.271   3.413   6.525  0.3875 -0.1664  0.0155
11987TIP3    H157376   6.362   3.386   6.510  1.1295  2.0870 -0.0485
11987TIP3    H257377   6.276   3.508   6.533 -2.4115  0.4468 -3.2702
11988TIP3   OH257378   6.230   0.035   5.280 -0.5152  0.0490 -0.0521
11988TIP3    H157379   6.235  -0.001   5.192 -2.4386  1.0758 -0.6477
11988TIP3    H257380   6.145   0.079   5.283 -0.0255  0.9856  1.9672
11989TIP3   OH257381   1.567   6.201  17.386  0.4969 -0.4888  0.0814
11989TIP3    H157382   1.600   6.275  17.438 -0.1046 -0.7992  0.9324
11989TIP3    H257383   1.582   6.227  17.295 -1.3948  1.5348  0.2565
11990TIP3   OH257384   2.517   2.084  10.786 -0.0696  0.2441  0.1051
11990TIP3    H157385   2.431   2.060  10.821 -1.2837  2.3381 -1.1893
11990TIP3    H257386   2.539   2.166  10.831  0.4809  0.5663 -0.7315
11991TIP3   OH257387   1.016   4.693   0.085 -0.4490 -0.7275 -0.0004
11991TIP3    H157388   1.049   4.733   0.165 -0.9793 -0.0293 -0.1223
11991TIP3    H257389   1.045   4.752   0.015 -3.0227  0.6421 -0.0067
11992TIP3   OH257390   0.705   5.183   5.729  0.2120 -0.4897  0.2324
11992TIP3    H157391   0.678   5.234   5.653  0.2385 -1.2931 -0.3267
11992TIP3    H257392   0.706   5.246   5.801  0.4027  0.3321 -0.4700
11993TIP3   OH257393   2.942   3.788  16.912 -0.4717 -0.6838  0.0003
11993TIP3    H157394   2.929   3.727  16.984  0.5610 -1.0997 -0.1514
11993TIP3    H257395   2.979   3.735  16.842  0.2872  0.0732 -0.1860
11994TIP3   OH257396   4.939   3.710  14.670 -0.8606  0.7395  0.4349
11994TIP3    H157397   5.016   3.765  14.686  0.4058 -0.6961 -0.4620
11994TIP3    H257398   4.868   3.773  14.654  0.5682  2.1323 -0.7461
11995TIP3   OH257399   2.105   0.621  13.417  0.1325  0.5592  0.3474
11995TIP3    H157400   2.029   0.678  13.433 -0.7898 -0.7287  0.7113
11995TIP3    H257401   2.083   0.540  13.462  1.2863 -0.1929 -0.4226
11996TIP3   OH257402   5.807   6.269   1.808  0.0376  0.2918 -0.0100
11996TIP3    H157403   5.896   6.296   1.832 -0.2535 -0.3544  1.9536
11996TIP3    H257404   5.765   6.351   1.781  0.8649  0.8245  0.2442
11997TIP3   OH257405   4.980   1.376  11.472  0.3773  0.4112 -0.4076
11997TIP3    H157406   4.902   1.421  11.442  0.0273 -0.0255 -0.1694
11997TIP3    H257407   4.990   1.302  11.412  1.2755  1.1186 -1.1487
11998TIP3   OH257408   0.190   0.448  17.173  0.4540  0.1365  0.3041
11998TIP3    H157409   0.143   0.528  17.149  0.4041  0.3450  1.0687
11998TIP3    H257410   0.222   0.413  17.090  3.2880  2.6721  0.1466
11999TIP3   OH257411   0.097   5.141   2.968 -0.7343 -0.8339  0.3167
11999TIP3    H157412   0.053   5.187   2.896  0.4663 -1.3096 -0.7656
11999TIP3    H257413   0.104   5.206   3.038 -3.4275 -0.8507  0.6894
12000TIP3   OH257414   0.145   3.776  17.326  0.2981 -0.9679 -0.0317
12000TIP3    H157415   0.207   3.720  17.279  0.3501 -1.0549  0.1387
12000TIP3    H257416   0.135   3.734  17.412  1.9611  0.3989  0.9099
12001TIP3   OH257417   1.635   5.913  13.600  0.6246  0.1176  0.0937
12001TIP3    H157418   1.643   5.817  13.602  0.8879  0.1479  1.6386
12001TIP3    H257419   1.546   5.928  13.568 -0.1113 -0.7102  1.6408
12002TIP3   OH257420   0.998   1.765   1.354 -0.0856  0.3513  0.7704
12002TIP3    H157421   0.993   1.670   1.366 -0.9771  0.1984 -0.5501
12002TIP3    H257422   0.926   1.785   1.294 -0.6552  2.0350  1.9531
12003TIP3   OH257423   2.583   5.971   0.843  0.3589 -0.3576  0.1356
12003TIP3    H157424   2.623   6.030   0.779 -0.1665 -1.1701 -0.9604
12003TIP3    H257425   2.489   5.985   0.833  0.2475 -0.9984  0.2370
12004TIP3   OH257426   5.635   5.194   3.449 -0.2863 -0.8368 -0.3326
12004TIP3    H157427   5.586   5.276   3.451  1.7337  0.4948 -1.3755
12004TIP3    H257428   5.627   5.159   3.537  1.2548  2.0890  1.1293
12005TIP3   OH257429   2.360   1.136  13.486 -0.0504 -0.1566  0.1067
12005TIP3    H157430   2.283   1.169  13.438 -0.3900 -0.9216  0.1140
12005TIP3    H257431   2.411   1.215  13.505 -1.1697  0.4504  0.6897
12006TIP3   OH257432   0.190   2.668   4.872 -0.4505 -0.6680  0.3858
12006TIP3    H157433   0.174   2.645   4.964 -1.5702 -1.7324 -0.0385
12006TIP3    H257434   0.217   2.586   4.831 -1.0134 -0.4566 -0.4449
12007TIP3   OH257435   3.894   1.417  15.165  0.0534  0.2636  0.0200
12007TIP3    H157436   3.873   1.356  15.094  0.2225  0.2856 -0.0500
12007TIP3    H257437   3.825   1.402  15.230 -0.0255  0.1461 -0.0875
12008TIP3   OH257438   2.173   6.299   4.469  0.2287 -0.1880  0.1160
12008TIP3    H157439   2.084   6.310   4.435 -0.2652 -0.7680  1.1945
12008TIP3    H257440   2.169   6.332   4.558  1.3095  0.5321 -0.0967
12009TIP3   OH257441   2.706   2.941   3.428 -0.3490 -0.6211 -0.1882
12009TIP3    H157442   2.627   2.995   3.430 -0.8246 -1.2944 -0.4578
12009TIP3    H257443   2.770   2.991   3.478 -1.3840 -0.7236  1.3128
12010TIP3   OH257444   5.096   4.913  15.093 -0.0820  0.6682 -0.1116
12010TIP3    H157445   5.173   4.861  15.070 -0.8877 -0.3500 -0.5761
12010TIP3    H257446   5.096   4.916  15.188  1.0657  1.5340 -0.1067
12011TIP3   OH257447   6.003   6.082  15.896 -0.5096  0.1031  0.0011
12011TIP3    H157448   6.087   6.057  15.857  0.3504  0.1705  1.7155
12011TIP3    H257449   6.008   6.178  15.904 -0.0019 -0.0234  1.6248
12012TIP3   OH257450   0.812   0.900   2.728 -0.7104 -0.2076  0.0361
12012TIP3    H157451   0.824   0.807   2.748  0.0663 -0.1544 -0.1428
12012TIP3    H257452   0.871   0.945   2.788  0.8494  0.0132 -1.5474
12013TIP3   OH257453   5.206   5.290   4.567 -0.3898  0.5037 -0.1541
12013TIP3    H157454   5.141   5.342   4.614 -2.2469 -1.4232 -0.4784
12013TIP3    H257455   5.212   5.331   4.481 -1.1100  0.7508 -0.0889
12014TIP3   OH257456   2.357   6.650   5.996  0.0937  0.4569  0.1538
12014TIP3    H157457   2.425   6.594   5.959 -1.7881 -1.5506 -0.5030
12014TIP3    H257458   2.353   6.725   5.937 -0.4476 -0.9897 -1.7671
12015TIP3   OH257459   0.532   0.856   5.291  0.4714 -0.0381 -0.2506
12015TIP3    H157460   0.463   0.907   5.333  1.4833 -0.3218  1.8781
12015TIP3    H257461   0.582   0.920   5.240  1.2323  1.0149  1.7271
12016TIP3   OH257462   2.843   1.782   3.797 -0.1302  0.0172  0.0209
12016TIP3    H157463   2.893   1.766   3.717 -0.1514 -2.8281  0.5079
12016TIP3    H257464   2.758   1.740   3.782 -0.6721  0.6963  1.0172
12017TIP3   OH257465   6.286   3.029   0.272  0.0882 -0.0164  0.3008
12017TIP3    H157466   6.332   3.094   0.218  0.3325 -1.1236 -0.8590
12017TIP3    H257467   6.281   2.951   0.217 -1.2122 -0.6376  1.2479
12018TIP3   OH257468   3.913   3.647  16.548  0.2682 -0.1958 -0.1026
12018TIP3    H157469   3.909   3.593  16.627  1.1827  1.9965  1.5422
12018TIP3    H257470   3.944   3.587  16.480  0.0905 -2.0068  1.3161
12019TIP3   OH257471   4.698   1.631  14.641  0.0593 -0.7784  0.7210
12019TIP3    H157472   4.741   1.574  14.577 -0.1863 -0.2873  0.1072
12019TIP3    H257473   4.617   1.659  14.599 -0.4993 -1.0790  1.5640
12020TIP3   OH257474   0.015   6.332   3.504  0.2314  0.2672  0.3393
12020TIP3    H157475  -0.056   6.273   3.528  0.5101  0.5507  1.9932
12020TIP3    H257476  -0.012   6.371   3.421 -3.5607  3.4321  2.7295
12021TIP3   OH257477   4.993   0.548  11.416  0.0596  0.7285 -0.4624
12021TIP3    H157478   4.961   0.628  11.458 -0.9249  1.2030 -2.0636
12021TIP3    H257479   4.986   0.565  11.322  1.7670 -0.4808 -0.8586
12022TIP3   OH257480   1.938   1.718  17.327 -0.3758 -0.0812 -0.2448
12022TIP3    H157481   1.958   1.782  17.258 -0.7186 -0.7052 -0.9291
12022TIP3    H257482   1.946   1.633  17.285  0.1522 -0.5075  0.6871
12023TIP3   OH257483   0.677   1.957   5.542  0.0683 -0.0823  0.0240
12023TIP3    H157484   0.598   1.989   5.499  0.1473  0.0343 -0.0362
12023TIP3    H257485   0.730   2.036   5.556 -0.0702 -0.0808  0.5696
12024TIP3   OH257486   6.186   4.760  16.181  0.6413  0.5401  0.0441
12024TIP3    H157487   6.227   4.749  16.267  1.4578  1.3792 -0.2211
12024TIP3    H257488   6.118   4.825  16.195  0.6151  0.4991  0.1065
12025TIP3   OH257489   4.501   3.792   5.546 -0.1574 -0.0079 -0.5208
12025TIP3    H157490   4.546   3.809   5.463 -0.1436 -1.7996 -0.9224
12025TIP3    H257491   4.413   3.765   5.520 -1.0530  2.0073  0.2030
12026TIP3   OH257492   6.534   5.703   6.708  0.4005 -0.2019  0.0006
12026TIP3    H157493   6.616   5.735   6.671  0.8314 -1.5940 -0.2732
12026TIP3    H257494   6.557   5.669   6.794  0.1427 -0.7477 -0.1429
12027TIP3   OH257495   6.551   5.973   5.251  0.9503  0.0822  0.6716
12027TIP3    H157496   6.460   5.981   5.224  0.9625 -1.3979  0.1033
12027TIP3    H257497   6.574   6.060   5.284 -0.4646  0.6499  0.2340
12028TIP3   OH257498   4.331   4.578  15.964  0.6583  0.3362 -0.3778
12028TIP3    H157499   4.286   4.580  15.879  1.5226  1.0585 -0.8436
12028TIP3    H257500   4.424   4.569  15.941  0.9200  0.7824  0.4776
12029TIP3   OH257501   6.725   3.576  11.351 -0.6050  0.4088  0.1644
12029TIP3    H157502   6.662   3.507  11.330 -0.3228  0.3724 -0.6091
12029TIP3    H257503   6.800   3.557  11.294 -0.1591  0.8237  0.6078
12030TIP3   OH257504   3.589   2.943   0.292  0.1198 -0.2933  0.3581
12030TIP3    H157505   3.613   3.036   0.282  0.4804 -0.5251 -1.0935
12030TIP3    H257506   3.673   2.898   0.298 -0.0161 -0.6680 -0.4414
12031TIP3   OH257507   6.451   2.768   4.567 -0.3510 -0.2099 -0.7571
12031TIP3    H157508   6.527   2.742   4.619 -0.7400  0.6615  0.2901
12031TIP3    H257509   6.377   2.758   4.628 -0.8213  0.8399 -1.1429
12032TIP3   OH257510   1.333   1.769   0.237  0.2189  0.1897  0.3187
12032TIP3    H157511   1.302   1.813   0.316 -1.0082  2.0317 -1.0951
12032TIP3    H257512   1.340   1.838   0.172  1.7182 -1.1775 -1.0713
12033TIP3   OH257513   2.670   5.112  11.991  0.1278 -0.2775 -0.0284
12033TIP3    H157514   2.716   5.116  12.075 -0.8294  0.3724  0.4865
12033TIP3    H257515   2.597   5.173  12.001  0.6720  0.7340 -1.7473
12034TIP3   OH257516   2.340   3.904  12.360 -0.1292 -0.2778  0.1077
12034TIP3    H157517   2.277   3.961  12.405  0.4727  0.1018  0.4806
12034TIP3    H257518   2.389   3.862  12.431  1.0702  0.5910 -0.1717
12035TIP3   OH257519   5.197   2.774  12.956  0.3410  0.5511  0.3957
12035TIP3    H157520   5.174   2.728  13.036 -0.7760  1.5617  0.6873
12035TIP3    H257521   5.291   2.760  12.946  0.3224 -0.3606  1.3670
12036TIP3   OH257522   5.069   4.437  17.102  0.0779 -0.1350 -0.1302
12036TIP3    H157523   5.050   4.405  17.190  0.8207 -0.0964  0.0452
12036TIP3    H257524   5.104   4.525  17.115 -0.0918 -0.0135 -0.4849
12037TIP3   OH257525   2.946   5.028   4.418  0.3149 -0.1265 -0.2685
12037TIP3    H157526   2.993   5.011   4.336  0.8071  2.4313 -0.6008
12037TIP3    H257527   2.903   5.112   4.403 -0.7854 -0.3194  1.6105
12038TIP3   OH257528   0.306   2.444   4.731  0.1635 -0.5823  0.1824
12038TIP3    H157529   0.291   2.389   4.654  2.0921 -0.4669 -0.3291
12038TIP3    H257530   0.356   2.389   4.791 -0.3278 -0.2920  0.8665
12039TIP3   OH257531   0.160   1.028  14.681  0.2625 -0.2247 -0.1444
12039TIP3    H157532   0.135   0.959  14.619  0.9155 -0.0072 -0.6608
12039TIP3    H257533   0.228   0.988  14.736  0.7463  0.0467 -0.5393
12040TIP3   OH257534   3.534   2.693  16.734 -0.0472 -0.3059 -0.1601
12040TIP3    H157535   3.621   2.708  16.698  0.0875 -0.8745 -0.0769
12040TIP3    H257536   3.548   2.630  16.805 -0.6829 -1.3149 -0.9146
12041TIP3   OH257537   4.381   4.974   0.372  0.2129  0.2096  0.1714
12041TIP3    H157538   4.291   4.960   0.401  0.0075  0.1167 -0.4859
12041TIP3    H257539   4.383   5.066   0.345  1.1865  1.1853  3.1705
12042TIP3   OH257540   3.051   6.213  15.192 -0.1992 -0.4130 -0.6244
12042TIP3    H157541   3.114   6.264  15.242 -0.9921  2.2915 -2.1678
12042TIP3    H257542   3.044   6.259  15.108 -1.4006 -2.8209 -1.9574
12043TIP3   OH257543   1.814   0.202   1.957 -0.5248 -0.7051  0.1108
12043TIP3    H157544   1.873   0.137   1.996 -0.0430 -0.0685  0.4582
12043TIP3    H257545   1.869   0.250   1.895 -0.4547  0.4454  1.0456
12044TIP3   OH257546   2.861   3.103   3.595 -0.5833 -0.0523 -0.6920
12044TIP3    H157547   2.909   3.185   3.596 -0.4039 -0.1544  0.5147
12044TIP3    H257548   2.797   3.111   3.666  0.1260 -1.3231  0.1427
12045TIP3   OH257549   0.718   3.080  14.600 -0.4023  0.3698 -0.0897
12045TIP3    H157550   0.692   3.007  14.655  0.9723 -0.1397 -0.0831
12045TIP3    H257551   0.738   3.151  14.662  1.4787 -0.3093  0.1416
12046TIP3   OH257552   3.283   1.465   3.130  0.6177  0.2894  0.1487
12046TIP3    H157553   3.347   1.451   3.060  0.6598  0.5717  0.1290
12046TIP3    H257554   3.286   1.559   3.147 -0.1825  0.4013 -0.2362
12047TIP3   OH257555   1.689   1.000   0.684  0.2807  0.1058 -0.0999
12047TIP3    H157556   1.639   1.053   0.747 -1.4213 -0.2230 -1.1043
12047TIP3    H257557   1.623   0.970   0.621  1.7029 -0.7566 -1.2289
12048TIP3   OH257558   3.432   0.769   4.222  0.5542  0.3971  0.0781
12048TIP3    H157559   3.443   0.762   4.127 -2.0639  0.6957 -0.3353
12048TIP3    H257560   3.436   0.679   4.253  0.7921  0.2336 -0.4173
12049TIP3   OH257561   2.226   4.523  16.593 -0.1140  0.1791  0.0230
12049TIP3    H157562   2.297   4.489  16.539  0.7961  1.3103  0.4659
12049TIP3    H257563   2.268   4.551  16.674 -0.8764  1.8730 -0.1228
12050TIP3   OH257564   3.126   6.755  11.105  0.4048  0.1448  0.2774
12050TIP3    H157565   3.205   6.720  11.065  0.7052  0.1757  0.8394
12050TIP3    H257566   3.064   6.763  11.032  1.1922  0.9428 -0.3284
12051TIP3   OH257567   4.746   0.416   2.349  0.1041 -0.1449  0.4280
12051TIP3    H157568   4.732   0.431   2.256  0.9203  1.8905  0.5750
12051TIP3    H257569   4.784   0.498   2.381  1.8125 -1.5147  2.1456
12052TIP3   OH257570   4.247   5.791  16.189  0.7279 -0.0910  0.1296
12052TIP3    H157571   4.279   5.866  16.139 -1.7636  1.8162  1.1519
12052TIP3    H257572   4.324   5.756  16.234  2.6700 -0.5836 -3.2418
12053TIP3   OH257573   3.904   0.637   0.795 -0.0572 -0.7112 -0.0895
12053TIP3    H157574   3.902   0.720   0.843 -0.7730 -1.3308  0.9821
12053TIP3    H257575   3.878   0.661   0.705  2.9110  0.7387 -0.6975
12054TIP3   OH257576   5.363   5.076   2.681  0.1757  0.1670  0.1039
12054TIP3    H157577   5.311   5.022   2.742  0.2222 -0.7753 -0.6625
12054TIP3    H257578   5.454   5.057   2.704  0.1986  0.9092  0.6650
12055TIP3   OH257579   0.587   3.796  13.690  0.2987 -0.0876 -0.3953
12055TIP3    H157580   0.637   3.734  13.744 -0.8143 -0.0718  0.6877
12055TIP3    H257581   0.654   3.849  13.647  1.3003 -1.9804 -1.3215
12056TIP3   OH257582   2.871   2.159  13.025 -0.1121 -0.6644  0.0328
12056TIP3    H157583   2.918   2.214  12.963 -0.1691 -1.9362 -1.2136
12056TIP3    H257584   2.907   2.071  13.011  0.0444 -0.9553  2.0113
12057TIP3   OH257585   3.963   3.762  17.209 -0.2018 -0.2606 -0.2983
12057TIP3    H157586   4.013   3.834  17.170 -0.3757 -0.8910 -1.7458
12057TIP3    H257587   3.905   3.732  17.139 -1.1118 -0.9175  0.7093
12058TIP3   OH257588   6.463   1.149  16.325  0.2807 -0.0385 -0.2746
12058TIP3    H157589   6.533   1.214  16.326 -0.1247  0.4100  1.5413
12058TIP3    H257590   6.383   1.200  16.311  0.0225 -0.1993  0.5746
12059TIP3   OH257591   3.662   5.565   1.960  0.2750 -0.1442  0.0405
12059TIP3    H157592   3.747   5.607   1.948  1.0184 -1.0740  1.6776
12059TIP3    H257593   3.610   5.594   1.885  1.6992  1.2523 -0.4658
12060TIP3   OH257594   6.054   5.101  13.180  0.0875  0.5057 -0.0987
12060TIP3    H157595   6.036   5.039  13.250  1.1825 -1.2416 -1.2725
12060TIP3    H257596   5.968   5.134  13.154 -0.4334  0.2094  1.1891
12061TIP3   OH257597   2.505   2.239   1.891 -0.1925  0.6734  0.1001
12061TIP3    H157598   2.598   2.263   1.886 -0.3849  1.2234 -1.6143
12061TIP3    H257599   2.501   2.152   1.851 -0.6505  1.5164 -1.8115
12062TIP3   OH257600   2.329   6.409   3.080  0.2830 -0.2611 -0.3446
12062TIP3    H157601   2.374   6.402   3.164 -0.9507 -0.4937  0.3210
12062TIP3    H257602   2.395   6.385   3.015  0.8329 -1.5583  0.6583
12063TIP3   OH257603   4.062   4.301   3.605 -0.4580  0.1835 -0.0137
12063TIP3    H157604   4.108   4.260   3.678 -1.3426  0.3419  0.6507
12063TIP3    H257605   3.994   4.354   3.647 -0.3766  1.0265 -0.9221
12064TIP3   OH257606   5.898   3.649  15.740  0.1628  0.2473  0.5747
12064TIP3    H157607   5.980   3.619  15.701 -0.1225 -0.3285  0.4161
12064TIP3    H257608   5.854   3.569  15.769 -0.8585  0.4426 -0.3650
12065TIP3   OH257609   2.862   1.828   5.211  0.3665  0.2179 -0.0546
12065TIP3    H157610   2.844   1.921   5.200 -0.6037  0.0260 -0.1356
12065TIP3    H257611   2.901   1.801   5.127  1.8331  0.8001  0.4002
12066TIP3   OH257612   2.021   0.917  14.854 -0.2749 -0.4429 -0.0166
12066TIP3    H157613   2.008   0.914  14.949 -0.2143  1.9514  0.1174
12066TIP3    H257614   1.934   0.902  14.817 -0.9712  1.9195  0.5384
12067TIP3   OH257615   4.529   1.786   2.976  0.6231 -0.2068  0.0042
12067TIP3    H157616   4.582   1.857   2.939 -1.3664  1.4341  0.0674
12067TIP3    H257617   4.497   1.821   3.059  1.3802 -2.0933  1.1352
12068TIP3   OH257618   6.417   4.125  11.795 -0.1382 -0.4731 -0.4255
12068TIP3    H157619   6.447   4.196  11.852  2.9898 -0.2469 -2.1752
12068TIP3    H257620   6.428   4.159  11.706  0.7770 -2.8753 -1.3044
12069TIP3   OH257621   3.369   3.399  16.388  0.0364 -0.7337  0.9324
12069TIP3    H157622   3.348   3.314  16.425 -0.6373 -1.5505 -1.1656
12069TIP3    H257623   3.341   3.393  16.296 -0.0965  1.7622  0.7265
12070TIP3   OH257624   2.362   4.426  13.333  0.2274  0.5873  0.4594
12070TIP3    H157625   2.346   4.350  13.277  0.1059  2.1015 -1.6903
12070TIP3    H257626   2.276   4.447  13.370  0.3418 -0.5369  1.4164
12071TIP3   OH257627   2.509   1.959   3.891  0.2745 -0.4514  0.1473
12071TIP3    H157628   2.428   2.005   3.912  0.4666 -0.2902  0.5469
12071TIP3    H257629   2.559   2.020   3.838 -0.3235 -0.9574 -1.0193
12072TIP3   OH257630   1.100   6.542  15.722  0.1144 -0.3122  0.4687
12072TIP3    H157631   1.133   6.477  15.659 -2.7161 -0.1052 -1.3966
12072TIP3    H257632   1.070   6.489  15.796  0.0292 -0.9052  0.0217
12073TIP3   OH257633   6.326   4.390   4.899  0.1293 -0.3860  0.0254
12073TIP3    H157634   6.318   4.302   4.937  1.1499  0.2245  1.7272
12073TIP3    H257635   6.411   4.389   4.855  0.3434 -0.1022  0.4346
12074TIP3   OH257636   6.293   5.324  12.298  0.6036 -0.3489 -0.0295
12074TIP3    H157637   6.232   5.259  12.333 -0.4660  1.0303  0.8034
12074TIP3    H257638   6.249   5.408  12.314  2.2620  0.6196 -0.3823
12075TIP3   OH257639   0.329   6.130  16.412  0.0769  0.4080  0.8316
12075TIP3    H157640   0.423   6.145  16.425  1.1327 -3.3475 -1.0554
12075TIP3    H257641   0.308   6.182  16.334  1.2100 -0.3985 -0.0517
12076TIP3   OH257642   3.403   0.790  12.968 -0.1010  0.0141 -0.6172
12076TIP3    H157643   3.495   0.765  12.957  0.3162  0.9724  0.4117
12076TIP3    H257644   3.361   0.713  13.005  0.5670 -0.0370  0.0587
12077TIP3   OH257645   6.516   3.392   2.992  0.3946 -0.2529 -0.2639
12077TIP3    H157646   6.571   3.470   2.993 -1.0703  0.8837  2.4937
12077TIP3    H257647   6.569   3.325   3.036 -0.0688  0.6336  1.7430
12078TIP3   OH257648   0.984   5.377  12.364  0.1160 -0.2075  0.2111
12078TIP3    H157649   1.006   5.469  12.379  1.5776 -0.6927  1.4168
12078TIP3    H257650   1.045   5.349  12.295 -0.1462 -0.3254  0.0292
12079TIP3   OH257651   2.228   5.763  17.077  0.2240  0.2280 -0.1328
12079TIP3    H157652   2.157   5.710  17.113  0.2212  0.4330  0.1741
12079TIP3    H257653   2.277   5.703  17.021  1.3513 -0.6623  1.6782
12080TIP3   OH257654   6.755   0.547   5.813  0.4385  0.1791  0.3820
12080TIP3    H157655   6.706   0.496   5.748  1.3310  0.1875 -0.3123
12080TIP3    H257656   6.731   0.507   5.897  0.6359 -0.9865 -0.0921
12081TIP3   OH257657   1.689   1.781   4.170  0.0870 -0.4180 -0.2929
12081TIP3    H157658   1.700   1.864   4.125  1.0502 -0.1120  0.4805
12081TIP3    H257659   1.695   1.715   4.101  2.4902 -0.0150 -0.5423
12082TIP3   OH257660   0.156   1.786  15.053 -0.5519 -0.2723 -0.4839
12082TIP3    H157661   0.222   1.851  15.029  0.8829 -0.3567  2.7178
12082TIP3    H257662   0.206   1.707  15.071 -1.4329 -0.3163  2.1011
12083TIP3   OH257663   6.486   4.139  11.523  0.2802 -0.7635 -0.4546
12083TIP3    H157664   6.561   4.094  11.563  0.3468 -0.4588 -0.2327
12083TIP3    H257665   6.522   4.182  11.445  0.8300  1.1968  0.8101
12084TIP3   OH257666   6.412   4.975   3.199  0.1345 -0.3909 -0.4830
12084TIP3    H157667   6.393   4.925   3.278 -0.5408 -1.2697 -1.1690
12084TIP3    H257668   6.500   5.010   3.213  0.4778 -1.4542  0.1975
12085TIP3   OH257669   1.797   3.569   4.102  0.6554  0.0317 -0.5022
12085TIP3    H157670   1.749   3.572   4.019  0.2339  1.7755 -0.2172
12085TIP3    H257671   1.889   3.560   4.075  0.5721  1.1178 -1.1825
12086TIP3   OH257672   0.639   0.215   4.562 -0.8846  0.7295 -0.1390
12086TIP3    H157673   0.604   0.157   4.629  2.9347 -0.6891  0.8766
12086TIP3    H257674   0.644   0.301   4.604 -1.8053  0.6826  0.1015
12087TIP3   OH257675   0.903   6.196   2.834  0.0838 -0.3250  0.2723
12087TIP3    H157676   0.966   6.160   2.897  1.6376  1.0962 -0.3906
12087TIP3    H257677   0.948   6.190   2.750  0.0921  2.3005  0.0194
12088TIP3   OH257678   4.072   6.447   0.726  0.4666 -0.0479 -0.4960
12088TIP3    H157679   4.086   6.417   0.816  1.0240  1.2592 -0.1201
12088TIP3    H257680   4.161   6.458   0.690  0.2635 -1.6583 -1.6243
12089TIP3   OH257681   0.634   0.699  15.128 -0.2529  0.6083 -0.2536
12089TIP3    H157682   0.599   0.680  15.040 -0.5922 -1.2854  0.2500
12089TIP3    H257683   0.710   0.755  15.112 -0.4806  0.5362 -1.7343
12090TIP3   OH257684   6.223   0.257   4.259  0.2071 -0.0257  0.4429
12090TIP3    H157685   6.283   0.257   4.184 -2.3679  0.1725 -1.7408
12090TIP3    H257686   6.195   0.166   4.268 -0.8553  0.2416 -0.0243
12091TIP3   OH257687   0.832   0.613   2.741  0.5278 -0.3548  0.4420
12091TIP3    H157688   0.926   0.601   2.755  0.1749 -1.8264  1.8514
12091TIP3    H257689   0.810   0.553   2.669  0.6197 -0.1768  0.2642
12092TIP3   OH257690   3.585   3.043   2.137 -0.0300  0.6628  0.2194
12092TIP3    H157691   3.633   3.083   2.209  0.3687  1.9170 -0.7134
12092TIP3    H257692   3.527   2.980   2.179  1.0577  0.4951  1.5284
12093TIP3   OH257693   5.579   5.533  12.764 -0.2527  0.1740 -0.3769
12093TIP3    H157694   5.553   5.462  12.706  1.7100 -0.4793 -0.5057
12093TIP3    H257695   5.601   5.491  12.846  0.5000  0.6624 -0.3153
12094TIP3   OH257696   6.540   0.841  11.724 -0.0197  0.2573 -0.0833
12094TIP3    H157697   6.513   0.749  11.731 -0.6069  0.2924 -1.5326
12094TIP3    H257698   6.482   0.888  11.784 -1.5789  0.0064 -1.3396
12095TIP3   OH257699   1.884   3.846   1.865  0.5695 -0.4954  0.3969
12095TIP3    H157700   1.895   3.773   1.925  2.1578  0.3533  1.2212
12095TIP3    H257701   1.844   3.915   1.917  2.1170  0.3073  0.5777
12096TIP3   OH257702   6.367   5.609   1.025  0.2655 -0.1937  0.0682
12096TIP3    H157703   6.414   5.535   0.986 -0.0572 -0.4912  0.2416
12096TIP3    H257704   6.429   5.682   1.020  0.5671 -0.4612 -0.1480
12097TIP3   OH257705   0.328   0.561  16.113  0.0592  0.5054  0.4805
12097TIP3    H157706   0.262   0.621  16.149 -0.3540  0.1147  0.3833
12097TIP3    H257707   0.374   0.613  16.047 -0.5726  0.6002  0.1019
12098TIP3   OH257708   1.374   2.935  13.000  0.6263 -0.4360 -0.1407
12098TIP3    H157709   1.416   2.910  13.082  4.0254  0.3816 -1.4491
12098TIP3    H257710   1.381   2.857  12.945  1.5011  0.0412 -0.7303
12099TIP3   OH257711   0.372   3.019  15.329 -0.0716 -0.5714 -0.4753
12099TIP3    H157712   0.344   3.035  15.419  0.4010  0.7907 -0.5397
12099TIP3    H257713   0.320   3.080  15.276  0.6423 -0.3652 -0.9609
12100TIP3   OH257714   2.530   2.768   4.943 -0.9792  0.3369 -0.0029
12100TIP3    H157715   2.570   2.825   5.009 -1.3906  1.0611 -0.3620
12100TIP3    H257716   2.554   2.808   4.859 -0.0424 -0.8502 -0.3308
12101TIP3   OH257717   3.575   4.257   0.519  0.4393  0.0805 -0.1943
12101TIP3    H157718   3.516   4.233   0.590  1.5347 -2.7979 -0.1398
12101TIP3    H257719   3.549   4.201   0.446  1.8345  0.1580 -0.7887
12102TIP3   OH257720   1.603   3.060   5.850 -0.2073 -0.5383  0.8264
12102TIP3    H157721   1.513   3.074   5.822  0.3880  2.0788 -0.0259
12102TIP3    H257722   1.599   3.057   5.945 -0.8015  4.1982  1.1595
12103TIP3   OH257723   5.028   1.310  14.165  0.2152  0.0590 -0.1642
12103TIP3    H157724   4.967   1.379  14.140  0.8779  0.6648 -0.1335
12103TIP3    H257725   4.999   1.233  14.115 -0.3012  0.4482 -0.4721
12104TIP3   OH257726   5.045   2.678   0.010  0.7429  0.1280 -0.1529
12104TIP3    H157727   5.010   2.592  -0.012  1.1293 -0.1721  0.3803
12104TIP3    H257728   5.140   2.664   0.017  0.9700  0.8784 -1.3735
12105TIP3   OH257729   1.515   4.622   1.567  0.0457  0.6432 -0.4901
12105TIP3    H157730   1.459   4.679   1.514  0.9956  1.4972 -0.5972
12105TIP3    H257731   1.583   4.591   1.507 -0.0160  0.0087 -0.2417
12106TIP3   OH257732   1.953   6.093   3.027 -0.7653  0.6443  0.4207
12106TIP3    H157733   1.969   6.000   3.045  0.0375  0.5912 -0.4884
12106TIP3    H257734   2.016   6.139   3.081  0.7297  0.5318 -1.1304
12107TIP3   OH257735   1.926   0.159   4.141  0.3747 -0.2689  0.1687
12107TIP3    H157736   1.849   0.152   4.086 -0.5079  1.7821  1.0419
12107TIP3    H257737   1.996   0.185   4.081  0.0007 -0.4677 -0.3617
12108TIP3   OH257738   1.354   4.220   4.054 -0.0865 -0.5593 -0.6238
12108TIP3    H157739   1.334   4.242   4.145 -0.1625  0.9493 -0.9771
12108TIP3    H257740   1.446   4.191   4.056 -0.0637 -0.4613 -0.0747
12109TIP3   OH257741   3.347   2.188   3.798 -0.1955  0.2586 -0.2356
12109TIP3    H157742   3.262   2.168   3.760 -0.7273 -2.1793  1.9789
12109TIP3    H257743   3.399   2.220   3.724 -2.8690  1.5556 -1.7136
12110TIP3   OH257744   5.924   0.115   3.311  0.0558  0.2402 -0.3319
12110TIP3    H157745   5.870   0.147   3.383 -1.1819 -1.3215 -0.4915
12110TIP3    H257746   5.883   0.032   3.286  1.8217 -0.3914 -1.3137
12111TIP3   OH257747   1.763   2.427  12.424 -0.1829  0.1003 -0.1357
12111TIP3    H157748   1.749   2.354  12.364  0.5985  0.7131 -1.1021
12111TIP3    H257749   1.781   2.386  12.508  0.9499 -0.8653 -0.8080
12112TIP3   OH257750   3.607   0.045  16.506  0.0250  0.0382 -0.7994
12112TIP3    H157751   3.584   0.047  16.599  0.2503 -0.5286 -0.7301
12112TIP3    H257752   3.523   0.057  16.460 -0.2759 -0.9863 -0.5384
12113TIP3   OH257753   5.598   5.731  15.088  0.2188  0.1601 -0.0445
12113TIP3    H157754   5.676   5.678  15.074 -0.3738 -1.0186  0.9452
12113TIP3    H257755   5.616   5.781  15.167  1.0106  1.9559 -1.2910
12114TIP3   OH257756   5.046   6.196  13.889  0.1131 -0.0653 -0.0536
12114TIP3    H157757   5.137   6.168  13.877 -0.2977 -1.1486 -0.7917
12114TIP3    H257758   5.023   6.164  13.976  1.0662  2.0675  1.0510
12115TIP3   OH257759   0.164   3.926  15.907 -0.7470 -0.4798 -0.0575
12115TIP3    H157760   0.200   3.978  15.979  1.8822 -1.5490 -0.4953
12115TIP3    H257761   0.162   3.836  15.940 -0.3771 -0.8423 -0.9721
12116TIP3   OH257762   1.362   3.391  15.420 -0.4541 -0.0946  0.5097
12116TIP3    H157763   1.269   3.367  15.409  0.4894 -3.4841 -1.9012
12116TIP3    H257764   1.400   3.374  15.334  2.1053  3.3042  0.7963
12117TIP3   OH257765   1.164   3.051  14.667 -0.0157  0.1634  0.1587
12117TIP3    H157766   1.241   3.056  14.724  0.5164  1.1407 -0.6083
12117TIP3    H257767   1.175   2.969  14.619  0.9785  0.6667 -0.5132
12118TIP3   OH257768   1.497   3.761  16.470 -0.0036  0.3211  0.2633
12118TIP3    H157769   1.563   3.825  16.442 -0.4573  0.7550  0.1786
12118TIP3    H257770   1.524   3.679  16.428 -1.0923  1.1142 -2.1450
12119TIP3   OH257771   1.165   0.607   4.541 -0.7835  0.6178  0.1455
12119TIP3    H157772   1.199   0.680   4.490  0.7569  1.5809  2.4206
12119TIP3    H257773   1.150   0.538   4.477 -0.2880  2.2109 -1.7775
12120TIP3   OH257774   3.342   0.505   3.096  0.5983  0.1327 -0.2672
12120TIP3    H157775   3.314   0.592   3.125  0.0037 -0.7472  2.0929
12120TIP3    H257776   3.269   0.471   3.044 -0.2926  0.1161  0.9403
12121TIP3   OH257777   2.367   4.033   2.453 -0.6543  0.6256 -0.1654
12121TIP3    H157778   2.420   4.086   2.511  1.1288 -0.5458 -0.6341
12121TIP3    H257779   2.312   4.096   2.406  1.1301  2.0386 -0.4684
12122TIP3   OH257780   2.660   3.290   0.107  0.0952 -0.6264  0.0936
12122TIP3    H157781   2.564   3.295   0.108  0.0551 -1.3825  0.2790
12122TIP3    H257782   2.680   3.198   0.124  0.8933 -0.2018  1.7023
12123TIP3   OH257783   2.732   3.942   1.502  0.3175 -0.3268  0.0572
12123TIP3    H157784   2.804   3.956   1.441 -1.2742  1.2054 -1.5874
12123TIP3    H257785   2.700   4.030   1.522 -1.1545 -0.9749  0.6799
12124TIP3   OH257786   4.523   5.816  13.517 -0.2891  0.2011 -0.3848
12124TIP3    H157787   4.574   5.737  13.502 -0.1187  0.3003 -0.3298
12124TIP3    H257788   4.440   5.785  13.554 -0.5192 -0.0036 -1.0689
12125TIP3   OH257789   1.782   6.009  16.734  0.0359  0.0944  0.2886
12125TIP3    H157790   1.848   5.943  16.713  0.1276  0.3606 -0.3202
12125TIP3    H257791   1.829   6.092  16.722 -0.4224  0.2850 -0.2004
12126TIP3   OH257792   4.650   6.610  14.214  0.2679  0.0208  0.7786
12126TIP3    H157793   4.626   6.692  14.171 -1.0237 -0.8128 -0.1713
12126TIP3    H257794   4.746   6.612  14.217  0.2731  1.4309  0.5577
12127TIP3   OH257795   3.520   0.562  12.690 -0.4754  0.1897  0.2904
12127TIP3    H157796   3.508   0.554  12.596  0.2070 -0.7723  0.2744
12127TIP3    H257797   3.432   0.584  12.723 -0.9395 -0.4788 -0.4629
12128TIP3   OH257798   0.361   4.208   6.047 -0.3350 -0.4090  0.0709
12128TIP3    H157799   0.316   4.202   6.131 -0.4360 -0.3641  0.0205
12128TIP3    H257800   0.429   4.274   6.061 -0.0703 -0.7180  0.2444
12129TIP3   OH257801   1.990   3.866   5.531 -0.3284 -0.4027 -0.4532
12129TIP3    H157802   2.022   3.875   5.441 -1.0533 -0.2169 -0.6993
12129TIP3    H257803   2.069   3.852   5.584  0.1368 -0.1013 -1.0632
12130TIP3   OH257804   3.458   0.293   4.682 -0.2692 -0.2147  0.8134
12130TIP3    H157805   3.440   0.214   4.732 -0.5611 -0.0863  0.9165
12130TIP3    H257806   3.465   0.362   4.749 -0.0215 -0.1538  0.7251
12131TIP3   OH257807   6.690   1.347  12.252  0.2905 -0.2689 -0.9348
12131TIP3    H157808   6.669   1.346  12.159  1.8355 -1.3252 -1.3163
12131TIP3    H257809   6.688   1.255  12.278 -0.5239  0.0502  0.1855
12132TIP3   OH257810   3.290   0.682   2.850 -0.1181 -0.4183  0.1883
12132TIP3    H157811   3.317   0.655   2.937  1.0574 -0.3389 -0.1374
12132TIP3    H257812   3.235   0.759   2.864 -1.3333 -1.3864  0.9465
12133TIP3   OH257813   4.452   6.241   2.844 -0.5638  0.6653  0.2673
12133TIP3    H157814   4.541   6.212   2.823 -1.7962 -1.6213 -2.3052
12133TIP3    H257815   4.411   6.165   2.886 -2.3593  0.2960 -1.9763
12134TIP3   OH257816   6.715   5.571  17.285  0.2870  0.2217  0.3740
12134TIP3    H157817   6.686   5.591  17.196 -0.1997 -1.5277  0.1035
12134TIP3    H257818   6.657   5.501  17.315  1.1857 -0.0380  1.6314
12135TIP3   OH257819   4.241   1.515  11.020  0.3616 -0.4696  0.4407
12135TIP3    H157820   4.233   1.570  11.098  2.4169  0.3909  0.1250
12135TIP3    H257821   4.336   1.505  11.008  0.0881 -1.0587 -1.6143
12136TIP3   OH257822   0.923   5.915  15.758  0.3345 -0.3363  0.5464
12136TIP3    H157823   0.932   5.859  15.681  0.8036 -1.1845  1.2076
12136TIP3    H257824   0.882   5.859  15.824  0.8535  0.0780  1.2328
12137TIP3   OH257825   0.817   2.820   5.541 -0.2178  0.2555  0.4765
12137TIP3    H157826   0.865   2.796   5.461 -1.6925  1.1688 -0.7389
12137TIP3    H257827   0.770   2.899   5.517 -3.1203 -1.1103  1.2565
12138TIP3   OH257828   2.530   4.450  15.590 -0.2652  0.3362 -0.2762
12138TIP3    H157829   2.566   4.463  15.502 -0.6033 -1.0085 -0.6353
12138TIP3    H257830   2.530   4.355  15.602 -0.9521  0.4657  0.8748
12139TIP3   OH257831   2.436   0.318   3.912  0.3578  0.1096  0.3261
12139TIP3    H157832   2.489   0.323   3.833  1.9843 -1.4083  1.2309
12139TIP3    H257833   2.437   0.407   3.948  2.0368  0.2145  0.1099
12140TIP3   OH257834   1.231   1.637  14.055  0.0272  0.2759 -0.3595
12140TIP3    H157835   1.256   1.544  14.055 -0.5655  0.0618 -2.6453
12140TIP3    H257836   1.294   1.678  13.997 -0.5599  1.0591 -0.4465
12141TIP3   OH257837   2.468   2.519   3.672 -0.5710 -0.2392 -0.2610
12141TIP3    H157838   2.537   2.507   3.738  0.5243 -1.6351 -1.5914
12141TIP3    H257839   2.485   2.607   3.637  0.6286 -0.6021 -0.6437
12142TIP3   OH257840   1.135   4.095   2.575 -0.4633 -0.8321  0.1199
12142TIP3    H157841   1.207   4.036   2.600 -0.0362 -0.8379 -1.0599
12142TIP3    H257842   1.065   4.075   2.638 -0.8920 -3.6966 -1.0688
12143TIP3   OH257843   0.751   4.151  11.737  0.2614  0.1506 -0.0700
12143TIP3    H157844   0.670   4.174  11.692 -0.7127 -0.0706  1.4963
12143TIP3    H257845   0.745   4.057  11.750  0.5795  0.1957  0.4108
12144TIP3   OH257846   0.617   0.847  17.208 -0.6220  0.3521 -0.0407
12144TIP3    H157847   0.638   0.937  17.234 -0.7435  0.1247  0.9030
12144TIP3    H257848   0.686   0.822  17.147  0.6993  0.3336  1.3889
12145TIP3   OH257849   2.035   5.455   1.934 -0.0800 -0.0153 -0.3204
12145TIP3    H157850   2.125   5.425   1.930 -0.0670  0.0752 -0.7370
12145TIP3    H257851   1.983   5.378   1.909 -0.0351  0.3555 -1.6033
12146TIP3   OH257852   2.549   5.205   2.878  0.6815 -0.2084 -0.2647
12146TIP3    H157853   2.473   5.263   2.885  1.0736  0.2999 -0.1427
12146TIP3    H257854   2.521   5.134   2.821 -0.4109 -0.8657  1.0226
12147TIP3   OH257855   4.301   1.947  12.660 -0.0049  0.0249  0.4029
12147TIP3    H157856   4.212   1.914  12.655  0.4658 -1.1397 -1.5251
12147TIP3    H257857   4.306   2.014  12.591  0.6365 -0.0170  0.3950
12148TIP3   OH257858   2.867   6.485   0.287 -0.2496  0.3060 -0.5548
12148TIP3    H157859   2.852   6.515   0.198  0.2987 -0.3363 -0.8789
12148TIP3    H257860   2.846   6.392   0.285  0.9740  0.0103 -0.3354
12149TIP3   OH257861   0.437   0.754  16.516 -0.8874  0.3727  0.8654
12149TIP3    H157862   0.351   0.788  16.491 -0.9625 -0.3935  0.0144
12149TIP3    H257863   0.443   0.669  16.473  0.1815  0.2816  1.1489
12150TIP3   OH257864   2.762   0.721  13.159  0.5820  0.2155 -0.3461
12150TIP3    H157865   2.709   0.739  13.081  1.6315 -0.2890 -1.2029
12150TIP3    H257866   2.709   0.753  13.232 -2.3809 -3.0547 -0.7927
12151TIP3   OH257867   1.755   4.984  13.921 -0.2451 -0.2613 -0.1080
12151TIP3    H157868   1.719   5.051  13.978  1.9441  1.5688 -0.7442
12151TIP3    H257869   1.694   4.980  13.847  0.5218  2.4813 -1.0012
12152TIP3   OH257870   0.719   1.443   3.153 -0.2708  0.2652  0.4912
12152TIP3    H157871   0.639   1.392   3.166  0.3336 -0.9701 -0.4192
12152TIP3    H257872   0.700   1.498   3.077 -0.0031 -0.5978 -0.2125
12153TIP3   OH257873   5.469   1.324  15.756  0.0656  0.6881  0.5946
12153TIP3    H157874   5.408   1.251  15.770 -0.9582  1.6595  1.3702
12153TIP3    H257875   5.506   1.307  15.670  0.1784 -0.9831  0.9284
12154TIP3   OH257876   2.119   3.335  15.042 -0.6780 -0.6786  0.0005
12154TIP3    H157877   2.076   3.337  15.127 -1.8620 -0.3203 -0.5880
12154TIP3    H257878   2.157   3.247  15.036 -3.0489 -1.7646 -0.2512
12155TIP3   OH257879   5.064   2.073  12.146  0.0369  0.8881 -0.7171
12155TIP3    H157880   5.055   1.981  12.120  2.7603  0.8875 -1.9800
12155TIP3    H257881   4.975   2.109  12.139 -1.2675 -1.7768  0.6048
12156TIP3   OH257882   4.661   3.998  12.893 -0.4225 -0.5702  0.0780
12156TIP3    H157883   4.598   3.997  12.822 -0.7717  0.6580  0.3488
12156TIP3    H257884   4.745   3.981  12.851 -0.5907  0.4078 -0.6840
12157TIP3   OH257885   3.339   0.518   0.911 -0.6709 -0.6471 -0.5102
12157TIP3    H157886   3.312   0.584   0.846 -1.8038  0.1620  0.7385
12157TIP3    H257887   3.266   0.457   0.914  0.2041 -1.7900 -1.3586
12158TIP3   OH257888   2.440   0.957  17.013  0.3540 -0.4656 -0.2095
12158TIP3    H157889   2.469   0.868  17.033  1.2628  0.0604  0.9314
12158TIP3    H257890   2.345   0.954  17.024  0.1256 -1.7394 -2.0877
12159TIP3   OH257891   4.133   0.271  11.977  0.0852  0.3375 -0.2904
12159TIP3    H157892   4.079   0.193  11.986 -1.7206  1.3657 -1.4841
12159TIP3    H257893   4.218   0.246  12.011 -1.2702 -1.2083  2.2292
12160TIP3   OH257894   0.738   5.923   4.832  0.5647  0.4661  0.0271
12160TIP3    H157895   0.820   5.904   4.786  0.3557 -0.7204  0.1322
12160TIP3    H257896   0.734   5.860   4.903 -0.0907  0.9942  0.4778
12161TIP3   OH257897   0.696   3.386  14.313 -0.5659 -0.2439  1.2690
12161TIP3    H157898   0.601   3.396  14.320 -0.4901 -0.5203  3.3017
12161TIP3    H257899   0.731   3.446  14.380  0.9662  3.2846 -2.2749
12162TIP3   OH257900   0.673   5.767  15.060  0.4355 -0.0935  0.5031
12162TIP3    H157901   0.644   5.689  15.013 -0.5440  1.5015 -1.6941
12162TIP3    H257902   0.634   5.840  15.013 -1.4650  1.6947  4.3858
12163TIP3   OH257903   3.053   0.869   5.685 -0.0535  0.4907  0.1570
12163TIP3    H157904   3.039   0.830   5.599  0.7031  2.0602 -0.7293
12163TIP3    H257905   3.147   0.860   5.700 -0.1070  0.6643  0.6097
12164TIP3   OH257906   3.837   4.526  14.396 -0.8842 -0.2346 -0.2429
12164TIP3    H157907   3.835   4.478  14.479 -2.3793 -1.5141 -0.9709
12164TIP3    H257908   3.929   4.549  14.385 -0.7245  0.5401  2.0669
12165TIP3   OH257909   2.704   2.254  16.534  0.6337 -0.2229 -0.2541
12165TIP3    H157910   2.754   2.176  16.558 -1.9330 -1.9073 -0.0273
12165TIP3    H257911   2.636   2.221  16.475 -0.4576  1.8759 -0.2437
12166TIP3   OH257912   4.978   0.199  14.175  0.3630 -0.4039  0.4732
12166TIP3    H157913   4.976   0.105  14.158  3.1327 -0.4206 -0.2461
12166TIP3    H257914   4.946   0.208  14.265  0.2359 -2.0354  0.6213
12167TIP3   OH257915   6.377   5.525   1.940  0.3607 -0.3942 -0.0190
12167TIP3    H157916   6.307   5.490   1.996  1.9802  1.0235  3.2008
12167TIP3    H257917   6.360   5.619   1.935  3.0985  0.5090  3.0551
12168TIP3   OH257918   0.274   5.547   0.492 -0.6983 -0.1090  0.4914
12168TIP3    H157919   0.283   5.622   0.434  0.9643  0.6910  1.7090
12168TIP3    H257920   0.228   5.581   0.569  2.0341  0.3720  2.0591
12169TIP3   OH257921   3.260   4.745   2.230 -0.0967  0.1914  0.5503
12169TIP3    H157922   3.296   4.705   2.309  0.0172  0.0234  0.4149
12169TIP3    H257923   3.266   4.676   2.164  0.3458  0.5126  0.2468
12170TIP3   OH257924   6.045   4.792   4.363 -0.0678  0.5881 -0.3479
12170TIP3    H157925   6.080   4.857   4.425  0.2543 -0.6409  0.8294
12170TIP3    H257926   5.954   4.780   4.390  0.0181  0.1926 -0.2223
12171TIP3   OH257927   5.617   4.143  14.824  0.5673 -0.3975  0.3368
12171TIP3    H157928   5.603   4.229  14.865 -0.2378 -0.9032  1.1779
12171TIP3    H257929   5.530   4.118  14.792  1.2159  0.0724 -1.9467
12172TIP3   OH257930   0.784   1.617  13.587 -0.5887  0.1343  0.8544
12172TIP3    H157931   0.725   1.589  13.656 -0.8353  1.6955  1.3099
12172TIP3    H257932   0.871   1.592  13.618 -0.8715 -1.0655  0.7356
12173TIP3   OH257933   1.038   0.649  15.307  0.6497  0.1312  0.1316
12173TIP3    H157934   1.126   0.619  15.287 -0.0774 -0.4903 -2.5968
12173TIP3    H257935   1.003   0.583  15.367  1.4941 -0.5175 -0.0788
12174TIP3   OH257936   6.439   0.230  14.100 -0.4885 -0.1712  0.2386
12174TIP3    H157937   6.506   0.294  14.124  0.1366 -0.4749 -0.6595
12174TIP3    H257938   6.435   0.171  14.175 -2.3544  1.8682  1.8963
12175TIP3   OH257939   1.993   4.342  14.027 -0.0300 -0.1223  0.1191
12175TIP3    H157940   2.057   4.371  14.092 -0.2524  2.4790 -0.7446
12175TIP3    H257941   1.975   4.419  13.974 -2.0718 -1.4153 -1.2082
12176TIP3   OH257942   4.889   1.115  15.497 -0.1986 -0.3769  0.2789
12176TIP3    H157943   4.794   1.108  15.509 -0.3255  0.2584 -0.2885
12176TIP3    H257944   4.913   1.194  15.545 -0.4110  1.0586 -1.8233
12177TIP3   OH257945   5.432   4.965  14.895 -0.1804  0.7119 -0.2748
12177TIP3    H157946   5.458   4.955  14.986 -1.9570 -0.0037  0.2187
12177TIP3    H257947   5.430   4.875  14.861 -2.2246  0.6465 -0.1453
12178TIP3   OH257948   0.206   2.607   0.897  0.2853  0.0714  0.2556
12178TIP3    H157949   0.269   2.672   0.865  0.3391 -0.5048 -0.8528
12178TIP3    H257950   0.259   2.548   0.952  0.4466  0.3464  0.3988
12179TIP3   OH257951   4.126   3.014   5.071  0.4390  0.2608  0.9450
12179TIP3    H157952   4.139   2.966   5.152 -2.7421  0.1901  1.5298
12179TIP3    H257953   4.123   2.946   5.003 -1.0364 -0.1185  1.3636
12180TIP3   OH257954   3.876   5.917  13.869  0.0950  0.3011  0.2363
12180TIP3    H157955   3.929   5.853  13.822  0.1335  0.8380 -0.4558
12180TIP3    H257956   3.803   5.866  13.904 -1.4087  0.2795 -2.6237
12181TIP3   OH257957   2.728   4.915   3.603 -0.2459 -0.3778 -0.5771
12181TIP3    H157958   2.694   4.944   3.519 -0.0536  1.3323 -0.1012
12181TIP3    H257959   2.770   4.992   3.640 -0.5190 -1.0224  1.1920
12182TIP3   OH257960   6.291   5.857   4.854  0.1813 -0.2759 -0.2389
12182TIP3    H157961   6.271   5.946   4.882  2.7580  0.7287 -1.2679
12182TIP3    H257962   6.324   5.813   4.933 -0.7105 -0.2186  0.1771
12183TIP3   OH257963   0.671   5.055  10.842 -0.0685 -0.1053 -0.6243
12183TIP3    H157964   0.604   5.120  10.865 -0.7371 -1.2076  0.6391
12183TIP3    H257965   0.623   4.985  10.798 -0.0390 -1.5493  1.5004
12184TIP3   OH257966   6.632   0.475   2.298  0.7742 -0.2085 -0.5591
12184TIP3    H157967   6.703   0.536   2.321  2.2517 -1.8146 -0.6788
12184TIP3    H257968   6.559   0.532   2.272  1.0563  1.5666  2.1880
12185TIP3   OH257969   6.714   5.834  16.797 -0.0132  0.0324 -0.5401
12185TIP3    H157970   6.646   5.900  16.782  0.5143  0.8415  0.5057
12185TIP3    H257971   6.796   5.879  16.777  0.4595  0.1440  1.4014
12186TIP3   OH257972   3.232   1.458  14.553 -0.2540 -0.0911 -0.0137
12186TIP3    H157973   3.241   1.550  14.576 -0.2356  0.0794 -0.7003
12186TIP3    H257974   3.276   1.411  14.624 -2.2775  0.2922  1.6069
12187TIP3   OH257975   5.519   0.960   2.270 -0.4240  0.1504  0.0551
12187TIP3    H157976   5.506   0.891   2.205  2.8913  0.1627 -0.8227
12187TIP3    H257977   5.577   1.022   2.227  0.4724  1.0724  2.4297
12188TIP3   OH257978   1.132   1.365   2.860 -0.5192 -0.3699 -0.4397
12188TIP3    H157979   1.091   1.280   2.849  1.1267 -1.0633 -1.7757
12188TIP3    H257980   1.150   1.372   2.954  0.6971 -2.2246 -0.4861
12189TIP3   OH257981   3.524   0.763  14.260 -0.0912  1.2743  0.5165
12189TIP3    H157982   3.571   0.686  14.291  1.4811  2.6252  1.6756
12189TIP3    H257983   3.501   0.743  14.169  1.4671 -0.0229  0.3789
12190TIP3   OH257984   5.249   1.081  17.070 -0.5762 -0.0098  0.2218
12190TIP3    H157985   5.177   1.019  17.058  1.0898 -2.0514  0.1132
12190TIP3    H257986   5.241   1.110  17.160  0.5270 -3.1521  1.4828
12191TIP3   OH257987   1.030   5.779  17.171  0.0305 -0.4969  0.4693
12191TIP3    H157988   1.041   5.861  17.220 -0.9894  0.1942 -0.4243
12191TIP3    H257989   0.935   5.768  17.164  0.1609 -0.9547 -0.7476
12192TIP3   OH257990   5.456   4.862  16.042 -0.5723 -0.5004 -0.5260
12192TIP3    H157991   5.443   4.953  16.016 -0.3923 -0.5612 -0.8338
12192TIP3    H257992   5.549   4.857  16.066 -0.9028 -0.2526  0.9224
12193TIP3   OH257993   5.784   5.033  12.228  0.0682  0.0368 -0.5156
12193TIP3    H157994   5.694   5.066  12.219  0.2670  1.0249  0.8457
12193TIP3    H257995   5.781   4.946  12.187 -2.2072 -1.1267  1.8399
12194TIP3   OH257996   5.584   2.456   1.388 -0.0679  0.4434 -0.2351
12194TIP3    H157997   5.507   2.440   1.443  0.1638  0.6610  0.1577
12194TIP3    H257998   5.552   2.445   1.299  0.2474 -3.0647 -0.0457
12195TIP3   OH257999   5.741   6.730   3.912  0.1916  0.0908 -0.1426
12195TIP3    H158000   5.692   6.687   3.982  3.0170 -1.4000  1.0910
12195TIP3    H258001   5.681   6.731   3.838 -2.3855  0.3041  1.8006
12196TIP3   OH258002   0.247   2.606   4.082  0.2773 -0.0578  0.3289
12196TIP3    H158003   0.235   2.555   4.162  0.3395 -1.9274 -0.8044
12196TIP3    H258004   0.189   2.565   4.018  0.9669  0.7587 -0.8604
12197TIP3   OH258005   5.242   5.103  10.404  0.0875  0.1030 -0.2501
12197TIP3    H158006   5.278   5.155  10.332 -0.7437 -1.7159 -2.0524
12197TIP3    H258007   5.172   5.158  10.440  1.9976  2.0185  0.7905
12198TIP3   OH258008   4.918   0.244   6.028 -0.2250  0.1677  1.0343
12198TIP3    H158009   4.876   0.168   5.988  1.3562  0.5639 -1.5800
12198TIP3    H258010   5.010   0.218   6.036  0.1630  1.4824  0.9838
12199TIP3   OH258011   4.372   5.709  13.755  0.2765 -0.0459 -0.2586
12199TIP3    H158012   4.372   5.678  13.846  0.9521 -0.2649 -0.3252
12199TIP3    H258013   4.378   5.630  13.703 -1.5306 -0.0186 -0.5571
12200TIP3   OH258014   2.022   2.477  13.280 -0.3846  0.2147 -0.0150
12200TIP3    H158015   2.049   2.545  13.342  0.6410 -1.0881  1.0320
12200TIP3    H258016   2.086   2.406  13.293 -2.0880 -1.4348 -0.2078
12201TIP3   OH258017   6.059   5.287  13.552 -0.3035 -0.5254 -0.7955
12201TIP3    H158018   6.123   5.257  13.616 -0.2486 -1.5621 -1.3060
12201TIP3    H258019   5.975   5.281  13.596 -0.0874  0.5581 -0.2175
12202TIP3   OH258020   2.555   6.304  12.083  0.4512  0.3668 -0.2648
12202TIP3    H158021   2.515   6.218  12.072  1.6289 -0.1533 -0.6984
12202TIP3    H258022   2.592   6.302  12.171  1.2734  0.0692 -0.6074
12203TIP3   OH258023   4.272   0.214   4.224 -0.6345  0.0206 -0.7132
12203TIP3    H158024   4.242   0.283   4.165  1.3792  0.8050 -0.8854
12203TIP3    H258025   4.247   0.245   4.311  0.8357  1.3692 -0.7173
12204TIP3   OH258026   4.504   5.350   6.080 -0.2224  0.0540  0.1911
12204TIP3    H158027   4.457   5.414   6.026  2.3270  2.0159  0.1215
12204TIP3    H258028   4.472   5.365   6.169  1.3096  2.5446  0.4150
12205TIP3   OH258029   0.415   0.268  16.017 -0.4283 -0.7913  0.3142
12205TIP3    H158030   0.350   0.281  16.086 -0.0125 -0.2162  0.6019
12205TIP3    H258031   0.379   0.196  15.964 -1.2377 -0.5574  0.5321
12206TIP3   OH258032   0.814   2.882  12.279  0.4717 -0.2600  0.1440
12206TIP3    H158033   0.894   2.906  12.325  1.1075 -0.4707 -0.8068
12206TIP3    H258034   0.820   2.928  12.195 -0.5984  0.0316  0.2209
12207TIP3   OH258035   6.623   1.212  16.890  0.4963  0.5572  0.2966
12207TIP3    H158036   6.643   1.129  16.848  1.2827  1.4595 -1.1899
12207TIP3    H258037   6.708   1.254  16.901  0.2315  0.7109  2.0987
12208TIP3   OH258038   2.109   1.149  10.789  0.1212 -0.0629  0.1997
12208TIP3    H158039   2.138   1.240  10.789 -2.9450  1.0424 -0.3780
12208TIP3    H258040   2.107   1.125  10.696  0.3877 -0.5336  0.3150
12209TIP3   OH258041   0.141   6.435  14.972 -0.1909 -0.0376 -0.4111
12209TIP3    H158042   0.124   6.529  14.975  0.7075  0.2027 -1.9510
12209TIP3    H258043   0.114   6.409  14.883  2.0572 -0.7068 -0.9476
12210TIP3   OH258044   5.116   0.004  15.667  0.3959 -0.1370 -0.1716
12210TIP3    H158045   5.134   0.054  15.588 -0.5509 -0.4412 -0.5888
12210TIP3    H258046   5.156  -0.082  15.651 -0.0413 -0.2926 -0.4430
12211TIP3   OH258047   3.010   0.477  11.803  0.0995  0.1214  0.2109
12211TIP3    H158048   3.033   0.419  11.875 -0.5302  1.7752  1.8178
12211TIP3    H258049   3.088   0.479  11.748  0.4650 -1.4670  0.6183
12212TIP3   OH258050   2.295   6.310  13.907 -0.1586 -0.1732  0.2578
12212TIP3    H158051   2.210   6.330  13.869  0.1343  1.8497  0.5397
12212TIP3    H258052   2.283   6.225  13.949 -2.1856  0.3000  0.7468
12213TIP3   OH258053   6.374   1.621  16.627 -0.3875  0.1495  0.3326
12213TIP3    H158054   6.405   1.703  16.666 -0.2596 -1.2414  3.3638
12213TIP3    H258055   6.378   1.637  16.532  1.6555  2.8734  0.7637
12214TIP3   OH258056   6.680   6.551  11.479 -0.4752  0.0263  0.0743
12214TIP3    H158057   6.680   6.555  11.574  0.0738  0.5466  0.0508
12214TIP3    H258058   6.627   6.626  11.451  0.4504  0.6432 -0.0585
12215TIP3   OH258059   0.376   4.476   2.846  0.4916  0.2643 -0.1383
12215TIP3    H158060   0.442   4.439   2.905  0.1058 -1.7690 -0.8925
12215TIP3    H258061   0.294   4.465   2.894  0.3367 -0.1943 -0.4983
12216TIP3   OH258062   1.447   1.691  11.982  0.7248  0.3931  0.0433
12216TIP3    H158063   1.358   1.699  12.016  1.0870 -0.0966  1.1606
12216TIP3    H258064   1.497   1.759  12.028  1.1456 -0.0253  0.2215
12217TIP3   OH258065   0.730   0.106  13.567 -0.0619  0.2046  0.2671
12217TIP3    H158066   0.769   0.057  13.639 -0.1749  0.1913  0.3192
12217TIP3    H258067   0.744   0.050  13.490  0.9899  0.6783  0.0816
12218TIP3   OH258068   4.130   3.029  17.187 -0.0767 -0.4009 -0.2102
12218TIP3    H158069   4.065   3.083  17.144 -0.4303 -0.4046  0.3054
12218TIP3    H258070   4.097   2.940  17.178  1.4762 -0.8042 -2.7856
12219TIP3   OH258071   2.384   5.835   1.877 -0.3981 -0.0351  0.3336
12219TIP3    H158072   2.389   5.775   1.952 -0.1778 -1.2136 -0.5885
12219TIP3    H258073   2.295   5.869   1.879 -0.5369 -0.4150  0.8678
12220TIP3   OH258074   0.465   3.734   5.987 -0.2275 -0.4772  0.9362
12220TIP3    H158075   0.465   3.746   6.082  2.0140 -1.9423  1.1980
12220TIP3    H258076   0.551   3.767   5.958 -1.3158  1.0372 -0.7835
12221TIP3   OH258077   1.272   0.861   2.687 -0.4742  0.2664  0.1178
12221TIP3    H158078   1.336   0.932   2.682 -1.3551  1.2495  1.9183
12221TIP3    H258079   1.268   0.826   2.598 -0.3448  2.7677 -0.9490
12222TIP3   OH258080   6.100   0.678  11.808 -0.0980 -0.5257  0.3315
12222TIP3    H158081   6.035   0.727  11.759  0.4497 -0.2922 -0.1692
12222TIP3    H258082   6.089   0.587  11.778 -0.6490 -0.6036  0.7550
12223TIP3   OH258083   2.348   5.059   0.332  0.4378  0.3191 -0.3460
12223TIP3    H158084   2.436   5.097   0.340  0.0822  0.9046  1.2367
12223TIP3    H258085   2.299   5.122   0.279  0.3778  1.1473  0.6621
12224TIP3   OH258086   4.766   2.376  11.126  0.0687  0.1152 -0.5118
12224TIP3    H158087   4.746   2.464  11.094 -1.3164 -0.1687 -0.4793
12224TIP3    H258088   4.728   2.318  11.061 -0.6283 -0.4546  0.3820
12225TIP3   OH258089   2.391   0.660  14.988 -0.2958 -0.2068  0.2138
12225TIP3    H158090   2.355   0.596  15.050 -4.1353  0.5638 -0.9312
12225TIP3    H258091   2.353   0.743  15.015 -0.7611  0.4186 -2.1650
12226TIP3   OH258092   3.192   6.731   6.339  0.0308  0.0480 -0.6861
12226TIP3    H158093   3.267   6.684   6.376 -1.7302 -1.6054  0.9661
12226TIP3    H258094   3.217   6.823   6.347  0.7841 -0.3116  2.4987
12227TIP3   OH258095   1.138   1.858   4.211  0.5198 -0.2097  0.0621
12227TIP3    H158096   1.156   1.951   4.194 -0.0095  0.3027  2.0141
12227TIP3    H258097   1.205   1.811   4.161  1.3642  1.2513 -0.2425
12228TIP3   OH258098   6.704   4.002   1.374  0.2210  0.3102  0.3308
12228TIP3    H158099   6.633   4.043   1.424  0.7450  3.1519 -1.0460
12228TIP3    H258100   6.660   3.964   1.298 -0.0678 -0.1938  0.7366
12229TIP3   OH258101   2.454   0.747   6.044 -0.4658 -0.7348 -0.6428
12229TIP3    H158102   2.471   0.826   5.992 -0.8918 -0.1299  0.1096
12229TIP3    H258103   2.540   0.716   6.070 -0.3416  1.0062  1.2586
12230TIP3   OH258104   5.154   5.814   3.226  0.6162 -0.6447  0.0343
12230TIP3    H158105   5.101   5.734   3.227  1.8138 -1.5550 -2.0378
12230TIP3    H258106   5.242   5.784   3.249  1.0075  0.1166 -0.4299
12231TIP3   OH258107   3.510   4.842   1.316  0.0600 -0.5540 -0.7907
12231TIP3    H158108   3.472   4.823   1.402  2.0266  0.5712  0.4250
12231TIP3    H258109   3.491   4.764   1.264 -0.8483 -1.4561  0.7949
12232TIP3   OH258110   6.628   0.191   5.318  0.1795  0.6420  0.8287
12232TIP3    H158111   6.643   0.183   5.412 -1.3925 -0.4314  1.0229
12232TIP3    H258112   6.595   0.279   5.306 -1.7202  0.0788  1.6317
12233TIP3   OH258113   2.123   6.512   2.780 -0.0185  0.2108 -0.2189
12233TIP3    H158114   2.034   6.513   2.815  0.5852 -2.1819  1.6348
12233TIP3    H258115   2.170   6.577   2.833 -0.2865  0.3260 -0.1206
12234TIP3   OH258116   4.365   4.744  16.229  0.2191 -0.5056 -0.5121
12234TIP3    H158117   4.289   4.802  16.220  0.8249  0.0425 -2.7422
12234TIP3    H258118   4.345   4.669  16.173  2.0915  0.5793 -2.8072
12235TIP3   OH258119   1.169   4.273  15.138  0.6938 -0.5283  0.5127
12235TIP3    H158120   1.190   4.366  15.152  1.3058 -0.4336 -0.9143
12235TIP3    H258121   1.073   4.271  15.141  0.6063  0.3821 -0.5831
12236TIP3   OH258122   2.826   2.763  16.714 -0.0933 -0.1067  0.1419
12236TIP3    H158123   2.782   2.728  16.792  3.0578  0.1402  2.2019
12236TIP3    H258124   2.830   2.688  16.654 -0.9563 -0.8513  0.9696
12237TIP3   OH258125   6.473   3.652   6.193  0.0933  0.2621  0.1732
12237TIP3    H158126   6.459   3.671   6.286 -1.7848 -1.2660  0.2570
12237TIP3    H258127   6.547   3.591   6.193 -1.0573 -1.1997  0.8857
12238TIP3   OH258128   0.555   0.343  17.198 -0.7407  0.3005  0.7079
12238TIP3    H158129   0.498   0.267  17.187  0.0440 -0.4087  1.4520
12238TIP3    H258130   0.592   0.358  17.111 -0.3798 -0.5896  0.7007
12239TIP3   OH258131   2.597   0.509   3.132 -0.0883  0.4097  0.4462
12239TIP3    H158132   2.620   0.462   3.213 -2.7648 -0.9117  0.5332
12239TIP3    H258133   2.662   0.479   3.068 -0.0658 -1.3088  1.2200
12240TIP3   OH258134   2.392   3.289   5.463 -0.4210  0.2043  0.4025
12240TIP3    H158135   2.412   3.363   5.406  0.8460  0.2053  0.8327
12240TIP3    H258136   2.299   3.271   5.446 -0.4126  1.0522 -0.6604
12241TIP3   OH258137   5.341   6.137  12.744 -0.2099  0.2088  0.3530
12241TIP3    H158138   5.421   6.145  12.795  0.5643 -2.5506 -0.3182
12241TIP3    H258139   5.370   6.135  12.653 -1.3288  1.8708 -0.1052
12242TIP3   OH258140   6.432   1.740   0.456  0.0367 -0.6772  0.5038
12242TIP3    H158141   6.398   1.808   0.514 -1.8843  0.7459 -2.0700
12242TIP3    H258142   6.514   1.776   0.422 -0.3966 -0.1296  0.0201
12243TIP3   OH258143   1.477   4.624   4.436  0.5434  0.2755  0.2838
12243TIP3    H158144   1.564   4.635   4.398  0.1028 -2.0028 -1.6516
12243TIP3    H258145   1.417   4.659   4.370 -0.0892  0.3501  0.8875
12244TIP3   OH258146   4.133   3.832   0.157  0.2816 -0.4221 -0.3568
12244TIP3    H158147   4.215   3.881   0.164  0.4381 -0.7083 -0.2043
12244TIP3    H258148   4.066   3.899   0.142  0.1224  0.0867  2.2437
12245TIP3   OH258149   3.765   2.136   3.943 -0.0820  0.0531  0.5742
12245TIP3    H158150   3.860   2.148   3.944  0.1471 -1.5786  1.8036
12245TIP3    H258151   3.735   2.183   4.020 -0.0180 -1.1245  1.3315
12246TIP3   OH258152   2.448   3.467  12.857  0.0303 -0.0627  0.1038
12246TIP3    H158153   2.409   3.505  12.936 -1.0418  0.1738 -0.5157
12246TIP3    H258154   2.392   3.498  12.786  0.0989 -1.4666 -0.5994
12247TIP3   OH258155   5.812   3.255  17.231 -0.1863 -0.1754  0.1599
12247TIP3    H158156   5.856   3.224  17.152 -1.7131 -1.2365 -0.2979
12247TIP3    H258157   5.812   3.180  17.290 -2.1014 -0.4822 -0.1798
12248TIP3   OH258158   1.870   5.341   3.235  0.7623 -0.3505 -0.0590
12248TIP3    H158159   1.837   5.260   3.274 -1.1042 -0.2035 -1.2297
12248TIP3    H258160   1.935   5.312   3.171  0.8708 -0.8481  0.2758
12249TIP3   OH258161   0.075   4.900  13.390  0.5735  0.6730  0.6912
12249TIP3    H158162   0.065   4.916  13.484  1.5526  1.1522  0.7205
12249TIP3    H258163   0.036   4.814  13.376  1.3439  0.1406  1.7179
12250TIP3   OH258164   4.337   1.982  17.146  0.0277  0.0593 -0.0945
12250TIP3    H158165   4.270   1.928  17.103  1.2506 -1.2327 -0.4470
12250TIP3    H258166   4.380   1.922  17.207  0.9263  0.8460  0.0590
12251TIP3   OH258167   6.311   0.087  16.645 -0.4240  0.0085 -0.1392
12251TIP3    H158168   6.387   0.135  16.677 -1.3438  0.2448  1.8456
12251TIP3    H258169   6.343  -0.003  16.635  0.2031  0.1620  0.3721
12252TIP3   OH258170   4.945   2.981   1.544  0.2731 -0.0688 -0.1367
12252TIP3    H158171   4.971   2.898   1.583  3.6179  0.8485 -0.0707
12252TIP3    H258172   5.004   2.992   1.469  0.0637  2.2666 -0.0385
12253TIP3   OH258173   1.855   2.085   0.615 -0.2539 -0.1430  0.0461
12253TIP3    H158174   1.826   2.069   0.525 -0.1895  0.2293 -0.0423
12253TIP3    H258175   1.905   2.166   0.610  0.7700 -0.7402  0.2051
12254TIP3   OH258176   1.155   3.987  16.453 -0.4654  0.7356  0.4332
12254TIP3    H158177   1.143   3.917  16.517 -0.9734  0.7668  0.3749
12254TIP3    H258178   1.104   4.060  16.488  1.1019  1.5310  1.1689
12255TIP3   OH258179   0.045   1.803   5.009  0.2905 -0.0625 -0.1676
12255TIP3    H158180   0.005   1.757   4.935  2.1417 -0.5533 -0.8990
12255TIP3    H258181   0.129   1.835   4.976  0.6197  0.7868  1.3737
12256TIP3   OH258182   4.282   6.520  15.363  0.2654  0.3504 -0.0898
12256TIP3    H158183   4.218   6.450  15.371  0.3189  0.2957 -0.1398
12256TIP3    H258184   4.310   6.537  15.453 -0.4467  0.9637  0.0206
12257TIP3   OH258185   0.334   4.753  13.180 -1.2841  0.0968 -0.5194
12257TIP3    H158186   0.350   4.832  13.232 -1.0302  0.8014 -1.6348
12257TIP3    H258187   0.323   4.683  13.245  1.4618  0.4612  0.4408
12258TIP3   OH258188   5.700   5.333  13.885  0.7558  0.2701  0.4244
12258TIP3    H158189   5.670   5.401  13.825  0.9555 -0.6758 -0.7930
12258TIP3    H258190   5.794   5.347  13.892  0.8711 -0.1573 -0.2051
12259TIP3   OH258191   5.253   0.885   3.317 -0.2617 -0.2937 -0.4322
12259TIP3    H158192   5.316   0.814   3.305 -0.7082 -0.6052 -1.0294
12259TIP3    H258193   5.237   0.887   3.411  0.7611 -0.0905 -0.2493
12260TIP3   OH258194   1.314   1.013  13.527  0.2457  0.3296 -0.1304
12260TIP3    H158195   1.346   1.072  13.458 -1.1448 -0.4976 -1.5540
12260TIP3    H258196   1.271   1.071  13.590 -1.6770  0.8678 -1.8259
12261TIP3   OH258197   1.975   5.841  13.739 -0.0946 -0.6750 -0.4153
12261TIP3    H158198   1.898   5.796  13.773  0.3178 -1.1177 -0.0454
12261TIP3    H258199   1.977   5.817  13.646 -0.4717 -0.5600 -0.4544
12262TIP3   OH258200   0.187   3.961   0.529  0.0487  0.7382 -0.8809
12262TIP3    H158201   0.255   3.903   0.492  0.3524  0.6437 -0.1803
12262TIP3    H258202   0.111   3.904   0.539  0.1987  0.5801 -0.6441
12263TIP3   OH258203   6.455   5.332   3.179 -0.0188 -0.0351 -0.4581
12263TIP3    H158204   6.543   5.317   3.212 -0.4802 -0.3032  0.6826
12263TIP3    H258205   6.437   5.424   3.198 -0.0937 -0.0541 -0.4363
12264TIP3   OH258206   1.067   0.426  17.038  0.6689  0.3995  0.2977
12264TIP3    H158207   1.040   0.387  16.954  1.8363  1.5830 -0.6776
12264TIP3    H258208   1.022   0.374  17.104  0.0938 -0.8933 -1.0445
12265TIP3   OH258209   4.523   1.021   6.020  0.0091  0.0454  0.5902
12265TIP3    H158210   4.458   1.051   6.084 -0.4425  0.1586  0.0844
12265TIP3    H258211   4.576   1.098   6.001  0.2458 -0.0276  0.9444
12266TIP3   OH258212   5.682   2.827  14.010  0.1755  0.2016  0.4658
12266TIP3    H158213   5.648   2.740  14.030 -0.5288  0.5825  0.9859
12266TIP3    H258214   5.604   2.883  14.011  0.6641  0.8869  0.4477
12267TIP3   OH258215   3.057   6.709   0.393 -0.1770  0.2547  0.5749
12267TIP3    H158216   3.100   6.628   0.364 -1.4614  0.1587 -1.2112
12267TIP3    H258217   3.098   6.729   0.477  1.5025 -1.2243  0.1702
12268TIP3   OH258218   1.296   6.651  14.422  0.2753  0.1336  0.4517
12268TIP3    H158219   1.361   6.716  14.396 -0.7107  0.5774 -1.0132
12268TIP3    H258220   1.224   6.703  14.457 -1.7045  0.1667 -3.2248
12269TIP3   OH258221   3.128   5.038  11.203  0.6841 -0.8250 -0.1532
12269TIP3    H158222   3.091   4.955  11.235  1.3125 -0.2725  2.2205
12269TIP3    H258223   3.188   5.012  11.133  1.5068 -2.5201  1.0924
12270TIP3   OH258224   4.956   2.333   3.718  0.2333  0.3396  0.1377
12270TIP3    H158225   5.026   2.267   3.713  1.3689  1.4184  1.1911
12270TIP3    H258226   4.970   2.388   3.642  0.1312  0.1859  0.0061
12271TIP3   OH258227   4.606   4.844  16.746 -0.6179  0.3228  0.4098
12271TIP3    H158228   4.660   4.859  16.668  0.2089 -1.4962  0.5634
12271TIP3    H258229   4.621   4.921  16.801  1.6852  0.0012  0.3335
12272TIP3   OH258230   1.865   3.731   4.360 -0.3773  0.3748  0.4804
12272TIP3    H158231   1.853   3.819   4.325 -1.3461 -0.1960 -0.6741
12272TIP3    H258232   1.881   3.676   4.283  0.5444 -0.4219  1.2122
12273TIP3   OH258233   4.796   5.608  11.042 -0.1566 -0.4274  0.4122
12273TIP3    H158234   4.792   5.513  11.031  1.2050 -0.5565  0.7699
12273TIP3    H258235   4.709   5.634  11.071 -0.3278 -1.6795  1.0560
12274TIP3   OH258236   0.067   5.684  14.214  0.0414 -0.6681  0.0537
12274TIP3    H158237  -0.016   5.682  14.166 -0.5702  0.1419  1.0310
12274TIP3    H258238   0.107   5.600  14.196 -0.3547 -0.5427 -1.5356
12275TIP3   OH258239   0.311   4.693  14.378 -0.3653  0.2968  0.2490
12275TIP3    H158240   0.251   4.644  14.434  0.4633  0.3987  1.2475
12275TIP3    H258241   0.369   4.627  14.341 -0.2371  0.3430  0.3651
12276TIP3   OH258242   6.164   2.521  13.108 -0.1205 -0.0828 -0.8290
12276TIP3    H158243   6.070   2.504  13.119 -0.3207  1.6295  0.4409
12276TIP3    H258244   6.169   2.612  13.081  1.2669  0.5961  1.4977
12277TIP3   OH258245   6.081   4.223   4.311  0.5255 -0.0552 -0.8014
12277TIP3    H158246   6.160   4.174   4.332  0.0174 -0.8771 -0.7477
12277TIP3    H258247   6.055   4.264   4.393  0.5546 -0.3003 -0.6677
12278TIP3   OH258248   1.212   2.192  14.321  0.6670 -0.1345 -0.2236
12278TIP3    H158249   1.162   2.143  14.256  2.0272  0.0144 -1.4496
12278TIP3    H258250   1.239   2.272  14.275 -0.1338  1.0201  1.2241
12279TIP3   OH258251   1.655   4.911   4.263 -0.2134  0.5702  0.2193
12279TIP3    H158252   1.663   4.958   4.346 -0.8316 -0.1807  0.7181
12279TIP3    H258253   1.688   4.824   4.281  0.0088  0.5105 -0.4336
12280TIP3   OH258254   5.098   3.692   4.878  0.1704 -0.0919  0.1343
12280TIP3    H158255   5.159   3.765   4.867  0.4081 -0.3681 -0.4452
12280TIP3    H258256   5.014   3.726   4.846  0.7359 -0.7055 -2.1941
12281TIP3   OH258257   4.657   6.050   5.210 -0.1328  0.2454 -0.1556
12281TIP3    H158258   4.684   6.130   5.166  0.4766 -1.3617 -2.9594
12281TIP3    H258259   4.728   6.029   5.270  0.0305  1.3812  0.0611
12282TIP3   OH258260   2.329   2.335   4.782  0.4086 -0.2639 -0.0051
12282TIP3    H158261   2.349   2.364   4.871  1.2107 -3.7406  1.1173
12282TIP3    H258262   2.241   2.299   4.788  1.3747 -2.7791  0.1159
12283TIP3   OH258263   2.981   4.669   5.842  0.7097  0.0191  0.0026
12283TIP3    H158264   2.982   4.630   5.929  0.7298 -0.6132 -0.2777
12283TIP3    H258265   2.987   4.763   5.858  2.3185 -0.1578  0.6530
12284TIP3   OH258266   5.876   1.612  12.571  0.0545 -0.0266 -0.3336
12284TIP3    H158267   5.930   1.534  12.577 -1.6408 -1.2299  0.2350
12284TIP3    H258268   5.884   1.654  12.657 -0.3796 -0.5388 -0.0385
12285TIP3   OH258269   0.815   4.781  12.489  0.6823  0.1564  0.0158
12285TIP3    H158270   0.883   4.828  12.536 -0.7024  0.6397  1.6291
12285TIP3    H258271   0.750   4.759  12.556 -1.3560  0.8143 -1.6529
12286TIP3   OH258272   4.238   1.078  12.652  0.3495  0.2569 -0.0875
12286TIP3    H158273   4.315   1.022  12.653  0.8201  0.8662  1.6387
12286TIP3    H258274   4.264   1.154  12.601  0.8170  0.3567  0.2934
12287TIP3   OH258275   4.213   1.128   2.446  0.7424  0.0813  0.6150
12287TIP3    H158276   4.276   1.057   2.432  0.3306  0.2337 -2.7946
12287TIP3    H258277   4.247   1.201   2.395 -1.3772  0.6719 -0.0638
12288TIP3   OH258278   1.508   0.962   0.468  0.5480 -0.4923 -0.0888
12288TIP3    H158279   1.544   1.050   0.476  0.9944 -0.6440 -0.3404
12288TIP3    H258280   1.539   0.931   0.383  0.6924 -1.0195  0.1472
12289TIP3   OH258281   3.647   2.016  13.971 -0.2017  0.3835  0.4381
12289TIP3    H158282   3.699   1.980  14.043 -0.4188 -3.6305 -1.1546
12289TIP3    H258283   3.570   2.053  14.014 -0.6303 -2.4127  2.3462
12290TIP3   OH258284   0.279   6.075  16.032 -0.2246  0.2755  0.0413
12290TIP3    H158285   0.366   6.109  16.052  0.8786 -0.8248 -2.3976
12290TIP3    H258286   0.221   6.150  16.042  0.5198  0.5159  4.0066
12291TIP3   OH258287   3.820   4.950  11.838 -0.2052 -0.4646 -0.2304
12291TIP3    H158288   3.833   5.019  11.904  1.1616 -0.1434 -0.7893
12291TIP3    H258289   3.786   4.876  11.888  1.7641 -0.5771  1.0821
12292TIP3   OH258290   6.215   0.791   2.695  0.0932  0.4411 -0.5927
12292TIP3    H158291   6.247   0.868   2.743  0.6354  0.6080 -1.1949
12292TIP3    H258292   6.193   0.825   2.608 -1.6741  0.3090 -0.2358
12293TIP3   OH258293   4.228   4.203   2.316 -0.1350 -0.3661  0.3223
12293TIP3    H158294   4.176   4.257   2.375  0.7224 -0.4898  1.2253
12293TIP3    H258295   4.169   4.133   2.289 -0.5997 -0.1991  0.8827
12294TIP3   OH258296   3.379   1.306   0.417 -0.2089 -0.6433 -0.3609
12294TIP3    H158297   3.369   1.325   0.511  0.9140 -0.2708 -0.2991
12294TIP3    H258298   3.307   1.246   0.397 -0.5210 -0.6574  0.7236
12295TIP3   OH258299   6.254   2.315   2.641  0.9277 -0.5722  0.1935
12295TIP3    H158300   6.289   2.351   2.559 -1.1015 -0.3883 -0.6433
12295TIP3    H258301   6.202   2.239   2.613  1.0428 -1.1332  1.4354
12296TIP3   OH258302   6.305   1.958   4.538 -0.1520 -0.2014  0.1814
12296TIP3    H158303   6.317   1.901   4.462 -0.1656 -0.7930  0.6122
12296TIP3    H258304   6.394   1.972   4.571 -0.1936 -0.3768  0.3661
12297TIP3   OH258305   4.872   0.737  17.198  0.1648  0.1637  0.0170
12297TIP3    H158306   4.797   0.786  17.162  0.5551  1.4697  0.9455
12297TIP3    H258307   4.878   0.765  17.289  0.4701 -1.5723  0.5757
12298TIP3   OH258308   2.138   0.599  14.832 -0.4577  0.6230 -0.5357
12298TIP3    H158309   2.110   0.681  14.791 -2.0503  1.2056  1.4712
12298TIP3    H258310   2.068   0.537  14.811 -0.6713  0.5956  0.2070
12299TIP3   OH258311   2.388   4.708  15.972  0.4816 -0.0173 -0.5121
12299TIP3    H158312   2.362   4.617  15.961 -2.0327  0.6315 -0.6976
12299TIP3    H258313   2.400   4.741  15.883  0.8416 -0.0316 -0.4692
12300TIP3   OH258314   0.942   3.726   5.559 -0.2410  0.0378 -0.2286
12300TIP3    H158315   0.919   3.736   5.651 -0.6541  0.8664 -0.4057
12300TIP3    H258316   0.924   3.812   5.521  0.8388 -0.0108 -0.8863
12301TIP3   OH258317   3.928   4.130  15.871 -0.4285 -0.7461  0.6605
12301TIP3    H158318   3.935   4.214  15.916 -0.7165  0.2458 -1.0381
12301TIP3    H258319   3.868   4.148  15.798  0.7841 -1.9860 -0.6934
12302TIP3   OH258320   4.391   2.546  16.279  0.6026  0.2754  0.2705
12302TIP3    H158321   4.301   2.522  16.301  0.7105  0.8683  1.4279
12302TIP3    H258322   4.416   2.611  16.345  1.1369  1.7741 -1.3415
12303TIP3   OH258323   1.164   1.185  15.654  0.7316 -0.1007 -0.3907
12303TIP3    H158324   1.069   1.194  15.645  0.5532 -1.7644 -0.5121
12303TIP3    H258325   1.183   1.221  15.740 -0.1367 -0.4366 -0.0441
12304TIP3   OH258326   5.308   5.829  13.626  0.4318 -0.6145  0.0032
12304TIP3    H158327   5.325   5.738  13.654 -1.4987 -2.4400 -4.0551
12304TIP3    H258328   5.234   5.856  13.679 -0.7635 -2.5302 -0.5766
12305TIP3   OH258329   1.593   0.508  14.248  0.0375  0.8505  0.2015
12305TIP3    H158330   1.633   0.544  14.328  0.3558  2.1301 -0.5014
12305TIP3    H258331   1.609   0.414  14.254  0.4136  0.9696  1.4530
12306TIP3   OH258332   3.924   0.928   0.009  0.0525  0.0698  0.7213
12306TIP3    H158333   3.940   0.985  -0.066  2.6258 -3.0678 -1.4388
12306TIP3    H258334   3.829   0.915   0.010 -0.3181  2.2742 -0.2636
12307TIP3   OH258335   5.452   3.055  17.105 -0.1741 -0.3430  0.5249
12307TIP3    H158336   5.421   3.140  17.137  0.2714  0.8496 -1.9715
12307TIP3    H258337   5.387   3.029  17.039  1.6591  0.0009 -1.5325
12308TIP3   OH258338   6.431   5.320  12.001 -0.2488  0.1115  0.0930
12308TIP3    H158339   6.468   5.234  12.022 -0.4714  0.0511  0.2443
12308TIP3    H258340   6.345   5.320  12.043 -0.2944  0.3673  0.0022
12309TIP3   OH258341   6.187   0.179   3.346 -0.2101  0.1256 -0.9420
12309TIP3    H158342   6.228   0.106   3.299 -0.4135 -0.5450 -0.1090
12309TIP3    H258343   6.095   0.174   3.322  0.0272  1.0923 -2.1222
12310TIP3   OH258344   3.345   0.115   3.795 -0.1808  0.2917  0.6381
12310TIP3    H158345   3.399   0.187   3.761  0.4018 -0.8706 -1.0313
12310TIP3    H258346   3.270   0.111   3.735 -0.2912 -0.3785  0.8168
12311TIP3   OH258347   1.368   0.276  10.706  0.4267 -0.0798  0.2378
12311TIP3    H158348   1.334   0.245  10.789  0.3282 -1.0745 -0.1659
12311TIP3    H258349   1.456   0.239  10.700  1.4640  2.0892  1.0596
12312TIP3   OH258350   3.368   6.070  15.052  0.4304  0.3172 -0.3914
12312TIP3    H158351   3.459   6.069  15.022  0.7615 -0.0910  0.6021
12312TIP3    H258352   3.317   6.079  14.972  1.2266 -1.9525 -1.2244
12313TIP3   OH258353   5.809   3.325   1.278 -0.3808  0.9066  0.3888
12313TIP3    H158354   5.736   3.387   1.284 -0.0322  1.2082  1.7441
12313TIP3    H258355   5.836   3.330   1.187 -2.1070  0.7144 -0.1859
12314TIP3   OH258356   5.713   1.095   2.137 -0.0632  0.3415  0.5455
12314TIP3    H158357   5.755   1.056   2.060 -0.6625 -3.1038  1.7874
12314TIP3    H258358   5.781   1.092   2.205 -0.4401  0.6411  0.9385
12315TIP3   OH258359   1.197   6.071  16.739 -0.2487  0.2670  0.2245
12315TIP3    H158360   1.240   6.142  16.787  2.1653 -0.0454 -1.2927
12315TIP3    H258361   1.259   5.998  16.743 -1.7377 -1.0871 -0.0394
12316TIP3   OH258362   2.940   6.057   3.101 -0.3627  0.4025  0.0191
12316TIP3    H158363   2.972   6.037   3.013  0.0998  1.0079  0.0459
12316TIP3    H258364   3.013   6.099   3.145 -1.1239  1.6453  0.1481
12317TIP3   OH258365   3.646   5.827   1.696 -0.3353  0.2827 -0.6427
12317TIP3    H158366   3.593   5.792   1.768 -0.7771 -0.3980 -1.2822
12317TIP3    H258367   3.630   5.922   1.698  0.4331  0.4093  0.7622
12318TIP3   OH258368   4.402   3.919  14.593 -0.4937  0.2979 -0.0476
12318TIP3    H158369   4.389   3.989  14.530 -1.3128  0.5561  0.3899
12318TIP3    H258370   4.378   3.957  14.678  0.7134 -0.0002  0.4516
12319TIP3   OH258371   3.939   3.471  16.755 -0.5382 -0.5000  0.7895
12319TIP3    H158372   3.938   3.377  16.735  0.3603 -0.1032 -1.3912
12319TIP3    H258373   3.973   3.476  16.844  1.5812 -2.1429  0.1534
12320TIP3   OH258374   0.934   6.361   5.306 -0.7685  0.1781 -0.5975
12320TIP3    H158375   0.909   6.319   5.388  0.3316  1.3545  0.3978
12320TIP3    H258376   0.863   6.422   5.287  0.3487  2.2489  1.2805
12321TIP3   OH258377   2.999   4.077   0.183  0.1457  0.3588 -0.1810
12321TIP3    H158378   2.924   4.033   0.225  0.0547  0.6138 -0.0711
12321TIP3    H258379   3.031   4.137   0.250  0.0908  0.6668 -0.4335
12322TIP3   OH258380   6.113   2.859   3.633  0.3993 -0.0939 -0.1998
12322TIP3    H158381   6.101   2.766   3.652 -3.3306  0.4413  0.8336
12322TIP3    H258382   6.128   2.862   3.539 -1.7963 -1.6840 -0.6839
12323TIP3   OH258383   3.526   0.387  13.620 -0.6636 -0.3753 -0.3264
12323TIP3    H158384   3.537   0.448  13.547  0.7180 -0.5650 -0.3010
12323TIP3    H258385   3.479   0.438  13.686  1.6235  1.1583  0.2193
12324TIP3   OH258386   4.678   1.155  14.871  0.0900 -0.0307 -0.0043
12324TIP3    H158387   4.634   1.141  14.955  0.4711  0.4042  0.2634
12324TIP3    H258388   4.756   1.099  14.875 -1.5563 -2.6571 -1.3884
12325TIP3   OH258389   1.669   4.167   5.328  0.4848  0.4279  0.1563
12325TIP3    H158390   1.581   4.130   5.344  0.8312  0.3563  2.2637
12325TIP3    H258391   1.729   4.097   5.355  1.2368  0.2623 -1.8028
12326TIP3   OH258392   4.846   0.248  14.758  0.0446  0.0346 -0.0799
12326TIP3    H158393   4.908   0.176  14.773  1.1412  0.8886 -0.4080
12326TIP3    H258394   4.846   0.296  14.841  0.9846  0.8882 -0.5496
12327TIP3   OH258395   5.565   6.213   0.687 -1.0950 -0.0991 -0.4463
12327TIP3    H158396   5.527   6.239   0.603 -0.3072  0.4263 -0.6490
12327TIP3    H258397   5.658   6.233   0.679 -1.1178  0.5932  0.7977
12328TIP3   OH258398   5.872   4.605   3.557  0.8548 -0.1891 -0.2326
12328TIP3    H158399   5.959   4.595   3.516  1.1514 -1.1865  0.6005
12328TIP3    H258400   5.891   4.617   3.650  0.0969 -0.2017 -0.0749
12329TIP3   OH258401   3.824   0.241  11.917  0.2947  0.0597  0.3159
12329TIP3    H158402   3.835   0.159  11.869 -1.0330 -0.0651  0.1707
12329TIP3    H258403   3.736   0.270  11.893  0.2165  0.8182  1.4479
12330TIP3   OH258404   4.001   4.509  17.120  0.1740 -0.1496  0.0750
12330TIP3    H158405   3.992   4.478  17.030 -1.1357 -1.4415  0.5927
12330TIP3    H258406   4.076   4.460  17.155 -0.4516 -1.0578  0.1975
12331TIP3   OH258407   6.151   3.569  12.123 -0.1690 -0.5616  0.1701
12331TIP3    H158408   6.078   3.536  12.176  1.5875  0.1475  3.2451
12331TIP3    H258409   6.197   3.630  12.180  1.8750  0.3603 -2.2623
12332TIP3   OH258410   1.522   3.134  14.043 -0.2495 -0.3010 -0.3408
12332TIP3    H158411   1.431   3.103  14.050  0.3549 -2.0430  0.3350
12332TIP3    H258412   1.536   3.184  14.123  0.1706 -2.3484  0.9489
12333TIP3   OH258413   2.739   3.607   0.264 -0.0520 -0.1486  0.1670
12333TIP3    H158414   2.657   3.643   0.231  0.5691  1.6067  0.4536
12333TIP3    H258415   2.780   3.567   0.187 -1.0437 -0.8756 -0.0188
12334TIP3   OH258416   4.868   0.966  15.935 -0.4992  0.1559 -0.0707
12334TIP3    H158417   4.882   0.894  15.997  0.6767  0.2285 -0.2281
12334TIP3    H258418   4.918   0.940  15.857 -1.2311  0.4888 -0.6630
12335TIP3   OH258419   1.513   1.936  14.971 -0.1136  0.3017  0.3794
12335TIP3    H158420   1.421   1.929  14.945 -0.1780  1.5935  0.1547
12335TIP3    H258421   1.521   1.877  15.046 -1.1437  0.2108  0.4412
12336TIP3   OH258422   3.742   4.046   1.104  0.0494  0.1040  0.2358
12336TIP3    H158423   3.721   4.120   1.161 -0.3499  0.0595  0.1473
12336TIP3    H258424   3.718   3.969   1.155  2.2240 -0.0630  1.0904
12337TIP3   OH258425   4.695   0.026  11.180 -0.4303 -0.5156 -0.2595
12337TIP3    H158426   4.721   0.024  11.087  2.4693  0.1321  0.4343
12337TIP3    H258427   4.729  -0.056  11.215  0.8080  0.3996  0.7373
12338TIP3   OH258428   6.512   4.598   5.794  0.3167 -0.1270 -0.4970
12338TIP3    H158429   6.581   4.584   5.728  0.9382  1.6370 -0.2775
12338TIP3    H258430   6.559   4.631   5.871 -0.6716  0.1260  0.0170
12339TIP3   OH258431   3.839   5.261  11.330 -0.1865  0.3043  0.3950
12339TIP3    H158432   3.818   5.342  11.283 -0.3473 -0.1663 -0.3700
12339TIP3    H258433   3.861   5.198  11.261 -0.5711 -0.4542  0.9433
12340TIP3   OH258434   6.292   0.176   1.219  0.6077  0.0549 -0.3535
12340TIP3    H158435   6.220   0.120   1.247  0.7094  0.7433  1.3677
12340TIP3    H258436   6.284   0.180   1.124  1.0530 -3.4914 -0.6595
12341TIP3   OH258437   5.291   2.688   3.370  0.0934  0.0514 -0.8931
12341TIP3    H158438   5.251   2.754   3.313 -2.5215  0.0527  0.7518
12341TIP3    H258439   5.258   2.605   3.337  1.2493 -0.2540 -1.3370
12342TIP3   OH258440   4.216   5.078  16.578 -0.0643 -0.4389  0.4779
12342TIP3    H158441   4.191   4.987  16.565  0.5092 -0.6033  0.4940
12342TIP3    H258442   4.141   5.128  16.548 -0.0637 -0.8964 -0.3081
12343TIP3   OH258443   6.087   6.212   2.237 -0.2161 -0.1525 -0.8188
12343TIP3    H158444   6.051   6.128   2.263  0.8803 -0.2803  0.3669
12343TIP3    H258445   6.080   6.267   2.315 -1.3787  1.0422 -1.7142
12344TIP3   OH258446   4.733   3.324  11.545  0.5435  0.1644 -0.2978
12344TIP3    H158447   4.753   3.414  11.570  2.8343  0.0602 -1.5576
12344TIP3    H258448   4.754   3.319  11.452 -0.8251 -1.3565 -0.5766
12345TIP3   OH258449   3.616   1.191  12.700  0.1824  0.0396  0.6030
12345TIP3    H158450   3.646   1.109  12.738 -0.5188 -0.6030 -0.1847
12345TIP3    H258451   3.520   1.187  12.707  0.0557  0.0835 -0.8162
12346TIP3   OH258452   3.368   4.359  12.675 -0.2191  0.0219  0.0237
12346TIP3    H158453   3.428   4.341  12.747 -0.2990  2.5058  0.7857
12346TIP3    H258454   3.425   4.376  12.600 -0.1241 -1.6378 -0.3333
12347TIP3   OH258455   2.243   0.984  11.857  0.0020 -0.3088  0.4319
12347TIP3    H158456   2.169   0.958  11.802  1.7429 -1.3493 -1.5560
12347TIP3    H258457   2.264   1.072  11.827  0.4026 -0.5372  0.0355
12348TIP3   OH258458   2.080   1.883  15.510 -0.2316  0.3080  0.5258
12348TIP3    H158459   2.097   1.791  15.529  1.8062 -0.1245 -2.7109
12348TIP3    H258460   2.113   1.930  15.587  3.3949 -1.4402  0.2006
12349TIP3   OH258461   6.158   0.058   0.804 -0.6476 -0.8638  0.5655
12349TIP3    H158462   6.188   0.100   0.724 -1.5137 -1.8963 -0.3323
12349TIP3    H258463   6.229  -0.002   0.827  0.4321  0.7396  1.6539
12350TIP3   OH258464   4.427   4.446   3.679 -0.4777  0.0331  0.1257
12350TIP3    H158465   4.371   4.433   3.603  1.0028  1.9357 -1.3985
12350TIP3    H258466   4.512   4.412   3.653 -0.1627 -0.1416  1.2937
12351TIP3   OH258467   1.523   5.952  15.666  0.1842 -0.5497 -0.0822
12351TIP3    H158468   1.431   5.932  15.649 -0.3941  0.6056  1.4532
12351TIP3    H258469   1.568   5.869  15.654 -1.1406 -1.2584 -0.3456
12352TIP3   OH258470   0.238   2.798  13.849 -0.4092  0.0315  0.2176
12352TIP3    H158471   0.301   2.837  13.789  2.6729 -0.0805  3.0747
12352TIP3    H258472   0.181   2.870  13.876  0.7757  1.0001  0.1959
12353TIP3   OH258473   1.128   3.410  11.920  0.7368 -0.0981 -0.1931
12353TIP3    H158474   1.128   3.503  11.943  1.6173 -0.2503  0.4981
12353TIP3    H258475   1.182   3.405  11.842  2.0022 -0.1987  0.6535
12354TIP3   OH258476   3.222   3.946   4.468 -0.4319 -0.1933 -0.7882
12354TIP3    H158477   3.260   3.980   4.549 -0.3388 -1.5881 -0.2188
12354TIP3    H258478   3.128   3.941   4.486 -0.4022 -0.5722 -0.7304
12355TIP3   OH258479   2.239   0.173   2.064 -0.8548 -0.1268  0.1028
12355TIP3    H158480   2.146   0.197   2.063 -0.7779  0.3892 -2.3786
12355TIP3    H258481   2.249   0.117   1.987  0.8226 -0.5309  0.5803
12356TIP3   OH258482   3.330   0.938   5.431 -0.1609  0.5282 -0.3352
12356TIP3    H158483   3.377   0.923   5.349 -1.4497  0.3062 -1.0709
12356TIP3    H258484   3.258   0.875   5.429 -1.0884  1.5204  0.2510
12357TIP3   OH258485   5.138   1.504  12.253  0.3301  0.2878  0.5214
12357TIP3    H158486   5.078   1.498  12.327 -1.5415  2.8979 -0.6468
12357TIP3    H258487   5.220   1.535  12.291 -0.0110 -0.2317  1.7227
12358TIP3   OH258488   6.543   0.837   0.334 -0.0282  0.3674  0.4465
12358TIP3    H158489   6.480   0.900   0.369 -0.2869  1.3061 -1.5777
12358TIP3    H258490   6.622   0.888   0.319  0.4261 -0.2616  0.6787
12359TIP3   OH258491   0.885   0.867  13.848  0.3087  0.2526  0.1479
12359TIP3    H158492   0.909   0.776  13.869  2.3699  1.2468  2.6966
12359TIP3    H258493   0.968   0.908  13.825  0.1809  2.3257  2.8599
12360TIP3   OH258494   2.313   5.020  11.456  0.5570 -0.0938  0.1489
12360TIP3    H158495   2.353   5.085  11.399  1.9803  0.3436  1.5811
12360TIP3    H258496   2.277   5.070  11.529  0.7824 -0.8181  0.7683
12361TIP3   OH258497   2.911   0.931   1.666 -0.2194  0.1089  0.0362
12361TIP3    H158498   2.953   0.982   1.736  1.1785 -0.5413 -0.2947
12361TIP3    H258499   2.885   0.849   1.708  0.3279 -0.1498 -0.1221
12362TIP3   OH258500   5.098   5.393   2.330 -0.3473 -0.2440  0.4171
12362TIP3    H158501   5.153   5.330   2.376 -0.3020  1.0439  2.2542
12362TIP3    H258502   5.117   5.379   2.237  3.0905  0.1280  0.9391
12363TIP3   OH258503   2.559   4.531   4.186  0.1414 -0.4774 -0.4884
12363TIP3    H158504   2.627   4.566   4.244 -1.0466  0.3631  0.4573
12363TIP3    H258505   2.590   4.551   4.098  1.8387 -1.5061 -0.1501
12364TIP3   OH258506   2.199   4.975  13.652 -0.2955  0.5792 -0.2827
12364TIP3    H158507   2.253   4.900  13.627 -1.9309 -0.7327 -0.0352
12364TIP3    H258508   2.215   4.986  13.746 -2.1791 -1.3485  0.3372
12365TIP3   OH258509   1.150   3.907   5.391 -0.2569 -0.2170  0.3366
12365TIP3    H158510   1.094   3.838   5.426  0.4127 -0.7216  0.4467
12365TIP3    H258511   1.237   3.888   5.428  0.2940 -0.2788 -0.9428
12366TIP3   OH258512   6.316   4.789  16.452  0.3305 -0.1823  0.0197
12366TIP3    H158513   6.350   4.779  16.541  0.7156  0.4556 -0.0475
12366TIP3    H258514   6.232   4.833  16.465  1.7339  2.7758 -0.0550
12367TIP3   OH258515   5.008   0.247   5.231 -0.5930  0.6958 -0.3328
12367TIP3    H158516   5.067   0.256   5.156  0.2977  0.0364  0.2676
12367TIP3    H258517   4.993   0.336   5.261  0.9734  0.8326  0.1430
12368TIP3   OH258518   0.139   4.867   2.917  0.9115  0.3430 -0.3020
12368TIP3    H158519   0.130   4.957   2.949  0.2966 -0.8197  3.3035
12368TIP3    H258520   0.203   4.828   2.976 -0.0586 -2.0059 -0.7082
12369TIP3   OH258521   5.394   1.964   0.021 -0.0944 -0.3172  0.2956
12369TIP3    H158522   5.304   1.974  -0.009  0.7862  0.2207 -2.4716
12369TIP3    H258523   5.409   1.870   0.022 -0.5150 -0.3873  0.1123
12370TIP3   OH258524   3.196   6.380  17.162 -0.3560 -0.1519 -0.2334
12370TIP3    H158525   3.271   6.439  17.170  0.4249 -0.7402 -2.2935
12370TIP3    H258526   3.216   6.307  17.221 -0.1050  0.4719  0.4516
12371TIP3   OH258527   2.301   5.841  13.582  0.2695  0.2784 -0.0390
12371TIP3    H158528   2.327   5.763  13.630  1.1813  1.9006  2.3046
12371TIP3    H258529   2.215   5.820  13.546  0.1856 -1.5577  1.1227
12372TIP3   OH258530   5.025   5.760   3.752 -1.2840  0.4513 -0.1779
12372TIP3    H158531   5.040   5.849   3.722 -1.2525  0.7002  0.5588
12372TIP3    H258532   4.930   5.748   3.747 -1.0951 -0.4871 -3.0536
12373TIP3   OH258533   4.851   1.132  12.143  0.3138 -0.5237  0.2006
12373TIP3    H158534   4.770   1.098  12.182  1.0517 -0.7676  1.5989
12373TIP3    H258535   4.866   1.216  12.188 -0.2619  0.5869 -1.5699
12374TIP3   OH258536   4.278   5.379   0.536 -0.0262  0.1283  0.2191
12374TIP3    H158537   4.278   5.369   0.441 -1.6436  0.5190  0.1399
12374TIP3    H258538   4.358   5.428   0.555  1.0821 -1.2262 -0.7614
12375TIP3   OH258539   0.749   1.195  10.740 -0.2887 -0.2638  0.3405
12375TIP3    H158540   0.796   1.203  10.823  0.1935  0.4076  0.0103
12375TIP3    H258541   0.748   1.101  10.723  1.0067 -0.2998  0.3256
12376TIP3   OH258542   1.122   0.307  15.932 -0.0230  0.1275  0.2559
12376TIP3    H158543   1.141   0.244  15.862 -0.3356  0.4147 -0.0929
12376TIP3    H258544   1.188   0.289  15.999 -0.1793 -0.6488  0.2101
12377TIP3   OH258545   3.429   5.809   2.668 -0.0119  0.3268  0.3118
12377TIP3    H158546   3.519   5.813   2.702 -0.1110 -0.4632  0.6956
12377TIP3    H258547   3.429   5.869   2.593  0.9648  0.0056  0.0302
12378TIP3   OH258548   0.340   3.592   5.295 -0.1400  0.0046 -0.1780
12378TIP3    H158549   0.286   3.671   5.294  0.6943  0.6364 -3.0402
12378TIP3    H258550   0.412   3.613   5.355 -1.1826  0.4447  0.9655
12379TIP3   OH258551   5.563   0.326  16.886  0.2456 -0.5213 -0.1682
12379TIP3    H158552   5.646   0.334  16.933 -1.0110 -0.1926  2.1388
12379TIP3    H258553   5.585   0.277  16.806  2.8967  0.8566 -0.4007
12380TIP3   OH258554   0.673   4.197   5.503  0.0737 -0.1397 -0.1103
12380TIP3    H158555   0.605   4.199   5.435  0.4105 -0.5110 -0.4645
12380TIP3    H258556   0.699   4.288   5.514  0.0740 -0.0856 -0.5393
12381TIP3   OH258557   3.866   1.313   4.159  0.4029 -0.4552 -0.1955
12381TIP3    H158558   3.937   1.362   4.202  0.8853  0.4267 -1.9132
12381TIP3    H258559   3.796   1.377   4.149  0.3382 -0.6151 -0.7861
12382TIP3   OH258560   3.978   2.447  14.014  0.2654 -0.2894  0.3870
12382TIP3    H158561   3.983   2.539  14.037  2.4149 -0.7294  1.9339
12382TIP3    H258562   3.902   2.414  14.062  0.7136  0.2510  1.4852
12383TIP3   OH258563   3.724   0.066   5.382  0.5784  0.1862  0.2652
12383TIP3    H158564   3.692   0.086   5.470 -0.6676 -0.1314 -0.1097
12383TIP3    H258565   3.735  -0.029   5.381 -0.4251  0.0678 -0.2511
12384TIP3   OH258566   4.983   4.470  12.090 -0.6454  0.3143  0.6761
12384TIP3    H158567   5.011   4.379  12.095 -1.4548  0.0884  1.3282
12384TIP3    H258568   4.906   4.469  12.032 -2.7645  0.0039  3.3133
12385TIP3   OH258569   5.289   3.647   0.048  0.1679  0.4744 -0.1872
12385TIP3    H158570   5.241   3.585  -0.007  2.3438 -1.1323 -0.3640
12385TIP3    H258571   5.242   3.730   0.036 -2.4932 -0.9489 -0.3844
12386TIP3   OH258572   5.444   6.554   3.014 -0.0083 -0.1793 -0.1782
12386TIP3    H158573   5.462   6.483   2.952 -1.4941 -1.4137  0.7164
12386TIP3    H258574   5.377   6.518   3.072  0.5108  1.3433  1.4386
12387TIP3   OH258575   2.721   3.758  11.501 -0.3295  0.3735  0.3773
12387TIP3    H158576   2.755   3.696  11.436 -0.6856  0.9485 -0.3890
12387TIP3    H258577   2.742   3.844  11.465 -2.1389  0.7431  0.0858
12388TIP3   OH258578   2.290   0.437  15.134 -0.3722 -0.1558  0.0405
12388TIP3    H158579   2.266   0.387  15.056 -0.9566 -0.2258  0.2597
12388TIP3    H258580   2.208   0.477  15.164 -0.9234 -2.8461  2.5679
12389TIP3   OH258581   1.424   0.078  12.162  0.0862 -0.3389  0.4558
12389TIP3    H158582   1.479   0.156  12.163 -2.9403  2.0721 -1.8456
12389TIP3    H258583   1.464   0.021  12.095 -0.1844  1.3855 -1.2433
12390TIP3   OH258584   2.799   4.106  15.278  0.6815  0.1095  0.0378
12390TIP3    H158585   2.714   4.137  15.246  1.4949 -0.0920 -2.6304
12390TIP3    H258586   2.848   4.186  15.295  1.0452  0.3224 -1.7753
12391TIP3   OH258587   5.354   5.029  15.691  0.4731  1.0284  0.0294
12391TIP3    H158588   5.407   4.949  15.692 -0.4833  0.3756  0.1755
12391TIP3    H258589   5.368   5.069  15.777  0.5221  0.7143  0.1675
12392TIP3   OH258590   4.149   4.214   1.665 -0.3231 -0.5289 -0.0924
12392TIP3    H158591   4.219   4.215   1.731 -0.5930 -1.8316  0.2488
12392TIP3    H258592   4.092   4.286   1.690  0.0776 -0.4260  0.5546
12393TIP3   OH258593   3.787   1.522   3.912 -0.0498  0.0120 -0.3749
12393TIP3    H158594   3.760   1.476   3.992 -1.2090 -0.4199 -0.9974
12393TIP3    H258595   3.706   1.535   3.864  0.6696  0.0967 -1.5894
12394TIP3   OH258596   6.071   0.248  12.804 -0.3890 -0.1751  0.1794
12394TIP3    H158597   6.081   0.241  12.899 -1.1519 -0.3145  0.2594
12394TIP3    H258598   6.120   0.326  12.780  0.7133 -0.7397  0.5379
12395TIP3   OH258599   0.202   1.029   2.333 -0.0294 -0.3806  0.9506
12395TIP3    H158600   0.120   1.031   2.285  1.1867 -2.1873 -1.3917
12395TIP3    H258601   0.202   1.110   2.384 -2.5933  0.3401 -0.0534
12396TIP3   OH258602   6.181   4.899   0.136 -0.3601 -0.1304  0.2734
12396TIP3    H158603   6.266   4.923   0.172 -0.3476 -0.4961  0.4924
12396TIP3    H258604   6.158   4.817   0.180 -1.7951  1.0161  1.7535
12397TIP3   OH258605   3.808   3.570   3.458  0.2747 -0.1886 -0.2879
12397TIP3    H158606   3.897   3.590   3.486  0.5402  2.6554 -2.6609
12397TIP3    H258607   3.756   3.576   3.539  1.9047  0.6543  0.7506
12398TIP3   OH258608   6.711   2.989  12.011  0.2515  0.1921  0.0160
12398TIP3    H158609   6.758   2.906  12.002 -1.3171 -0.8393  0.8545
12398TIP3    H258610   6.662   2.998  11.930 -0.5825 -0.3909  0.4375
12399TIP3   OH258611   4.821   0.154   2.138  0.2571 -0.8449 -0.2754
12399TIP3    H158612   4.770   0.204   2.075  0.6615 -0.2842 -0.1644
12399TIP3    H258613   4.854   0.080   2.088 -1.7378 -1.9723 -0.0482
12400TIP3   OH258614   4.027   4.958   0.157 -0.0178  0.3594 -0.1864
12400TIP3    H158615   3.996   4.975   0.069  1.5061  1.3554 -0.5624
12400TIP3    H258616   4.063   4.869   0.153 -3.1708 -1.0846  0.4178
12401TIP3   OH258617   6.463   1.978  13.510 -0.0182  0.4060 -0.8298
12401TIP3    H158618   6.489   2.070  13.513 -1.3579  0.8647 -2.0646
12401TIP3    H258619   6.530   1.936  13.455  1.3232  0.3342  0.7834
12402TIP3   OH258620   6.502   3.924   3.965  0.2033 -0.3393 -0.3646
12402TIP3    H158621   6.559   3.852   3.936 -1.5115 -0.9834 -2.4121
12402TIP3    H258622   6.470   3.963   3.884  1.8542  3.5073  0.6266
12403TIP3   OH258623   6.515   0.815  11.186  0.1384  0.1002 -0.2403
12403TIP3    H158624   6.505   0.893  11.131 -0.3543  1.7518  2.0271
12403TIP3    H258625   6.608   0.794  11.183  0.0099 -0.4472 -2.3471
12404TIP3   OH258626   5.561   1.988   0.599 -0.3997  0.1898 -0.0819
12404TIP3    H158627   5.521   1.903   0.579  1.0976 -0.6572  0.3071
12404TIP3    H258628   5.623   2.002   0.528 -0.9314  1.1845 -0.3659
12405TIP3   OH258629   0.377   2.335  14.285  0.6165 -0.0096  0.4532
12405TIP3    H158630   0.450   2.396  14.293  0.6100 -0.1141  1.4565
12405TIP3    H258631   0.384   2.279  14.363 -0.4252 -0.1342  0.4736
12406TIP3   OH258632   3.588   5.470   6.444  0.0609  0.2678  0.3151
12406TIP3    H158633   3.623   5.558   6.426 -1.0445  1.1053  1.9878
12406TIP3    H258634   3.659   5.426   6.490  0.1397  0.7690  0.6844
12407TIP3   OH258635   0.318   6.381  13.440 -0.0684  0.7811 -0.1838
12407TIP3    H158636   0.381   6.333  13.385  0.7706  1.1134  0.4599
12407TIP3    H258637   0.260   6.424  13.377  1.5461  2.0398 -0.8904
12408TIP3   OH258638   4.622   1.911  14.903 -0.0269 -0.0078  0.5613
12408TIP3    H158639   4.711   1.893  14.871 -0.1094  1.9944 -1.0250
12408TIP3    H258640   4.635   1.957  14.985  0.3034 -1.6209  1.4570
12409TIP3   OH258641   0.398   0.161   4.316  0.0857 -0.3943 -0.0277
12409TIP3    H158642   0.328   0.113   4.360  0.9869 -0.9327  0.8908
12409TIP3    H258643   0.478   0.125   4.355  0.8301  1.0116 -0.2171
12410TIP3   OH258644   4.919   4.967   2.618  0.5007 -0.3503 -0.2758
12410TIP3    H158645   5.009   4.935   2.611  0.3512 -0.8995  0.3416
12410TIP3    H258646   4.876   4.935   2.538  0.8039 -0.2346 -0.4866
12411TIP3   OH258647   1.681   5.476   3.081  0.6110 -0.1121 -0.2778
12411TIP3    H158648   1.743   5.506   3.015  0.5291  0.3927 -0.1301
12411TIP3    H258649   1.734   5.426   3.143  1.0284  0.9633  0.2706
12412TIP3   OH258650   0.442   6.736  16.255 -0.2974 -0.1050  0.0808
12412TIP3    H158651   0.443   6.806  16.319 -0.0890 -0.5904  0.6157
12412TIP3    H258652   0.356   6.695  16.266  0.1325 -0.8366  0.7678
12413TIP3   OH258653   4.528   2.721  12.190 -0.1876  0.1693  0.3492
12413TIP3    H158654   4.470   2.791  12.220 -2.4135 -0.6908 -1.6292
12413TIP3    H258655   4.494   2.697  12.103  3.0368 -0.5570 -0.8751
12414TIP3   OH258656   5.212   4.161   2.459 -0.1157  0.4560 -0.0120
12414TIP3    H158657   5.262   4.221   2.515  1.5911 -0.2567 -0.6866
12414TIP3    H258658   5.146   4.123   2.517  0.4986  1.0094  1.0880
12415TIP3   OH258659   4.494   1.349   6.199 -0.8095  0.8936  0.2014
12415TIP3    H158660   4.511   1.440   6.224 -0.0775  0.7244  0.3289
12415TIP3    H258661   4.457   1.310   6.277 -0.3423  0.8672  0.4101
12416TIP3   OH258662   0.400   5.413   5.552  0.1651  0.9574  0.6269
12416TIP3    H158663   0.435   5.502   5.541  0.6338  0.8011  0.8413
12416TIP3    H258664   0.330   5.407   5.487 -1.7505  2.4331  2.4071
12417TIP3   OH258665   3.342   2.297   0.481  0.5007  0.5742 -0.4514
12417TIP3    H158666   3.435   2.319   0.482  0.6771 -0.1071 -1.2301
12417TIP3    H258667   3.305   2.354   0.412  0.3534  0.7896 -0.1953
12418TIP3   OH258668   6.579   2.652  14.025  0.4426  0.2167 -0.2843
12418TIP3    H158669   6.662   2.652  13.978  0.0394  0.0467 -0.9974
12418TIP3    H258670   6.593   2.713  14.098  1.6357 -0.8330  0.4029
12419TIP3   OH258671   6.241   6.394  12.464 -0.0797  0.4219  0.1087
12419TIP3    H158672   6.314   6.332  12.469 -0.8457 -0.5351 -0.1379
12419TIP3    H258673   6.240   6.436  12.550  2.4363  2.4915 -0.7493
12420TIP3   OH258674   1.106   0.402  14.895  0.5534 -0.2383 -0.7163
12420TIP3    H158675   1.171   0.331  14.898  1.3231  0.4797  1.1592
12420TIP3    H258676   1.158   0.482  14.889 -0.0842  0.3829  1.2426
12421TIP3   OH258677   3.200   5.746  11.045 -0.4223 -0.2866 -0.4213
12421TIP3    H158678   3.241   5.660  11.054  0.9013  0.3253 -0.4020
12421TIP3    H258679   3.272   5.808  11.055 -0.7846  0.7928 -3.5316
12422TIP3   OH258680   0.046   5.395   3.506 -0.4090 -0.1690 -0.0313
12422TIP3    H158681   0.081   5.334   3.571  1.6408  0.7383 -0.1930
12422TIP3    H258682   0.021   5.472   3.557 -0.3427 -0.0859 -0.1232
12423TIP3   OH258683   4.099   4.458  16.863  0.3167  1.0573  0.4898
12423TIP3    H158684   4.190   4.489  16.857 -0.0063  1.9194 -0.2517
12423TIP3    H258685   4.048   4.527  16.820 -0.7053  0.6396  1.0042
12424TIP3   OH258686   1.987   0.248   3.667  0.0175 -0.0241 -0.3634
12424TIP3    H158687   2.027   0.224   3.750  0.5315  2.1585  0.0939
12424TIP3    H258688   1.892   0.244   3.685  0.1210  0.3853  0.3241
12425TIP3   OH258689   0.536   0.734  13.462  0.1985 -0.2910 -0.3218
12425TIP3    H158690   0.603   0.683  13.416 -0.3603 -0.3606 -1.0765
12425TIP3    H258691   0.456   0.719  13.412 -0.6577 -1.1626  1.2272
12426TIP3   OH258692   5.912   6.641  17.062 -0.2680 -0.2874  0.2155
12426TIP3    H158693   5.888   6.706  16.996 -1.5274 -0.0517  0.8659
12426TIP3    H258694   5.836   6.638  17.121  0.9903 -0.1691  1.9130
12427TIP3   OH258695   3.349   2.599   3.621 -0.0911  0.5025  0.5087
12427TIP3    H158696   3.345   2.661   3.694 -1.5914  1.2930 -0.1886
12427TIP3    H258697   3.269   2.617   3.571 -0.1705 -1.4799 -0.1460
12428TIP3   OH258698   1.683   2.419   4.199 -0.2681  0.8173  0.0781
12428TIP3    H158699   1.738   2.404   4.122 -1.2328  0.9871 -0.6673
12428TIP3    H258700   1.635   2.337   4.210  0.2530  0.6094  0.8248
12429TIP3   OH258701   2.627   3.365  15.931  0.3140 -0.5007 -0.1392
12429TIP3    H158702   2.570   3.435  15.900  1.5387  0.4232 -0.3819
12429TIP3    H258703   2.584   3.332  16.010 -1.1361 -0.6330 -0.9398
12430TIP3   OH258704   2.834   3.944   0.667  0.3188 -0.1309  0.0755
12430TIP3    H158705   2.868   3.898   0.590  0.4272  0.4850 -0.2583
12430TIP3    H258706   2.782   3.879   0.714 -0.4506 -0.2929 -0.9704
12431TIP3   OH258707   6.438   1.637  13.366  0.1349 -0.4542 -0.1492
12431TIP3    H158708   6.500   1.706  13.342 -0.6713  0.3760  0.1121
12431TIP3    H258709   6.428   1.585  13.287  2.8695 -2.0019  0.3732
12432TIP3   OH258710   2.566   0.813   0.268 -0.0466 -0.3686 -0.2931
12432TIP3    H158711   2.616   0.793   0.348 -0.5699 -0.2428  0.0702
12432TIP3    H258712   2.531   0.901   0.283  0.2664 -0.1414 -0.8769
12433TIP3   OH258713   0.059   1.709  13.775 -0.1175 -0.3802  0.4605
12433TIP3    H158714  -0.025   1.666  13.758  0.8613 -1.7920 -1.1624
12433TIP3    H258715   0.035   1.796  13.809 -2.2389 -0.3380 -0.9465
12434TIP3   OH258716   4.194   5.894   3.533  0.1492  0.0098  0.2370
12434TIP3    H158717   4.253   5.824   3.561  0.0437  0.4768  1.6715
12434TIP3    H258718   4.238   5.933   3.457  0.9062 -0.6595  0.3166
12435TIP3   OH258719   1.599   6.315  14.864 -0.4689 -0.3879  0.0949
12435TIP3    H158720   1.592   6.300  14.770 -0.2152 -1.1338  0.1887
12435TIP3    H258721   1.554   6.399  14.879 -0.4653 -0.2429 -0.6908
12436TIP3   OH258722   2.758   3.273   0.999 -0.4260 -0.2323  0.0068
12436TIP3    H158723   2.685   3.230   1.044 -0.6363 -0.4542 -0.5293
12436TIP3    H258724   2.750   3.365   1.023  0.6661 -0.6180  2.0408
12437TIP3   OH258725   2.378   4.342   1.692  0.4819  0.4292 -0.2450
12437TIP3    H158726   2.337   4.360   1.777 -0.9442 -0.1871 -0.7663
12437TIP3    H258727   2.338   4.260   1.663  1.7857  0.0439 -1.0123
12438TIP3   OH258728   3.663   0.433   3.060  0.2850  0.2133 -0.3093
12438TIP3    H158729   3.580   0.466   3.026 -0.1206  0.5238  0.9273
12438TIP3    H258730   3.720   0.510   3.064  0.7738 -0.0591 -1.4802
12439TIP3   OH258731   5.807   5.984  17.368 -0.1018  0.0793  0.3306
12439TIP3    H158732   5.712   5.980  17.372 -0.1119 -1.7617 -0.7893
12439TIP3    H258733   5.825   6.071  17.330 -1.3741  0.1228 -0.2300
12440TIP3   OH258734   2.069   0.594   1.524  0.4774  0.5530  0.1048
12440TIP3    H158735   2.080   0.635   1.439 -1.5407 -0.1761 -0.5689
12440TIP3    H258736   2.132   0.522   1.524 -0.7508 -0.5933 -1.5777
12441TIP3   OH258737   2.019   5.854  14.686  0.1667 -0.5136  0.5087
12441TIP3    H158738   1.925   5.843  14.672  0.3559 -4.5535  1.0551
12441TIP3    H258739   2.030   5.947  14.706 -3.2588  0.7239 -2.2729
12442TIP3   OH258740   3.770   1.853  12.523 -0.2336  0.8040  0.7281
12442TIP3    H158741   3.705   1.783  12.517  1.6589 -1.0560  0.7185
12442TIP3    H258742   3.812   1.854  12.437  3.2201 -1.7410  2.1460
12443TIP3   OH258743   1.460   3.171  11.149 -0.2956 -0.3753  0.7907
12443TIP3    H158744   1.484   3.256  11.112  0.4479 -0.9511 -0.0757
12443TIP3    H258745   1.396   3.135  11.088 -0.6727 -0.4063  1.2012
12444TIP3   OH258746   4.036   3.009   3.826 -0.1496 -0.1569  0.2905
12444TIP3    H158747   4.022   2.915   3.835  0.0152 -0.1200  0.9941
12444TIP3    H258748   4.132   3.019   3.822  0.0212  0.2054  3.3086
12445TIP3   OH258749   1.209   4.540  13.066  0.3903  0.4015  0.1493
12445TIP3    H158750   1.162   4.622  13.082  0.1788  0.3550 -0.2424
12445TIP3    H258751   1.229   4.541  12.973 -0.1503 -0.2828  0.0202
12446TIP3   OH258752   1.329   2.564   2.261  0.3085 -0.6304  0.0636
12446TIP3    H158753   1.291   2.647   2.291  3.4343  1.1967 -0.5686
12446TIP3    H258754   1.298   2.555   2.171 -0.7333 -0.6569  0.4029
12447TIP3   OH258755   0.706   4.087  16.718  0.2301 -0.2500 -0.3034
12447TIP3    H158756   0.690   4.162  16.775  3.2920  0.3147  0.0103
12447TIP3    H258757   0.662   4.109  16.636 -1.5089  0.4192  0.7558
12448TIP3   OH258758   5.738   4.757  11.453 -0.5575 -0.3264  0.1555
12448TIP3    H158759   5.788   4.780  11.531 -1.0466  2.4720 -0.2391
12448TIP3    H258760   5.651   4.737  11.486  0.2465 -3.3976  0.6614
12449TIP3   OH258761   1.742   2.236  16.093 -0.3086 -0.2577 -0.1598
12449TIP3    H158762   1.780   2.245  16.006  0.8301 -0.3116  0.3172
12449TIP3    H258763   1.791   2.298  16.147 -1.3657  0.1777  0.3382
12450TIP3   OH258764   2.429   5.096  12.263  0.1578  0.0479 -0.5774
12450TIP3    H158765   2.442   5.026  12.199  0.0773 -0.3571 -0.1584
12450TIP3    H258766   2.424   5.051  12.347 -3.6776  0.0911 -0.5990
12451TIP3   OH258767   0.607   5.370  16.122  0.4262  0.4110 -0.1461
12451TIP3    H158768   0.531   5.319  16.148  0.0809  0.6548 -0.6693
12451TIP3    H258769   0.572   5.454  16.094  0.6773 -0.1060 -2.1779
12452TIP3   OH258770   2.961   0.287  14.627  0.1181  0.2038 -0.3357
12452TIP3    H158771   3.056   0.276  14.628  0.4816  2.5955 -0.6198
12452TIP3    H258772   2.935   0.286  14.719 -0.2245 -4.0449 -0.2842
12453TIP3   OH258773   5.859   3.946  15.675 -0.0624 -0.1678  0.0663
12453TIP3    H158774   5.929   3.954  15.610  0.8743 -1.0137  0.9370
12453TIP3    H258775   5.895   3.889  15.743 -1.2431  0.1809  1.0294
12454TIP3   OH258776   4.068   0.893   3.781 -0.6141 -0.7734  0.2176
12454TIP3    H158777   4.084   0.801   3.802  0.0043 -0.9066 -0.7472
12454TIP3    H258778   4.142   0.940   3.821  0.3728 -0.9877 -1.2637
12455TIP3   OH258779   5.929   2.485  16.832 -0.4275  0.6286 -0.4390
12455TIP3    H158780   5.982   2.506  16.755 -1.0223 -1.0465 -1.3693
12455TIP3    H258781   5.842   2.465  16.797 -0.6658 -0.3368  0.6234
12456TIP3   OH258782   5.550   1.006   3.017  0.0113  0.3565  0.7207
12456TIP3    H158783   5.620   0.951   2.981  1.1893  1.1094  1.7629
12456TIP3    H258784   5.593   1.056   3.086 -1.6081  0.7606  1.4696
12457TIP3   OH258785   2.752   4.528   3.930 -0.3326 -0.1249  0.1030
12457TIP3    H158786   2.723   4.438   3.947 -0.8683  0.0615  0.1784
12457TIP3    H258787   2.763   4.532   3.835 -1.2614  0.0155 -0.0020
12458TIP3   OH258788   1.842   0.319   4.989  0.2419  0.3043  0.1797
12458TIP3    H158789   1.937   0.323   5.006  0.4345 -1.2735 -0.4183
12458TIP3    H258790   1.818   0.229   5.009 -0.8361  0.2543 -1.2162
12459TIP3   OH258791   4.328   4.995   5.961 -0.2479 -0.0271 -0.1372
12459TIP3    H158792   4.340   5.043   5.879 -2.7896 -2.2025 -1.9801
12459TIP3    H258793   4.401   4.933   5.963 -0.0220  0.2212 -0.6606
12460TIP3   OH258794   3.465   4.717  12.187  0.4561 -0.0868  0.1544
12460TIP3    H158795   3.548   4.750  12.152  0.5656 -0.0171  0.4797
12460TIP3    H258796   3.425   4.793  12.230  1.1641 -0.5926  1.7739
12461TIP3   OH258797   4.000   5.605  15.259 -0.2126 -0.5974 -0.1678
12461TIP3    H158798   3.950   5.632  15.335  1.1125  0.2798  0.4261
12461TIP3    H258799   4.056   5.533  15.290 -1.4019 -1.9195 -0.9470
12462TIP3   OH258800   0.241   2.651   3.124 -0.2140 -0.7732  0.3668
12462TIP3    H158801   0.174   2.594   3.162 -0.7931 -0.7310 -0.5637
12462TIP3    H258802   0.324   2.608   3.144 -0.5096 -0.8187  1.5482
12463TIP3   OH258803   3.356   3.740  14.183  0.0063 -0.0633  0.0123
12463TIP3    H158804   3.353   3.724  14.277 -0.3431  0.1925  0.0496
12463TIP3    H258805   3.314   3.826  14.172 -2.3621 -1.2177 -0.6245
12464TIP3   OH258806   5.270   4.444   3.780 -0.2571  0.1252 -0.5001
12464TIP3    H158807   5.330   4.464   3.851 -0.2298  0.2122 -0.5483
12464TIP3    H258808   5.285   4.512   3.715 -0.4884  0.2142 -0.4627
12465TIP3   OH258809   3.152   5.344   0.086 -0.0357 -0.2617 -0.1031
12465TIP3    H158810   3.160   5.255   0.119  0.3943 -0.6380 -1.2081
12465TIP3    H258811   3.175   5.339  -0.006  1.7962  1.2882  0.1851
12466TIP3   OH258812   4.375   0.956  15.260  0.0976 -0.4869 -0.5813
12466TIP3    H158813   4.367   0.868  15.297 -0.2972 -0.3898 -0.4270
12466TIP3    H258814   4.286   0.991  15.263  0.7022  1.2021  2.5117
12467TIP3   OH258815   4.151   4.846  11.310 -0.4165 -0.0532  0.1802
12467TIP3    H158816   4.135   4.752  11.310 -0.7516 -0.0307 -1.3330
12467TIP3    H258817   4.072   4.884  11.348 -0.0574 -0.3918  1.2985
12468TIP3   OH258818   3.793   2.295  12.403 -0.3642 -0.2979 -0.2724
12468TIP3    H158819   3.883   2.321  12.385 -0.9903  1.9956 -0.4524
12468TIP3    H258820   3.781   2.312  12.497 -1.0592  1.1060 -0.5808
12469TIP3   OH258821   6.496   2.924  16.190  0.1323  0.2681  0.0893
12469TIP3    H158822   6.572   2.873  16.165 -0.6309 -1.0584  0.3519
12469TIP3    H258823   6.523   2.969  16.271  0.8622  0.3991 -0.2215
12470TIP3   OH258824   5.307   5.863  12.082 -0.3402  0.2608 -0.1698
12470TIP3    H158825   5.395   5.828  12.091  0.2991  2.0563  1.0982
12470TIP3    H258826   5.289   5.860  11.988 -0.5169 -3.6303 -0.1754
12471TIP3   OH258827   2.178   6.396  11.250 -0.7145  0.1599 -0.1586
12471TIP3    H158828   2.187   6.403  11.345  1.6121 -0.1064 -0.2954
12471TIP3    H258829   2.110   6.460  11.228  0.0046  1.5776  1.4866
12472TIP3   OH258830   4.685   5.694  11.346  0.0485  0.0064 -0.2371
12472TIP3    H158831   4.653   5.669  11.259  0.1110  0.8463 -0.5162
12472TIP3    H258832   4.610   5.683  11.404 -0.1907  0.1032 -0.5269
12473TIP3   OH258833   4.062   5.618  15.898  0.8021 -0.3557 -0.1743
12473TIP3    H158834   4.064   5.711  15.876 -1.6158  0.1719  1.4387
12473TIP3    H258835   4.152   5.589  15.889  1.7071  2.2530 -0.2866
12474TIP3   OH258836   0.355   6.171  12.854 -0.0058 -0.6916 -0.0036
12474TIP3    H158837   0.260   6.165  12.861  0.1446 -1.5013  1.9059
12474TIP3    H258838   0.381   6.229  12.926  0.8982  0.1825 -0.9960
12475TIP3   OH258839   1.098   0.996  14.140 -0.2062 -0.2317  0.3331
12475TIP3    H158840   1.167   0.952  14.189  0.7877  0.3971 -0.4434
12475TIP3    H258841   1.086   0.942  14.061 -2.4449 -1.7535  1.6000
12476TIP3   OH258842   1.338   3.374   2.552  0.1982 -0.0035 -0.1113
12476TIP3    H158843   1.431   3.350   2.551  0.1660 -0.3111  1.6910
12476TIP3    H258844   1.296   3.305   2.501  0.8640 -0.2878 -0.2967
12477TIP3   OH258845   5.919   4.708  17.275  0.0007  0.8354 -0.3215
12477TIP3    H158846   5.838   4.684  17.229 -0.8904  1.8254  0.6845
12477TIP3    H258847   5.931   4.801  17.256  0.0524  1.0684  0.7934
12478TIP3   OH258848   2.385   1.025   1.005 -0.3157  0.2130 -0.9046
12478TIP3    H158849   2.432   1.061   0.930 -0.6647 -0.5296 -1.5000
12478TIP3    H258850   2.293   1.025   0.978 -0.4920  0.3203 -0.3140
12479TIP3   OH258851   1.382   1.780   4.430  0.0096  0.4354 -0.2029
12479TIP3    H158852   1.329   1.857   4.452 -1.1525 -0.3230 -0.2582
12479TIP3    H258853   1.472   1.807   4.447 -0.3009  2.0802 -1.0141
12480TIP3   OH258854   4.219   3.739  17.273 -0.7101 -0.2142  0.2191
12480TIP3    H158855   4.141   3.792  17.285  0.5562  1.7325  0.3521
12480TIP3    H258856   4.225   3.725  17.178 -2.5982 -2.7093  0.3683
12481TIP3   OH258857   0.629   3.775  12.932  0.0078 -0.1061 -0.5906
12481TIP3    H158858   0.638   3.853  12.986 -1.5699  0.2163 -0.7596
12481TIP3    H258859   0.538   3.776  12.902 -0.5300 -2.8100  0.6468
12482TIP3   OH258860   2.776   4.370   5.082  0.4999  0.3969 -0.2971
12482TIP3    H158861   2.809   4.415   5.161  0.6306 -3.2497  1.9303
12482TIP3    H258862   2.684   4.396   5.076  0.8792  1.9361  0.0967
12483TIP3   OH258863   5.051   0.666   4.777 -0.8516 -0.0879 -0.2061
12483TIP3    H158864   5.068   0.747   4.729  0.6625  0.7906  1.6572
12483TIP3    H258865   5.121   0.607   4.750 -0.7801 -0.0568 -0.0925
12484TIP3   OH258866   1.619   6.633   3.070 -0.5036 -0.4811 -0.0259
12484TIP3    H158867   1.601   6.565   3.135  0.5964 -1.3425 -0.5894
12484TIP3    H258868   1.712   6.653   3.080 -0.7526  0.8222 -0.0106
12485TIP3   OH258869   0.131   5.719   2.169  0.0606  0.2530 -0.0451
12485TIP3    H158870   0.209   5.693   2.219 -0.4004 -0.3101  0.4030
12485TIP3    H258871   0.166   5.759   2.090  0.8080  0.9521  0.6201
12486TIP3   OH258872   0.252   4.068   1.506 -0.0615 -0.4949  0.1560
12486TIP3    H158873   0.335   4.084   1.461 -0.6786 -1.3136 -1.3262
12486TIP3    H258874   0.261   3.980   1.543 -0.0827 -0.3752  0.4508
12487TIP3   OH258875   6.569   0.702   3.675 -0.6660 -0.5129 -0.4062
12487TIP3    H158876   6.500   0.639   3.693 -0.1377 -0.6909  1.1752
12487TIP3    H258877   6.534   0.786   3.704 -1.4577  0.0270 -2.7244
12488TIP3   OH258878   3.082   6.029   5.257  0.2760  0.1896 -0.1416
12488TIP3    H158879   3.025   6.106   5.249  1.8295  1.4462  0.3981
12488TIP3    H258880   3.086   5.993   5.169 -3.3236 -1.4764  0.1885
12489TIP3   OH258881   6.174   4.431  11.391 -0.3507  0.4696 -0.3999
12489TIP3    H158882   6.229   4.492  11.342  0.0559  0.1327 -0.3676
12489TIP3    H258883   6.103   4.410  11.331  1.3371 -1.7164 -1.7772
12490TIP3   OH258884   2.417   0.511  17.317 -0.4259 -0.4243  1.0316
12490TIP3    H158885   2.496   0.554  17.351 -0.8628  0.3057  1.1449
12490TIP3    H258886   2.443   0.420  17.306  1.1709  0.2333 -1.2317
12491TIP3   OH258887   0.686   3.372   6.291  0.3713 -0.2527  0.2420
12491TIP3    H158888   0.754   3.431   6.326  2.1165 -0.7436 -2.0988
12491TIP3    H258889   0.717   3.284   6.312  0.4293 -0.4800 -0.7592
12492TIP3   OH258890   5.836   6.238   5.747  0.6583 -0.3787  0.9375
12492TIP3    H158891   5.763   6.253   5.687  2.1185  4.2187 -0.1325
12492TIP3    H258892   5.807   6.279   5.829  1.2060 -0.5215  1.2027
12493TIP3   OH258893   2.485   5.744  16.462  0.6319 -0.1011 -0.4750
12493TIP3    H158894   2.524   5.745  16.375  3.3748 -0.2786  0.6600
12493TIP3    H258895   2.552   5.780  16.519 -1.5639  1.2342  1.4379
12494TIP3   OH258896   6.409   1.613  15.089 -0.1429 -0.0918  0.3646
12494TIP3    H158897   6.356   1.570  15.022 -0.8118 -0.2014  0.9521
12494TIP3    H258898   6.461   1.543  15.129  2.0556  0.2934 -1.5980
12495TIP3   OH258899   1.720   0.243  16.028 -0.0594  0.1104 -0.1804
12495TIP3    H158900   1.759   0.159  16.007  0.0096 -0.1959  1.1134
12495TIP3    H258901   1.794   0.299  16.051 -0.0535  0.7013 -1.5416
12496TIP3   OH258902   4.180   5.731   0.633  0.1442  0.1345  0.4521
12496TIP3    H158903   4.233   5.728   0.554 -0.9934  2.1473 -0.4815
12496TIP3    H258904   4.090   5.739   0.601 -0.5325 -0.8742  1.9760
12497TIP3   OH258905   2.706   5.019  16.597  0.3736  0.2842  0.0301
12497TIP3    H158906   2.746   4.979  16.674 -0.5983  2.1653  1.5775
12497TIP3    H258907   2.780   5.048  16.543  1.0790 -2.0338 -0.3715
12498TIP3   OH258908   5.425   3.219   0.683 -0.2510 -0.2086 -0.7335
12498TIP3    H158909   5.348   3.190   0.634 -1.4625  0.7055  0.5267
12498TIP3    H258910   5.477   3.140   0.696 -1.6874 -1.1389 -0.4254
12499TIP3   OH258911   4.886   5.943  12.670  0.2791  0.1195  0.4343
12499TIP3    H158912   4.889   6.034  12.698  1.3664  0.5067 -0.8650
12499TIP3    H258913   4.977   5.918  12.657 -0.0749 -0.6618 -0.7337
12500TIP3   OH258914   6.360   4.021  12.191 -0.1195  0.2686 -0.2685
12500TIP3    H158915   6.377   4.112  12.166 -0.4524  0.3523 -0.1935
12500TIP3    H258916   6.271   4.004  12.160 -1.1670  0.8638  2.1558
12501TIP3   OH258917   0.877   6.198  15.831 -0.2243 -0.0376  0.2263
12501TIP3    H158918   0.891   6.145  15.910 -0.4433  0.3805  0.5545
12501TIP3    H258919   0.907   6.285  15.856 -1.1918  0.3294  0.1752
12502TIP3   OH258920   1.997   3.071  11.229  0.4659 -0.0420 -0.7829
12502TIP3    H158921   2.080   3.040  11.192  2.4821  1.9366  1.6810
12502TIP3    H258922   1.974   3.148  11.177 -0.0333 -0.7654 -1.6581
12503TIP3   OH258923   5.321   3.849  12.952 -0.3103  0.3170  0.0180
12503TIP3    H158924   5.357   3.767  12.988 -0.4879 -0.6426 -1.8529
12503TIP3    H258925   5.317   3.908  13.027  1.9537 -0.6410  0.9861
12504TIP3   OH258926   4.020   2.095  16.302 -0.2146 -1.0750  0.0755
12504TIP3    H158927   3.939   2.131  16.264  0.0618 -2.7019 -2.2652
12504TIP3    H258928   4.028   2.140  16.386 -2.4955  0.5896 -0.4701
12505TIP3   OH258929   5.733   5.358   2.052 -0.0459 -0.0629 -1.1015
12505TIP3    H158930   5.792   5.374   1.979 -1.1307  0.3239 -1.9336
12505TIP3    H258931   5.698   5.270   2.037  0.9989 -0.6735 -0.0990
12506TIP3   OH258932   3.334   0.029  12.985  0.7413  0.6658  0.3347
12506TIP3    H158933   3.394  -0.039  13.016  0.7829 -0.0361 -1.2346
12506TIP3    H258934   3.266  -0.019  12.938  0.5126  1.6770 -0.3853
12507TIP3   OH258935   5.136   5.543   3.600  0.5719  0.1070  0.0137
12507TIP3    H158936   5.130   5.631   3.637  0.8942  0.6146 -1.0953
12507TIP3    H258937   5.089   5.487   3.662 -1.2990  1.3480 -0.1992
12508TIP3   OH258938   5.897   4.701   0.392  0.9242  0.3376  0.4095
12508TIP3    H158939   5.841   4.654   0.453 -0.2916  0.7021 -0.3890
12508TIP3    H258940   5.837   4.737   0.327  2.2365 -0.7083 -1.4684
12509TIP3   OH258941   6.620   5.564   2.942 -0.3289  0.3567 -0.3459
12509TIP3    H158942   6.701   5.614   2.936 -0.3509  0.5589  0.8524
12509TIP3    H258943   6.588   5.581   3.030 -0.5214 -1.4970 -0.0218
12510TIP3   OH258944   2.184   2.437   3.520 -0.3209 -0.6057  0.1509
12510TIP3    H158945   2.263   2.468   3.477 -0.5584 -1.2704 -0.7968
12510TIP3    H258946   2.214   2.406   3.606  0.3719 -0.4560 -0.0321
12511TIP3   OH258947   5.701   3.667   0.719 -0.0315 -0.1605  0.0605
12511TIP3    H158948   5.688   3.693   0.628  1.5448  2.9636  0.5817
12511TIP3    H258949   5.736   3.578   0.714  0.9908  0.2937 -2.4598
12512TIP3   OH258950   4.607   6.516  16.409  0.4372  0.3570 -0.0186
12512TIP3    H158951   4.684   6.477  16.450 -0.5844  0.6391  2.3074
12512TIP3    H258952   4.636   6.539  16.320  1.7788 -3.3566 -0.7054
12513TIP3   OH258953   1.256   6.092  15.362 -0.0691 -0.2889 -0.0015
12513TIP3    H158954   1.179   6.132  15.322 -0.0472  0.5368  0.7565
12513TIP3    H258955   1.312   6.166  15.385  0.7285 -0.8589 -0.1045
12514TIP3   OH258956   0.343   5.716   1.393 -0.3903 -0.0408 -0.3750
12514TIP3    H158957   0.419   5.774   1.380 -0.5078  0.2059  0.0085
12514TIP3    H258958   0.333   5.671   1.309  1.8233 -2.0723  0.3421
12515TIP3   OH258959   4.104   4.396  11.683  0.0968 -0.1461 -0.1431
12515TIP3    H158960   4.016   4.424  11.707  0.1791  1.0943 -1.2212
12515TIP3    H258961   4.161   4.464  11.719  0.3804  0.5968 -1.9030
12516TIP3   OH258962   3.136   5.591  13.549  0.5062  0.4513  0.0151
12516TIP3    H158963   3.097   5.657  13.607 -0.7122 -0.0563 -0.2081
12516TIP3    H258964   3.134   5.632  13.462 -0.7953 -0.0836 -0.2242
12517TIP3   OH258965   6.308   0.459  12.969  0.1368 -0.2225 -0.5784
12517TIP3    H158966   6.304   0.519  13.043 -1.1642  0.7809 -1.4370
12517TIP3    H258967   6.341   0.377  13.007  3.2200  1.3149  0.3799
12518TIP3   OH258968   1.716   6.153  15.653  0.4337  0.2980 -0.9153
12518TIP3    H158969   1.733   6.168  15.560 -0.9515  0.9380 -1.0800
12518TIP3    H258970   1.656   6.079  15.655 -0.1040  0.7425 -0.5674
12519TIP3   OH258971   0.801   1.642  14.803 -0.1599  0.6584  0.1285
12519TIP3    H158972   0.750   1.699  14.861 -1.2418  0.2868 -0.4301
12519TIP3    H258973   0.892   1.661  14.826 -0.5380  0.9514  1.5353
12520TIP3   OH258974   5.683   5.218   5.033  0.2016 -0.1794 -0.0422
12520TIP3    H158975   5.705   5.136   4.989  0.5146  0.4128 -1.0140
12520TIP3    H258976   5.613   5.194   5.093 -0.4473 -0.9531 -1.0711
12521TIP3   OH258977   4.686   2.292  17.246  0.6381  0.1875  0.1785
12521TIP3    H158978   4.730   2.279  17.162 -0.5225  0.4458 -0.4909
12521TIP3    H258979   4.602   2.332  17.223  0.1858  0.0033  1.4441
12522TIP3   OH258980   4.272   4.776  13.594  0.1387 -0.5848 -0.1583
12522TIP3    H158981   4.236   4.863  13.577 -2.0437 -1.0923  1.3604
12522TIP3    H258982   4.296   4.742  13.508  2.6219  2.0626 -0.6611
12523TIP3   OH258983   1.433   2.912   2.102 -0.2028  0.3032  0.3575
12523TIP3    H158984   1.412   2.951   2.187 -0.9675 -0.8850  0.7460
12523TIP3    H258985   1.383   2.964   2.039  0.3890  1.2109  0.6126
12524TIP3   OH258986   4.727   1.525   3.162  0.1493 -0.0101  0.0398
12524TIP3    H158987   4.770   1.610   3.165  0.6608 -0.2751  2.2253
12524TIP3    H258988   4.795   1.464   3.132  0.3742  0.0469  0.4344
12525TIP3   OH258989   5.250   0.170   3.721  0.7479 -0.3727  0.4373
12525TIP3    H158990   5.333   0.186   3.767  0.7931 -0.1578  0.2804
12525TIP3    H258991   5.272   0.177   3.628  0.9974 -2.3421  0.2929
12526TIP3   OH258992   3.304   2.687  12.310 -0.5430 -0.2436  0.4294
12526TIP3    H158993   3.337   2.626  12.244 -1.7787 -1.7212  1.1132
12526TIP3    H258994   3.365   2.680  12.382  0.9812  1.5963 -0.5902
12527TIP3   OH258995   5.787   5.082   2.902  0.4063  0.1391 -0.0807
12527TIP3    H158996   5.732   5.157   2.880  0.2208 -0.5749 -2.2437
12527TIP3    H258997   5.869   5.121   2.934 -0.8838  1.2126  2.2210
12528TIP3   OH258998   4.789   3.404  15.512  0.3602 -0.3700 -0.3298
12528TIP3    H158999   4.709   3.439  15.551  0.2563  1.2337 -1.8618
12528TIP3    H259000   4.857   3.466  15.536  0.2681  0.7651 -2.6779
12529TIP3   OH259001   1.042   4.754  13.068 -0.5922 -0.3131  0.0945
12529TIP3    H159002   1.029   4.728  12.977 -0.0722  0.8434 -0.3371
12529TIP3    H259003   0.962   4.801  13.091  0.2973  1.7064 -0.6654
12530TIP3   OH259004   4.952   5.275   3.223  0.3816  0.0266  0.5441
12530TIP3    H159005   4.918   5.188   3.204  0.7698 -0.2555  1.1195
12530TIP3    H259006   4.874   5.330   3.230  0.1906  0.3583 -2.6182
12531TIP3   OH259007   4.635   5.104  16.875 -0.4712  0.3560  0.2833
12531TIP3    H159008   4.693   5.172  16.842 -0.1507 -0.4941 -0.9533
12531TIP3    H259009   4.549   5.146  16.881  0.1668  1.5332  1.8497
12532TIP3   OH259010   3.083   3.494   1.401 -0.0485  0.4867 -0.7559
12532TIP3    H159011   3.127   3.430   1.457  0.8644  0.4110 -1.5328
12532TIP3    H259012   2.991   3.490   1.427 -0.1571 -1.7181 -1.3430
12533TIP3   OH259013   4.410   5.943   1.273 -0.3721 -0.6374 -0.1513
12533TIP3    H159014   4.505   5.932   1.282 -0.2659  1.2557  2.2100
12533TIP3    H259015   4.386   5.889   1.198  2.8822  0.4718 -2.1840
12534TIP3   OH259016   3.541   5.981   5.874  0.4288  0.1027 -0.5223
12534TIP3    H159017   3.482   5.977   5.950  1.0614  2.0510  0.1409
12534TIP3    H259018   3.485   5.966   5.799  0.1505 -4.5235  0.3047
12535TIP3   OH259019   0.295   5.205  14.090 -0.3149 -0.2332 -0.0533
12535TIP3    H159020   0.319   5.145  14.160  0.9609  1.0542  0.6828
12535TIP3    H259021   0.358   5.188  14.020 -1.0761 -0.9626 -0.5669
12536TIP3   OH259022   4.746   1.529  15.340  0.0898 -0.2917  0.3756
12536TIP3    H159023   4.822   1.581  15.366  1.2209 -1.6432 -0.1374
12536TIP3    H259024   4.703   1.582  15.273  1.9695 -0.5308 -1.1048
12537TIP3   OH259025   4.853   2.862   5.643 -0.7286 -0.3399  0.4880
12537TIP3    H159026   4.876   2.935   5.700 -0.3710 -0.3706  0.3852
12537TIP3    H259027   4.922   2.797   5.658  0.1688  0.2301 -1.0250
12538TIP3   OH259028   4.959   1.024   1.789  0.7162  0.3877  0.2939
12538TIP3    H159029   4.966   0.930   1.776 -0.4274  0.3853 -0.3973
12538TIP3    H259030   4.867   1.039   1.811  0.5058  1.5040 -1.1929
12539TIP3   OH259031   3.204   1.465  13.045 -0.5557  0.6101 -0.2465
12539TIP3    H159032   3.229   1.416  12.967  1.2215  1.8629 -0.5221
12539TIP3    H259033   3.111   1.483  13.033 -1.1361 -2.0948 -0.4154
12540TIP3   OH259034   3.292   5.982   4.996  0.6693  0.3215  0.4340
12540TIP3    H159035   3.386   5.996   4.986  0.6454 -0.7007 -1.7006
12540TIP3    H259036   3.285   5.896   5.038  0.7337 -0.7611 -1.6448
12541TIP3   OH259037   4.317   6.463   5.795 -0.2758  0.3938 -0.4238
12541TIP3    H159038   4.244   6.438   5.738 -0.3751 -0.0683 -0.1004
12541TIP3    H259039   4.342   6.382   5.839 -0.0240  0.6910 -0.0139
12542TIP3   OH259040   5.830   5.830   5.984 -0.0695 -0.1247 -0.8158
12542TIP3    H159041   5.799   5.920   5.982  0.2020 -0.0204 -0.4274
12542TIP3    H259042   5.754   5.780   6.015  0.4157  0.2622  1.1276
12543TIP3   OH259043   2.107   2.235  11.459 -0.0224 -0.6492  0.0024
12543TIP3    H159044   2.138   2.325  11.446  0.4415 -1.0203 -1.7089
12543TIP3    H259045   2.183   2.181  11.441 -0.8308 -1.4576 -1.1115
12544TIP3   OH259046   1.661   0.409  13.886  0.3978 -0.0543 -0.1923
12544TIP3    H159047   1.723   0.483  13.889  0.2149  0.0950 -0.0152
12544TIP3    H259048   1.652   0.382  13.977  0.5299 -0.3521 -0.2672
12545TIP3   OH259049   5.992   4.391   4.506 -0.0648  0.0340  0.0627
12545TIP3    H159050   5.903   4.377   4.538 -0.5226 -0.2825 -1.3171
12545TIP3    H259051   6.048   4.348   4.572 -0.8385  1.1472  1.4952
12546TIP3   OH259052   3.819   3.126   1.924 -0.9626  0.0807 -0.1491
12546TIP3    H159053   3.890   3.068   1.953  1.1952  3.1459  1.1799
12546TIP3    H259054   3.740   3.085   1.959  0.7307 -0.6610  3.3074
12547TIP3   OH259055   3.539   2.138  15.839  0.1504  0.1452  0.0342
12547TIP3    H159056   3.505   2.117  15.927  1.4543 -0.7993  0.3531
12547TIP3    H259057   3.610   2.200  15.855  0.1151  0.3013 -0.4047
12548TIP3   OH259058   3.805   6.060  17.348  0.1595  0.5359 -0.3095
12548TIP3    H159059   3.791   5.971  17.379 -0.1368  0.6886  0.0160
12548TIP3    H259060   3.717   6.100  17.350  0.5189  1.3629  1.2541
12549TIP3   OH259061   1.471   6.586   1.842 -0.5720  0.7310 -0.1182
12549TIP3    H159062   1.381   6.617   1.836 -0.7335  0.0091 -1.8752
12549TIP3    H259063   1.471   6.502   1.796  0.8554  0.3841  0.4656
12550TIP3   OH259064   2.637   5.874  15.050  0.5574  0.5468  0.4042
12550TIP3    H159065   2.710   5.816  15.070  0.1486  0.3250  1.3247
12550TIP3    H259066   2.626   5.869  14.955 -0.4655 -2.1067  0.5746
12551TIP3   OH259067   2.732   2.029  10.955 -0.1290  0.7213 -0.2800
12551TIP3    H159068   2.746   2.119  10.926  1.5568  0.5144 -0.1924
12551TIP3    H259069   2.665   1.995  10.896  1.0257  1.2759 -1.9903
12552TIP3   OH259070   2.545   3.443   2.100 -0.0285 -0.0433 -0.3192
12552TIP3    H159071   2.482   3.376   2.076 -0.6800  0.4116  0.0768
12552TIP3    H259072   2.501   3.526   2.079  0.6089  0.2715 -0.4486
12553TIP3   OH259073   5.384   1.609  16.420 -0.7179 -0.3778 -1.1205
12553TIP3    H159074   5.447   1.659  16.472 -1.6976  1.3086 -1.4875
12553TIP3    H259075   5.419   1.611  16.331  0.1013 -1.8426 -0.8660
12554TIP3   OH259076   2.275   0.478   2.330 -0.2797 -0.1535  0.3656
12554TIP3    H159077   2.314   0.480   2.242  0.3841 -0.1521  0.6569
12554TIP3    H259078   2.335   0.424   2.382 -1.0551 -0.7762  0.6419
12555TIP3   OH259079   5.789   4.530  10.676  0.3542 -0.0876 -0.1738
12555TIP3    H159080   5.728   4.578  10.621  0.0001 -1.5429 -1.1282
12555TIP3    H259081   5.736   4.460  10.715  1.1510 -0.6486 -0.0701
12556TIP3   OH259082   0.834   6.536  12.586 -0.3853 -0.7842 -0.1710
12556TIP3    H159083   0.791   6.565  12.505 -1.9281 -1.5617  0.3397
12556TIP3    H259084   0.863   6.447  12.567  0.7623 -0.3835 -0.3993
12557TIP3   OH259085   3.109   3.084   4.541 -0.1791  0.6734  0.5528
12557TIP3    H159086   3.142   2.995   4.540 -1.6925  0.0908 -0.7925
12557TIP3    H259087   3.110   3.112   4.449 -1.1800  1.4655  0.7579
12558TIP3   OH259088   3.635   6.553   2.941 -0.4990 -0.2412  0.2431
12558TIP3    H159089   3.563   6.601   2.899 -0.4204  0.7330  1.1806
12558TIP3    H259090   3.638   6.587   3.030  0.7119 -0.7476  0.4186
12559TIP3   OH259091   2.869   0.290  11.668  0.0215 -0.2693  0.4275
12559TIP3    H159092   2.902   0.375  11.698  0.7108 -0.9205  1.5510
12559TIP3    H259093   2.838   0.247  11.747 -2.7740 -0.0560 -0.4445
12560TIP3   OH259094   4.210   3.128  16.888  0.3875 -0.1783  0.8492
12560TIP3    H159095   4.219   3.210  16.937 -0.8646  0.2599  0.3840
12560TIP3    H259096   4.272   3.136  16.816 -0.1109  0.6060  0.4945
12561TIP3   OH259097   4.848   3.801  15.605  0.0017 -0.0913 -0.9487
12561TIP3    H159098   4.934   3.765  15.583  1.2535  1.0380  1.6804
12561TIP3    H259099   4.790   3.769  15.536  2.0245 -2.8823 -1.5231
12562TIP3   OH259100   4.625   1.003  15.454 -0.7792 -0.2499  0.3711
12562TIP3    H159101   4.663   0.928  15.499 -1.1727 -0.6920 -0.0322
12562TIP3    H259102   4.541   0.972  15.420  0.2182 -0.4592 -2.1235
12563TIP3   OH259103   2.569   3.117   2.241  0.4960  0.5056 -0.2703
12563TIP3    H159104   2.556   3.126   2.336  2.9664  0.6287  0.1020
12563TIP3    H259105   2.503   3.175   2.203 -0.7355  0.2585  1.3271
12564TIP3   OH259106   2.618   0.819   3.164 -0.2192 -0.1080 -1.0895
12564TIP3    H159107   2.572   0.738   3.185 -0.2142  0.0164 -0.5827
12564TIP3    H259108   2.701   0.790   3.126  1.9007 -0.5459  3.2174
12565TIP3   OH259109   6.215   1.427  12.346 -0.3150 -0.1951 -0.5190
12565TIP3    H159110   6.260   1.344  12.330 -0.5363 -0.2558 -0.8412
12565TIP3    H259111   6.152   1.407  12.415 -0.4967 -0.3435 -0.7267
12566TIP3   OH259112   0.389   5.901  11.256 -0.0920  0.0918 -0.5018
12566TIP3    H159113   0.384   5.996  11.246  0.1332  0.3657  1.6004
12566TIP3    H259114   0.309   5.877  11.302 -0.0697 -0.7354 -0.8645
12567TIP3   OH259115   5.125   0.454  16.340  0.0701  0.0436  0.2882
12567TIP3    H159116   5.080   0.441  16.256 -3.4976  0.8566  1.8743
12567TIP3    H259117   5.095   0.381  16.394  0.0394  1.0425  1.6563
12568TIP3   OH259118   1.369   4.907  16.483 -0.1667  0.2158 -0.7188
12568TIP3    H159119   1.366   4.841  16.414 -0.7928 -0.2640 -0.2467
12568TIP3    H259120   1.416   4.865  16.555 -0.6665  0.2368 -0.3728
12569TIP3   OH259121   3.899   4.266   0.501 -0.1107  0.2186 -0.2893
12569TIP3    H159122   3.879   4.196   0.439 -1.5173  0.7075 -0.4100
12569TIP3    H259123   3.819   4.276   0.553  0.6408  0.6149  0.8421
12570TIP3   OH259124   2.521   1.182   3.879  0.0997  0.2676  0.2617
12570TIP3    H159125   2.443   1.140   3.915 -1.1775  2.0709 -0.2129
12570TIP3    H259126   2.580   1.110   3.857 -2.1674 -1.3288 -1.0585
12571TIP3   OH259127   6.037   6.700   0.513  0.0604  0.3952 -0.0815
12571TIP3    H159128   6.028   6.790   0.479  1.0571  0.9568  1.0464
12571TIP3    H259129   6.117   6.667   0.471 -0.2658  0.0503 -0.4393
12572TIP3   OH259130   3.037   3.291  15.433  0.1702  0.2281 -0.2254
12572TIP3    H159131   2.980   3.262  15.361 -0.1474  0.1939  0.0380
12572TIP3    H259132   3.031   3.221  15.498  2.1163 -0.7897 -1.0445
12573TIP3   OH259133   0.149   3.038   2.575  0.2380  0.3914 -0.5332
12573TIP3    H159134   0.147   2.953   2.530 -1.2073  0.5317 -0.7876
12573TIP3    H259135   0.124   3.101   2.508 -1.0493  0.7128  0.2082
12574TIP3   OH259136   1.793   0.381  16.889  0.5741 -0.6625 -0.2739
12574TIP3    H159137   1.859   0.449  16.873 -0.5711  0.5940  0.0708
12574TIP3    H259138   1.809   0.315  16.822  2.4354 -0.6104  0.0683
12575TIP3   OH259139   4.650   1.302  15.685 -0.6108 -0.5757  0.0916
12575TIP3    H159140   4.736   1.311  15.643 -0.5199 -0.3575  0.3222
12575TIP3    H259141   4.631   1.389  15.720 -0.2259 -0.9947  1.3892
12576TIP3   OH259142   0.214   6.460   4.855  0.4011  0.3111  0.3307
12576TIP3    H159143   0.133   6.507   4.873  1.1229  1.6520  0.1819
12576TIP3    H259144   0.203   6.424   4.767 -0.6227 -0.8312  0.9046
12577TIP3   OH259145   4.797   1.703   1.936 -0.0995  0.3364  0.1835
12577TIP3    H159146   4.890   1.727   1.942 -0.2861  0.7598  1.5941
12577TIP3    H259147   4.794   1.641   1.863  1.0321  1.5294 -0.9461
12578TIP3   OH259148   3.474   0.686  16.122 -0.0394  0.2029 -0.0402
12578TIP3    H159149   3.460   0.736  16.202  2.2447  0.7491  0.0776
12578TIP3    H259150   3.566   0.699  16.101 -0.3609 -0.6740 -2.2712
12579TIP3   OH259151   1.274   0.528   2.254 -0.2775  0.3713  0.1495
12579TIP3    H159152   1.280   0.453   2.196 -0.6772  1.0526 -0.8032
12579TIP3    H259153   1.363   0.563   2.258 -0.5196  1.2829 -1.4091
12580TIP3   OH259154   3.351   3.543  11.907  0.2842  0.1147  0.3653
12580TIP3    H159155   3.393   3.486  11.843 -1.7514  0.4413 -1.3762
12580TIP3    H259156   3.278   3.491  11.942  0.2976  0.5705  1.1107
12581TIP3   OH259157   1.710   4.772  16.295 -0.0244  0.5110 -0.4788
12581TIP3    H159158   1.715   4.755  16.200  1.1582 -0.3175 -0.2922
12581TIP3    H259159   1.799   4.795  16.320 -0.7014  2.7752  0.1135
12582TIP3   OH259160   0.839   0.825   4.842 -0.2105 -0.2347 -0.0896
12582TIP3    H159161   0.848   0.865   4.755 -0.3036  1.6040  0.7011
12582TIP3    H259162   0.921   0.848   4.887 -0.2136 -1.0734  0.3711
12583TIP3   OH259163   5.387   1.414   4.805 -0.0157 -0.2905 -0.0299
12583TIP3    H159164   5.480   1.410   4.828  0.0435  0.6964 -0.0561
12583TIP3    H259165   5.372   1.506   4.784 -0.6758 -0.6963 -1.4285
12584TIP3   OH259166   0.273   6.601   5.110 -0.4239 -0.0865  0.0303
12584TIP3    H159167   0.366   6.586   5.130  0.8233  2.5296 -2.8988
12584TIP3    H259168   0.257   6.547   5.033 -0.7163  0.9038 -0.6233
12585TIP3   OH259169   6.048   3.142   5.595 -0.0269 -0.7041 -0.3290
12585TIP3    H159170   6.029   3.069   5.654 -0.4611 -1.0581 -0.8969
12585TIP3    H259171   6.012   3.115   5.510 -0.4196  0.2773 -0.4908
12586TIP3   OH259172   3.208   4.005  14.792  0.6230  0.0605  0.5275
12586TIP3    H159173   3.162   4.088  14.778 -1.6624 -1.0628  0.8400
12586TIP3    H259174   3.228   4.004  14.886  1.7309  0.7541  0.3076
12587TIP3   OH259175   6.523   2.934  11.803  0.3085  0.4627  0.2036
12587TIP3    H159176   6.511   2.916  11.709 -0.6392 -0.3067  0.4623
12587TIP3    H259177   6.544   2.849  11.841  0.2638  0.6978  0.7606
12588TIP3   OH259178   6.469   1.992   0.875 -0.5301  0.4377 -0.3909
12588TIP3    H159179   6.475   2.086   0.894 -0.3980 -0.0995  2.5732
12588TIP3    H259180   6.376   1.972   0.881 -0.5611  0.3442 -1.0537
12589TIP3   OH259181   3.167   2.570   5.031  0.1029  0.1139 -0.5180
12589TIP3    H159182   3.095   2.578   4.969 -0.2551  0.7756 -0.0435
12589TIP3    H259183   3.165   2.479   5.060 -2.1795  0.6834  1.3784
12590TIP3   OH259184   2.158   6.162  11.485 -0.3014  0.0741 -0.7780
12590TIP3    H159185   2.072   6.143  11.447 -1.5714 -0.6009  2.1860
12590TIP3    H259186   2.170   6.094  11.551  0.7640  2.3590  1.5189
12591TIP3   OH259187   0.066   0.270  11.955  0.7556 -0.1330  0.0728
12591TIP3    H159188   0.051   0.356  11.916  0.5947 -0.3221 -0.2937
12591TIP3    H259189   0.105   0.219  11.884 -1.9240 -1.2768 -0.7113
12592TIP3   OH259190   3.678   1.196  14.401  0.1834 -0.2134  0.4600
12592TIP3    H159191   3.725   1.185  14.484 -0.2616 -2.4200  0.4825
12592TIP3    H259192   3.698   1.117  14.351 -1.2836  0.0715 -0.6577
12593TIP3   OH259193   1.688   1.514   3.300 -0.2828 -0.1052  0.5487
12593TIP3    H159194   1.701   1.498   3.206 -1.1499 -1.4219  0.6297
12593TIP3    H259195   1.699   1.428   3.340 -1.5349  0.1469  1.4711
12594TIP3   OH259196   0.982   4.764   2.218 -0.5938  0.1811 -0.2417
12594TIP3    H159197   1.005   4.845   2.172 -2.6827  1.6185  1.0244
12594TIP3    H259198   1.057   4.707   2.205  0.7390  2.1106 -1.6870
12595TIP3   OH259199   2.775   2.649  13.590 -0.0984 -0.1188  0.3102
12595TIP3    H159200   2.764   2.670  13.683  0.9572 -2.3870  1.0358
12595TIP3    H259201   2.737   2.723  13.543 -2.2286  0.3322  2.5565
12596TIP3   OH259202   0.244   4.267   0.018  0.2279 -0.5049  0.2992
12596TIP3    H159203   0.244   4.180   0.057 -2.6817  0.8216  3.8370
12596TIP3    H259204   0.304   4.318   0.073 -0.8537  0.5032  0.5906
12597TIP3   OH259205   3.194   0.985   0.625  0.3323  0.1236  0.0759
12597TIP3    H159206   3.165   1.057   0.680  0.7378  0.7399 -0.4948
12597TIP3    H259207   3.127   0.918   0.635 -0.6356  1.0242 -0.2474
12598TIP3   OH259208   1.487   3.137  12.314  0.6692  0.2807 -0.2816
12598TIP3    H159209   1.543   3.204  12.275  1.3146  1.0348  1.8578
12598TIP3    H259210   1.528   3.054  12.289  1.1190  0.7238 -1.0724
12599TIP3   OH259211   4.828   0.937   4.762  0.1331  0.3154  0.3003
12599TIP3    H159212   4.914   0.960   4.797  1.5944 -1.6176 -1.8077
12599TIP3    H259213   4.785   0.891   4.834  1.1352  0.6300  1.1295
12600TIP3   OH259214   0.933   2.730  14.470 -0.1938  0.1298  0.4172
12600TIP3    H159215   0.939   2.823  14.448  1.0150  1.2576  4.5840
12600TIP3    H259216   0.841   2.716  14.489 -0.3435  0.5506  0.0135
12601TIP3   OH259217   4.542   1.429  14.288  0.0897  0.2876 -0.1148
12601TIP3    H159218   4.508   1.381  14.363  0.3491 -0.4148 -0.4425
12601TIP3    H259219   4.625   1.387  14.267  0.4046  0.9822 -0.3098
12602TIP3   OH259220   2.841   0.159   2.418 -0.2961  0.5306 -0.1342
12602TIP3    H159221   2.827   0.165   2.323  2.0513  0.3961 -0.5690
12602TIP3    H259222   2.818   0.246   2.451  0.6680  1.2106 -1.1614
12603TIP3   OH259223   4.948   6.215  12.199 -0.1360 -0.4316 -0.1500
12603TIP3    H159224   5.020   6.228  12.261 -0.1178 -1.6560  0.1075
12603TIP3    H259225   4.986   6.164  12.128 -0.4899 -0.1680 -0.5304
12604TIP3   OH259226   0.375   1.034   5.439  0.2163  0.4706  0.1404
12604TIP3    H159227   0.345   0.972   5.505  0.7379  1.7187  1.6303
12604TIP3    H259228   0.316   1.108   5.447  0.9672  1.1015  0.0040
12605TIP3   OH259229   1.946   2.203   5.939  0.2874 -0.2327 -0.6475
12605TIP3    H159230   1.895   2.279   5.967 -1.0588 -1.8379  1.6456
12605TIP3    H259231   2.037   2.226   5.957 -0.0247  1.1297 -0.7690
12606TIP3   OH259232   4.091   5.105  13.630  0.3752 -0.7539  0.0392
12606TIP3    H159233   4.183   5.091  13.610  0.0318 -1.5949 -1.0305
12606TIP3    H259234   4.063   5.173  13.568 -0.4585 -2.6946 -1.8236
12607TIP3   OH259235   0.331   1.233   3.746 -0.7424  0.6252 -0.3687
12607TIP3    H159236   0.395   1.164   3.763  0.7239  1.7758 -1.0180
12607TIP3    H259237   0.311   1.225   3.653 -1.7611  0.1288 -0.1256
12608TIP3   OH259238   0.017   4.979   2.565  0.1547  0.3215  0.1925
12608TIP3    H159239   0.008   4.914   2.495 -0.2751  0.7920 -0.1872
12608TIP3    H259240  -0.063   4.971   2.616  0.5304 -0.1207  0.7230
12609TIP3   OH259241   4.645   6.463   2.578 -0.5408  0.0241  0.3146
12609TIP3    H159242   4.609   6.493   2.494 -0.1793 -1.2207 -0.3150
12609TIP3    H259243   4.601   6.379   2.594  0.2293 -0.3012  0.7820
12610TIP3   OH259244   0.904   1.885  16.645 -0.8967 -0.5193 -0.3083
12610TIP3    H159245   0.887   1.866  16.737  0.1040 -0.0294 -0.0100
12610TIP3    H259246   0.921   1.800  16.605 -3.3405 -0.9805 -0.5130
12611TIP3   OH259247   6.076   1.198   4.722 -0.5786  0.0895 -0.3592
12611TIP3    H159248   6.070   1.285   4.683  0.4637 -0.0587 -0.8802
12611TIP3    H259249   6.020   1.203   4.800  1.8745  2.2557  1.4527
12612TIP3   OH259250   3.255   3.938  13.724  0.1313  0.5690 -0.4456
12612TIP3    H159251   3.275   3.845  13.718  0.8177  0.7940 -2.4635
12612TIP3    H259252   3.169   3.942  13.766 -0.0261 -0.9847 -0.5837
12613TIP3   OH259253   6.152   4.207   4.674  0.1934  0.6952 -0.7070
12613TIP3    H159254   6.228   4.175   4.723  0.3467 -0.0596 -1.4208
12613TIP3    H259255   6.080   4.150   4.701 -0.6973  2.7083  1.6019
12614TIP3   OH259256   4.439   3.727  16.031 -0.1308  0.2325 -0.7541
12614TIP3    H159257   4.418   3.704  15.940 -1.7423 -0.9365 -0.1351
12614TIP3    H259258   4.362   3.775  16.062 -0.2847 -0.7222  0.4270
12615TIP3   OH259259   4.709   3.145   4.492  1.1760  0.3023  0.2814
12615TIP3    H159260   4.654   3.204   4.543  0.8993 -0.2447  0.6336
12615TIP3    H259261   4.691   3.058   4.529 -0.3496 -0.3784 -1.8591
12616TIP3   OH259262   1.039   4.131   4.445 -0.5540  0.3669  0.3087
12616TIP3    H159263   0.958   4.129   4.496 -0.1645 -1.9695  0.9752
12616TIP3    H259264   1.017   4.087   4.363 -0.5066  1.7886 -0.4992
12617TIP3   OH259265   4.216   0.950   1.208 -0.1274  0.4432 -0.1016
12617TIP3    H159266   4.281   0.985   1.146  0.8065  2.2623  1.8066
12617TIP3    H259267   4.157   0.898   1.153 -0.3197  3.2473 -2.8295
12618TIP3   OH259268   3.522   6.228   4.889  0.0989 -0.1293  0.2720
12618TIP3    H159269   3.595   6.247   4.830  1.0821  0.0615  1.5064
12618TIP3    H259270   3.557   6.167   4.953 -0.5753  0.5747  1.3621
12619TIP3   OH259271   5.481   0.309   5.010 -0.6206 -0.1771  0.0052
12619TIP3    H159272   5.448   0.222   5.032 -0.7952  0.0238  0.5739
12619TIP3    H259273   5.559   0.319   5.066  0.4635 -0.6764 -1.3727
12620TIP3   OH259274   4.588   2.835  16.460  0.2222  0.1091  0.5348
12620TIP3    H159275   4.652   2.902  16.482  0.2855 -0.0769  0.9205
12620TIP3    H259276   4.507   2.884  16.440  0.7469  0.4164 -0.9689
12621TIP3   OH259277   0.713   1.116  14.541 -0.3725  0.1279 -0.5088
12621TIP3    H159278   0.741   1.064  14.465  0.3314  0.8567 -0.7622
12621TIP3    H259279   0.725   1.056  14.615  1.9327  0.3719 -0.5965
12622TIP3   OH259280   6.016   1.457  11.938 -0.4997 -0.6777  0.0746
12622TIP3    H159281   6.104   1.425  11.960 -1.2565 -2.2639  1.0057
12622TIP3    H259282   6.004   1.534  11.993  1.4274  1.5449 -2.3192
12623TIP3   OH259283   5.781   2.366   1.804 -0.1727  0.3531  0.3835
12623TIP3    H159284   5.723   2.433   1.841 -0.1615  0.1189  0.8360
12623TIP3    H259285   5.762   2.287   1.855 -0.6575 -0.1664 -0.5909
12624TIP3   OH259286   2.478   0.216  14.377  0.4078 -0.7260  0.6073
12624TIP3    H159287   2.414   0.174  14.435  1.9623 -0.9793  2.2311
12624TIP3    H259288   2.490   0.303  14.413 -0.7282  0.2079 -1.1124
12625TIP3   OH259289   5.801   3.346  11.539  0.4061 -0.0041 -0.0103
12625TIP3    H159290   5.789   3.285  11.466 -0.9298  0.6957 -0.4025
12625TIP3    H259291   5.889   3.327  11.571 -0.0517 -2.2947  0.0454
12626TIP3   OH259292   1.376   1.570  16.313  0.3673 -0.1370 -0.1425
12626TIP3    H159293   1.346   1.483  16.336 -0.4316 -0.1799 -1.2744
12626TIP3    H259294   1.435   1.556  16.239  1.2052  0.1858  0.4437
12627TIP3   OH259295   4.803   1.435   4.730  0.0619  0.0052  0.0956
12627TIP3    H159296   4.794   1.530   4.717 -0.1004 -0.2539 -2.1290
12627TIP3    H259297   4.716   1.406   4.756  0.0040  0.4059  0.3582
12628TIP3   OH259298   2.044   2.736  11.087  0.0221  0.2696 -0.3451
12628TIP3    H159299   2.091   2.682  11.024 -1.9789  0.8945 -2.5179
12628TIP3    H259300   2.087   2.822  11.083 -0.0224  0.2734 -0.8153
12629TIP3   OH259301   1.334   3.498   2.183  0.4613  0.2108 -0.1844
12629TIP3    H159302   1.363   3.507   2.274 -1.3756 -1.3753  0.6070
12629TIP3    H259303   1.399   3.440   2.142 -0.9856 -2.6586  1.3452
12630TIP3   OH259304   3.444   5.095   4.254  0.6042  0.5772  0.6155
12630TIP3    H159305   3.480   5.179   4.281  0.8271  0.7877 -0.3072
12630TIP3    H259306   3.351   5.111   4.242  0.1912  0.1046  2.7117
12631TIP3   OH259307   4.866   2.457  15.757 -0.5618  0.0146  0.2809
12631TIP3    H159308   4.806   2.453  15.682 -0.4103 -1.0094  0.2049
12631TIP3    H259309   4.815   2.423  15.830  0.4638 -2.6941 -0.1674
12632TIP3   OH259310   1.291   6.469   0.531 -0.7628 -0.3846  0.3613
12632TIP3    H159311   1.260   6.416   0.458 -1.8314  0.8174 -0.0953
12632TIP3    H259312   1.350   6.411   0.580 -2.1875 -2.1054  0.1196
12633TIP3   OH259313   6.264   4.002  13.591 -0.1365 -0.4917 -0.3380
12633TIP3    H159314   6.285   3.971  13.503 -0.2547 -0.9078 -0.2235
12633TIP3    H259315   6.226   3.926  13.635 -1.0246 -0.0233 -0.2500
12634TIP3   OH259316   3.368   4.762  15.552  0.1846  0.1351  0.3883
12634TIP3    H159317   3.324   4.689  15.596  0.2433 -0.8934 -1.1930
12634TIP3    H259318   3.460   4.735  15.547  0.2057  0.3039 -0.2017
12635TIP3   OH259319   2.901   6.133  13.932  0.0398 -0.0091 -0.5737
12635TIP3    H159320   2.885   6.143  14.025  2.6720  0.8987 -0.1275
12635TIP3    H259321   2.972   6.069  13.926 -0.5125 -0.5414 -2.0063
12636TIP3   OH259322   6.011   3.768  11.893  0.3986  0.3288 -0.3836
12636TIP3    H159323   5.981   3.731  11.976  0.6662  1.5633  0.2837
12636TIP3    H259324   5.941   3.748  11.831 -0.2059  0.1566  0.3389
12637TIP3   OH259325   2.546   1.730  17.153  0.4610 -0.3670 -0.4657
12637TIP3    H159326   2.461   1.701  17.119  0.7847 -0.2586 -1.3822
12637TIP3    H259327   2.540   1.826  17.154 -0.5619 -0.3580  2.4415
12638TIP3   OH259328   6.525   5.779  10.724 -0.4403  0.7706 -0.0834
12638TIP3    H159329   6.555   5.869  10.737 -1.7498  1.4863 -1.6721
12638TIP3    H259330   6.430   5.784  10.735 -0.6221 -0.2432 -1.0498
12639TIP3   OH259331   1.555   3.583  15.356 -0.0655 -0.0860  0.3808
12639TIP3    H159332   1.491   3.514  15.374 -0.8806  0.1673 -1.3464
12639TIP3    H259333   1.515   3.663  15.391 -0.4892 -0.0017 -0.2950
12640TIP3   OH259334   4.494   2.626  16.911  0.0226  0.0443 -0.1601
12640TIP3    H159335   4.582   2.631  16.947 -0.4614  1.1280  0.9387
12640TIP3    H259336   4.446   2.570  16.973  0.0265 -0.9160 -0.9912
12641TIP3   OH259337   4.043   2.765   0.662  0.9437  0.1348 -0.6848
12641TIP3    H159338   4.046   2.670   0.652  1.4342 -0.1272  1.4205
12641TIP3    H259339   3.964   2.781   0.713  1.0468  0.8389 -0.7428
12642TIP3   OH259340   2.136   5.835  15.570  0.9061 -0.4102 -0.1013
12642TIP3    H159341   2.125   5.928  15.591  1.5975 -0.4910  0.6447
12642TIP3    H259342   2.059   5.813  15.518 -0.7137 -0.0969  2.0222
12643TIP3   OH259343   4.691   4.058   3.980  0.5413 -1.0763 -0.3417
12643TIP3    H159344   4.741   4.115   3.921  0.6459  0.5811  1.2377
12643TIP3    H259345   4.749   3.984   3.997  2.4722  0.6651  1.2216
12644TIP3   OH259346   0.819   1.866  15.100  0.8079 -0.4057 -0.4242
12644TIP3    H159347   0.856   1.938  15.048  1.5306  1.3626  2.2859
12644TIP3    H259348   0.729   1.893  15.118  1.0160 -0.2591  0.4298
12645TIP3   OH259349   5.909   4.193  16.483 -0.1386 -0.1424 -0.3899
12645TIP3    H159350   5.952   4.133  16.544 -1.1674 -2.9118 -2.1915
12645TIP3    H259351   5.821   4.158  16.473 -1.0916  2.2059 -0.9423
12646TIP3   OH259352   0.586   3.154  12.426  0.4350  0.1009 -0.5569
12646TIP3    H159353   0.635   3.095  12.482  0.0045  0.2233 -0.0394
12646TIP3    H259354   0.640   3.234  12.422  0.3855  0.1542 -0.1756
12647TIP3   OH259355   4.716   2.991  13.999  0.3347 -0.0614 -0.5872
12647TIP3    H159356   4.657   2.917  14.013 -0.2900  0.4809 -0.3627
12647TIP3    H259357   4.804   2.954  14.014 -0.0483 -0.4472  0.8818
12648TIP3   OH259358   0.291   4.591  13.379 -0.4573  0.2813  0.2873
12648TIP3    H159359   0.236   4.584  13.457 -1.1586 -0.9473 -0.2881
12648TIP3    H259360   0.378   4.564  13.409 -0.6872 -0.0364  0.6836
12649TIP3   OH259361   6.340   4.525   0.851 -0.4243  0.1038 -0.3017
12649TIP3    H159362   6.253   4.517   0.889 -0.0912  0.9133  0.6628
12649TIP3    H259363   6.397   4.471   0.905  0.0570  1.2884  0.4314
12650TIP3   OH259364   3.217   4.488  15.115  0.4880  0.5473  0.2502
12650TIP3    H159365   3.215   4.483  15.020  1.3099  2.0256  0.1218
12650TIP3    H259366   3.157   4.559  15.137 -0.5985 -0.5434  0.9396
12651TIP3   OH259367   2.331   3.327  12.106 -0.9901  0.1734 -0.0323
12651TIP3    H159368   2.292   3.265  12.167 -0.6960  0.3501  0.3408
12651TIP3    H259369   2.270   3.401  12.104 -0.7780  0.3660  0.4029
12652TIP3   OH259370   5.856   1.284  13.800 -0.0632 -0.0214  0.3406
12652TIP3    H159371   5.854   1.309  13.893 -0.9481  0.9816  0.0723
12652TIP3    H259372   5.874   1.190  13.801 -2.0265 -0.4506  1.6382
12653TIP3   OH259373   2.541   3.188  15.067  0.2322  0.0949  0.3076
12653TIP3    H159374   2.471   3.170  15.129  2.0030 -1.8647  1.9111
12653TIP3    H259375   2.507   3.159  14.982 -0.4021 -2.3191  1.3018
12654TIP3   OH259376   5.840   6.442  14.225  0.4260  0.3062  0.3920
12654TIP3    H159377   5.888   6.524  14.215 -1.3282  1.3757  0.3333
12654TIP3    H259378   5.904   6.374  14.202  1.3383  1.7504 -1.6697
12655TIP3   OH259379   4.655   2.347  15.939  0.0546  0.8014  0.0860
12655TIP3    H159380   4.574   2.298  15.955 -0.2832  0.7887 -1.5165
12655TIP3    H259381   4.703   2.341  16.021 -0.5212 -1.2066  0.3334
12656TIP3   OH259382   4.427   4.839  13.319  0.7094 -0.3900  0.6248
12656TIP3    H159383   4.521   4.825  13.331  0.5452  0.3905  3.7001
12656TIP3    H259384   4.389   4.751  13.320  1.2130 -0.6120  1.9623
12657TIP3   OH259385   3.892   3.045   4.253  0.4596 -0.3920 -0.3234
12657TIP3    H159386   3.800   3.046   4.227  1.0696  0.7884 -2.7406
12657TIP3    H259387   3.894   3.093   4.336 -1.2348 -1.5432  0.4192
12658TIP3   OH259388   3.931   4.883  15.673 -0.0068  0.0448  0.0585
12658TIP3    H159389   3.860   4.825  15.700 -0.4234  1.1510  1.4377
12658TIP3    H259390   3.968   4.916  15.755  1.1779  0.5978 -0.6684
12659TIP3   OH259391   6.615   5.381   3.822  0.6273 -0.1772 -0.1658
12659TIP3    H159392   6.520   5.390   3.817  0.3644 -1.6650  1.1772
12659TIP3    H259393   6.630   5.286   3.825  2.2177 -0.0025 -1.0793
12660TIP3   OH259394   0.656   2.694  14.534  0.3637 -0.6940  0.1179
12660TIP3    H159395   0.563   2.673  14.533 -0.5010  2.5066  0.0588
12660TIP3    H259396   0.670   2.737  14.618  1.4077  0.1850 -0.4707
12661TIP3   OH259397   2.117   2.576  11.670  0.0623  0.2963 -0.0158
12661TIP3    H159398   2.033   2.620  11.681 -0.3559 -0.3008 -0.7363
12661TIP3    H259399   2.124   2.518  11.745 -0.6296 -0.3579 -0.4377
12662TIP3   OH259400   6.732   1.823   6.090  0.5959 -0.2838 -0.4667
12662TIP3    H159401   6.672   1.766   6.138  0.6294  0.0138 -0.0654
12662TIP3    H259402   6.727   1.907   6.136  0.5511  0.0357 -1.0484
12663TIP3   OH259403   3.107   0.701  14.224 -0.7433 -0.0974  0.1313
12663TIP3    H159404   3.135   0.757  14.151  1.6753 -0.3553  0.7465
12663TIP3    H259405   3.069   0.762  14.287 -2.1235  0.2292 -0.9542
12664TIP3   OH259406   5.786   1.962  16.775  0.0065  0.0788 -0.0503
12664TIP3    H159407   5.759   2.037  16.722 -0.7293 -0.8182 -0.9806
12664TIP3    H259408   5.804   1.893  16.712 -0.3398 -0.8419  0.8390
12665TIP3   OH259409   6.544   2.680   2.660 -0.7273  0.1456 -0.4771
12665TIP3    H159410   6.567   2.616   2.728  0.9163  0.9655 -0.1915
12665TIP3    H259411   6.455   2.708   2.682 -0.0975  0.7051  1.6564
12666TIP3   OH259412   3.948   4.280  12.079 -0.0373  0.1884 -0.1143
12666TIP3    H159413   3.938   4.188  12.056 -0.3282 -0.1302  1.2185
12666TIP3    H259414   4.029   4.283  12.131 -0.5382  0.5095  0.6701
12667TIP3   OH259415   1.813   4.050   4.415 -0.1705  0.5906 -1.3101
12667TIP3    H159416   1.766   4.067   4.334  1.5957 -1.4058 -2.8397
12667TIP3    H259417   1.884   3.991   4.391  1.7705  1.6278  1.2911
12668TIP3   OH259418   2.839   4.158  15.722  0.2614  0.1117  0.1556
12668TIP3    H159419   2.811   4.079  15.676  1.5215 -0.0520 -0.3746
12668TIP3    H259420   2.845   4.224  15.654 -0.3795  0.5725  0.5324
12669TIP3   OH259421   1.024   1.552  13.703  0.5136  0.2855 -0.1562
12669TIP3    H159422   1.003   1.602  13.782 -5.4770 -1.4945 -0.1455
12669TIP3    H259423   1.070   1.475  13.734  0.0151  0.5649  1.3576
12670TIP3   OH259424   2.526   3.066  15.398  0.2839  0.2176  0.0477
12670TIP3    H159425   2.501   3.060  15.490 -0.1100  0.3101 -0.0490
12670TIP3    H259426   2.607   3.116  15.397  0.7197 -0.4708  0.4121
12671TIP3   OH259427   6.090   5.957   2.447 -0.0292  0.1947  0.1740
12671TIP3    H159428   6.108   5.869   2.479 -2.5218  0.3556  2.3626
12671TIP3    H259429   6.017   5.946   2.387  0.5993  0.6431 -0.6922
12672TIP3   OH259430   5.419   0.087  16.992 -0.3106 -0.3289  0.4513
12672TIP3    H159431   5.439   0.157  16.931 -0.1168 -1.1473 -0.4544
12672TIP3    H259432   5.337   0.049  16.959 -0.3922 -0.5552  0.8991
12673TIP3   OH259433   1.341   3.127   2.980 -0.1027  0.0018  0.7374
12673TIP3    H159434   1.368   3.113   2.890 -0.0128 -0.2454  0.8008
12673TIP3    H259435   1.327   3.221   2.987 -2.2955 -0.1901 -0.1651
12674TIP3   OH259436   2.231   5.647   2.765 -0.0035  0.0407 -0.0598
12674TIP3    H159437   2.232   5.675   2.857 -1.8963 -4.8628  1.7964
12674TIP3    H259438   2.140   5.621   2.749  1.1273 -3.3129 -1.7738
12675TIP3   OH259439   4.109   4.214  16.705  0.7274  0.2237 -0.0110
12675TIP3    H159440   4.196   4.201  16.667  1.5816 -1.2300  2.1903
12675TIP3    H259441   4.120   4.286  16.766  0.2457  0.3808 -0.1065
12676TIP3   OH259442   1.707   2.573   0.442 -0.7407 -0.1711 -0.0096
12676TIP3    H159443   1.751   2.496   0.478  0.7120 -0.5169 -2.3298
12676TIP3    H259444   1.674   2.620   0.519  1.9920 -0.9236  1.7744
12677TIP3   OH259445   2.094   5.710  14.903  0.5087  0.3312  0.5380
12677TIP3    H159446   2.171   5.714  14.847  0.5181  0.6447  0.5750
12677TIP3    H259447   2.031   5.771  14.864 -0.4970 -1.3784 -0.6575
12678TIP3   OH259448   6.013   1.466   0.714 -0.2724  0.0179 -0.3062
12678TIP3    H159449   6.011   1.503   0.625  0.0214  0.1271 -0.2682
12678TIP3    H259450   6.020   1.372   0.701  0.0544  0.0547 -0.3980
12679TIP3   OH259451   4.838   0.539   4.019  0.4552 -0.9042 -0.2353
12679TIP3    H159452   4.857   0.482   4.093 -2.0818  0.9332  2.0432
12679TIP3    H259453   4.918   0.591   4.007  0.3753  0.0176  2.5407
12680TIP3   OH259454   4.974   6.456  13.529  0.1229  0.0576  0.1260
12680TIP3    H159455   4.946   6.382  13.582  1.7770 -0.6832  0.0235
12680TIP3    H259456   5.062   6.476  13.560  0.1600  1.2192 -0.6590
12681TIP3   OH259457   4.322   3.644   3.816  0.1171  0.1736 -0.1961
12681TIP3    H159458   4.314   3.739   3.817  0.7461  0.2638 -1.3298
12681TIP3    H259459   4.402   3.627   3.765  0.3881 -0.9430  0.5533
12682TIP3   OH259460   5.885   4.411   6.193  0.1521  0.3807 -0.3149
12682TIP3    H159461   5.844   4.491   6.160  0.5033  0.1126 -1.4226
12682TIP3    H259462   5.928   4.438   6.275  0.4988  1.3936 -0.8166
12683TIP3   OH259463   0.357   6.424  13.886  0.5332  0.3226  0.4586
12683TIP3    H159464   0.444   6.464  13.881 -0.0207  1.4706 -0.8784
12683TIP3    H259465   0.363   6.345  13.833  0.8639  0.2050  0.6749
12684TIP3   OH259466   5.549   0.693  16.852 -0.4061  0.1616  0.0804
12684TIP3    H159467   5.619   0.631  16.834 -1.6419 -2.2479  2.9314
12684TIP3    H259468   5.589   0.761  16.905 -0.1326 -1.1088  1.5391
12685TIP3   OH259469   0.503   3.330   5.255  0.4868 -0.3442  0.1171
12685TIP3    H159470   0.586   3.337   5.208  1.3803 -0.3838  1.6205
12685TIP3    H259471   0.524   3.358   5.344 -1.2968  0.3463  0.3441
12686TIP3   OH259472   3.274   5.339   4.789 -0.2888  0.7679  0.2441
12686TIP3    H159473   3.195   5.385   4.761  0.4886  1.7063 -0.4642
12686TIP3    H259474   3.305   5.294   4.710 -0.3798 -0.0055  0.6400
12687TIP3   OH259475   3.296   1.192  12.593 -0.2391  0.0783  0.7103
12687TIP3    H159476   3.328   1.124  12.652 -0.9081 -1.7594 -0.9098
12687TIP3    H259477   3.264   1.143  12.516 -0.6293  2.2495 -0.5859
12688TIP3   OH259478   2.667   2.866   2.854 -0.1645  0.5930  0.4925
12688TIP3    H159479   2.602   2.920   2.808 -0.9616  0.5403  1.5013
12688TIP3    H259480   2.669   2.902   2.943 -1.1763 -1.3812  1.3831
12689TIP3   OH259481   0.716   4.335   6.868  0.2815 -0.3177  0.2541
12689TIP3    H159482   0.700   4.325   6.774  1.8725  1.4721 -0.2884
12689TIP3    H259483   0.792   4.280   6.885  1.8850  1.6330 -0.2340
12690TIP3   OH259484   4.504   3.192  14.016 -0.0031  0.3980  0.1113
12690TIP3    H159485   4.595   3.166  14.003  0.2032  1.3407 -0.4059
12690TIP3    H259486   4.509   3.265  14.079 -0.4178  0.3252  0.2328
12691TIP3   OH259487   2.178   5.081  13.380 -0.3173  0.2481 -0.3060
12691TIP3    H159488   2.240   5.112  13.314  0.7216 -0.7835  0.1453
12691TIP3    H259489   2.110   5.148  13.383 -0.5675  0.1568 -2.6540
12692TIP3   OH259490   2.245   3.507   1.873 -0.3602 -0.2537 -0.7057
12692TIP3    H159491   2.243   3.465   1.787 -0.5469  0.9445 -1.3051
12692TIP3    H259492   2.231   3.435   1.935  2.0063 -1.5294 -1.5135
12693TIP3   OH259493   3.025   1.890   5.498 -0.0674 -0.3929  0.3224
12693TIP3    H159494   2.971   1.836   5.440  0.5270 -0.6005 -0.0476
12693TIP3    H259495   3.104   1.910   5.447  0.6739 -0.9571  1.2003
12694TIP3   OH259496   1.833   1.256   3.726  0.0342  0.9672 -0.5642
12694TIP3    H159497   1.911   1.247   3.781 -1.3210  0.9016  1.4354
12694TIP3    H259498   1.782   1.326   3.767 -2.3848 -1.0178  0.0555
12695TIP3   OH259499   5.367   4.441  12.208 -0.3319  0.4319  0.2409
12695TIP3    H159500   5.274   4.451  12.229 -0.8826 -1.0336 -1.2982
12695TIP3    H259501   5.412   4.458  12.291 -2.0944 -0.9319  1.5594
12696TIP3   OH259502   2.141   6.055   0.450 -0.0227 -0.3626  0.3143
12696TIP3    H159503   2.199   5.983   0.426  0.9292  0.5147 -0.0717
12696TIP3    H259504   2.172   6.130   0.398 -1.5047  0.1355  0.0789
12697TIP3   OH259505   6.596   6.118   2.358  0.2667 -0.3311  0.1419
12697TIP3    H159506   6.519   6.129   2.303  0.0189 -1.5005  0.2423
12697TIP3    H259507   6.665   6.092   2.297  0.9154  1.7905 -0.1302
12698TIP3   OH259508   3.318   0.235  17.102 -0.6530 -0.3343 -0.1727
12698TIP3    H159509   3.332   0.311  17.160  0.2369 -0.6221  0.0144
12698TIP3    H259510   3.251   0.183  17.146  0.4002 -0.8267  0.9163
12699TIP3   OH259511   3.866   0.806  11.809  0.1306  0.1258  0.0647
12699TIP3    H159512   3.943   0.801  11.866 -0.0769 -0.6794  0.2903
12699TIP3    H259513   3.847   0.715  11.786 -0.5784  0.3384 -0.2354
12700TIP3   OH259514   1.804   5.307  10.884 -0.1546 -0.3032 -0.4312
12700TIP3    H159515   1.711   5.324  10.901  0.6119  2.2579  2.1484
12700TIP3    H259516   1.824   5.229  10.936 -1.0215 -1.5142 -1.8445
12701TIP3   OH259517   6.141   4.695   0.302 -0.0436  0.7556 -0.3972
12701TIP3    H159518   6.197   4.712   0.378 -0.5237 -0.0173  0.1417
12701TIP3    H259519   6.053   4.693   0.338 -0.2861  0.4785 -1.0007
12702TIP3   OH259520   3.698   5.705   6.050 -0.1361  0.5188 -0.0271
12702TIP3    H159521   3.740   5.698   5.964 -0.1954 -0.9121  0.0443
12702TIP3    H259522   3.765   5.745   6.105  0.4891 -0.0637 -0.3500
12703TIP3   OH259523   6.338   4.599  15.099 -0.2975  0.0104 -0.2988
12703TIP3    H159524   6.282   4.530  15.062 -1.0146 -0.1152  0.9470
12703TIP3    H259525   6.285   4.636  15.170  1.6133 -0.9177  1.7240
12704TIP3   OH259526   1.251   5.621   1.659  0.5336 -0.2715 -0.4943
12704TIP3    H159527   1.343   5.641   1.646  1.6971 -2.6907  2.6877
12704TIP3    H259528   1.224   5.576   1.579  1.7218  1.3513 -1.8859
12705TIP3   OH259529   3.078   3.711  12.730  0.0920 -0.2066  0.6169
12705TIP3    H159530   3.044   3.781  12.674 -0.9749 -2.1180 -1.2939
12705TIP3    H259531   3.164   3.742  12.758  0.7013  0.8920 -2.1277
12706TIP3   OH259532   3.874   3.046   5.512 -0.2747 -0.1671  0.0686
12706TIP3    H159533   3.810   3.111   5.541  0.6351  0.0275  1.7647
12706TIP3    H259534   3.828   2.996   5.444 -2.3593 -0.2766  1.4702
12707TIP3   OH259535   1.288   5.126   3.987  0.0567 -0.4573 -0.2985
12707TIP3    H159536   1.381   5.127   4.013  0.3681  1.7372 -1.2974
12707TIP3    H259537   1.244   5.175   4.056  0.0191  0.4586 -0.9516
12708TIP3   OH259538   1.080   2.507  14.464 -0.0418  0.0564  0.5227
12708TIP3    H159539   1.010   2.572  14.460  0.4127  0.5009 -0.2270
12708TIP3    H259540   1.120   2.508  14.377  2.8445  1.9731  1.7342
12709TIP3   OH259541   5.110   2.904   3.705  0.5760 -0.0353  0.2154
12709TIP3    H159542   5.018   2.910   3.731  0.5911  1.5316 -0.0112
12709TIP3    H259543   5.158   2.896   3.787  0.2973  0.1548  0.3997
12710TIP3   OH259544   4.419   4.267  12.910 -0.4967 -0.3514 -0.1828
12710TIP3    H159545   4.343   4.215  12.935 -0.7169 -0.2739 -0.6810
12710TIP3    H259546   4.384   4.335  12.852 -0.0651 -0.2408 -0.3202
12711TIP3   OH259547   5.304   0.174  14.290  0.0657 -0.3851  0.5559
12711TIP3    H159548   5.285   0.212  14.205  2.1083  0.1383  0.2780
12711TIP3    H259549   5.320   0.081  14.272 -1.1725 -0.6403  0.6635
12712TIP3   OH259550   1.502   2.147   3.171 -0.8522  0.2623 -0.3393
12712TIP3    H159551   1.502   2.109   3.083 -1.8668 -0.2484 -0.1234
12712TIP3    H259552   1.542   2.233   3.159 -2.2154  0.7613 -1.5500
12713TIP3   OH259553   2.569   0.770  13.410 -0.3136  0.0804 -0.3532
12713TIP3    H159554   2.612   0.685  13.422  1.9049  1.0878 -0.8252
12713TIP3    H259555   2.483   0.748  13.373  1.1801 -1.8718 -3.0087
12714TIP3   OH259556   6.703   2.796   2.958  0.1750  0.1447  0.2361
12714TIP3    H159557   6.792   2.820   2.931 -0.2020 -0.1340 -1.2888
12714TIP3    H259558   6.715   2.718   3.012  0.8071 -0.2858 -0.5102
12715TIP3   OH259559   0.579   3.222   4.401 -0.0615 -0.2020 -0.2429
12715TIP3    H159560   0.504   3.177   4.441  0.0377  0.5954  0.9160
12715TIP3    H259561   0.580   3.192   4.311 -2.0596  0.1056 -0.4145
12716TIP3   OH259562   3.478   5.369   3.515 -0.0147  0.1483  0.4044
12716TIP3    H159563   3.441   5.401   3.597 -0.8855 -1.6996  0.7835
12716TIP3    H259564   3.557   5.421   3.502 -0.1958  0.8904  2.0893
12717TIP3   OH259565   6.637   4.428   5.574  0.1091  0.1856 -0.0941
12717TIP3    H159566   6.709   4.387   5.526  1.5644  1.0953  1.2267
12717TIP3    H259567   6.605   4.359   5.633  2.4388  0.7585  2.0077
12718TIP3   OH259568   3.718   4.767  16.403 -0.2219 -0.7441 -0.0068
12718TIP3    H159569   3.705   4.822  16.325  1.2611 -0.0922  0.1757
12718TIP3    H259570   3.772   4.821  16.461 -2.6059 -0.5494  2.2041
12719TIP3   OH259571   1.141   4.091   3.742  0.2782 -0.1556 -0.2038
12719TIP3    H159572   1.112   4.173   3.781  0.1041 -0.5389  0.4827
12719TIP3    H259573   1.228   4.076   3.777 -0.8248 -1.7880  2.1514
12720TIP3   OH259574   2.832   2.005   4.374  0.9127 -0.4308  0.5265
12720TIP3    H159575   2.866   2.068   4.438  1.6712  0.4228 -0.6759
12720TIP3    H259576   2.785   2.058   4.310 -1.4376 -1.4429  1.3083
12721TIP3   OH259577   5.574   2.334  12.315  0.0916  0.6008 -0.5464
12721TIP3    H159578   5.520   2.267  12.358  1.0175  0.1388 -0.0650
12721TIP3    H259579   5.513   2.384  12.262 -0.6276 -0.6936 -0.9920
12722TIP3   OH259580   4.718   2.011   1.845  0.1321  0.2337  0.1725
12722TIP3    H159581   4.626   2.033   1.855  0.0670 -0.1895  0.5253
12722TIP3    H259582   4.740   1.963   1.926  0.7770  0.7432  0.3044
12723TIP3   OH259583   5.513   4.332  15.060 -0.0738  0.1115 -0.0457
12723TIP3    H159584   5.538   4.314  15.150 -1.4313 -1.4388  0.0560
12723TIP3    H259585   5.419   4.347  15.063 -0.4518 -1.5974 -1.3831
12724TIP3   OH259586   2.987   4.186  15.070 -0.6594 -0.1098  0.1479
12724TIP3    H159587   2.979   4.095  15.041  0.8755 -0.1323 -0.3235
12724TIP3    H259588   2.905   4.227  15.045 -1.7669 -1.5625  1.1974
12725TIP3   OH259589   3.681   0.705   3.020  0.1731 -0.0710  0.4082
12725TIP3    H159590   3.623   0.733   2.949  1.8684  0.3160 -0.8921
12725TIP3    H259591   3.630   0.719   3.100 -0.5694  2.8667 -0.4650
12726TIP3   OH259592   6.336   3.272  12.694 -0.4258  0.1801  0.0118
12726TIP3    H159593   6.385   3.344  12.656  0.9456 -0.7029  0.0626
12726TIP3    H259594   6.317   3.214  12.621 -2.9787  1.3018 -0.3571
12727TIP3   OH259595   6.332   3.897   1.468 -0.5080 -0.4788 -0.5036
12727TIP3    H159596   6.348   3.803   1.476 -0.7834 -0.3854  1.7890
12727TIP3    H259597   6.277   3.906   1.390  0.5882 -2.0532 -1.4999
12728TIP3   OH259598   5.358   0.051   5.049  0.5230  0.4660  0.1993
12728TIP3    H159599   5.344   0.098   5.131  3.3581 -1.5170  2.0191
12728TIP3    H259600   5.286  -0.013   5.046  0.4834  0.4445  1.2441
12729TIP3   OH259601   0.168   3.770  11.819  0.5855  0.0416 -0.1441
12729TIP3    H159602   0.254   3.796  11.787  1.3900 -0.9528  1.1338
12729TIP3    H259603   0.145   3.693  11.767  0.7027 -0.0155 -0.1098
12730TIP3   OH259604   6.642   3.630   2.884 -0.2521 -1.0446 -0.4666
12730TIP3    H159605   6.607   3.705   2.932  1.4610 -1.0236  0.8569
12730TIP3    H259606   6.624   3.649   2.792 -0.8819  0.4325 -0.0615
12731TIP3   OH259607   5.320   4.416   4.819  0.1339 -0.3704 -0.1692
12731TIP3    H159608   5.307   4.425   4.913  0.1782 -0.0680 -0.1914
12731TIP3    H259609   5.262   4.344   4.793  0.1206 -0.4523  0.0870
12732TIP3   OH259610   2.238   1.343  16.152  0.6340  0.0922 -0.2098
12732TIP3    H159611   2.251   1.249  16.167  0.2568  0.0295 -0.2768
12732TIP3    H259612   2.282   1.360  16.069  2.3822  0.3602  0.7026
12733TIP3   OH259613   4.817   3.404   5.337  0.0152 -0.0600  0.0183
12733TIP3    H159614   4.869   3.480   5.364 -0.3245  0.2076 -0.0630
12733TIP3    H259615   4.733   3.417   5.380  0.4157 -1.1611  1.1989
12734TIP3   OH259616   3.793   5.061  12.093  0.1606 -0.1750 -0.7724
12734TIP3    H159617   3.715   5.007  12.104  0.7094 -0.6454  1.1295
12734TIP3    H259618   3.766   5.148  12.121 -0.0219 -0.0360 -1.3668
12735TIP3   OH259619   4.686   4.229  15.830 -0.3235  0.2147 -0.0246
12735TIP3    H159620   4.745   4.262  15.762 -1.1749  1.4273 -0.2122
12735TIP3    H259621   4.721   4.143  15.852  1.2283  0.6960 -0.4628
12736TIP3   OH259622   5.336   1.280  11.737  0.1567 -0.1339 -0.1272
12736TIP3    H159623   5.369   1.287  11.827  1.3308  1.9145 -0.6546
12736TIP3    H259624   5.253   1.328  11.739 -0.1355 -0.6438  0.0039
12737TIP3   OH259625   0.562   0.460   4.903 -0.1948  0.6718 -0.5316
12737TIP3    H159626   0.534   0.411   4.980  2.0584 -0.4048 -0.3070
12737TIP3    H259627   0.564   0.551   4.932  0.1380  0.3359  0.5401
12738TIP3   OH259628   3.666   5.701  14.866  0.0575 -0.3965  0.4199
12738TIP3    H159629   3.671   5.665  14.954 -0.1408 -0.1500  0.5319
12738TIP3    H259630   3.643   5.793  14.879 -1.2935 -0.6685  0.0608
12739TIP3   OH259631   3.810   2.177  14.594  0.2433  0.4960 -0.1441
12739TIP3    H159632   3.831   2.095  14.550  1.6498 -0.4791  2.1720
12739TIP3    H259633   3.797   2.240  14.522  2.1915 -1.0105 -1.9423
12740TIP3   OH259634   3.220   0.987   0.118 -0.2801 -0.2110  0.0133
12740TIP3    H159635   3.224   0.992   0.023  1.1887 -0.1237  0.0632
12740TIP3    H259636   3.145   0.930   0.135 -0.9914  0.3341 -1.1623
12741TIP3   OH259637   0.429   3.139   0.615  0.6802  0.2428 -0.0922
12741TIP3    H159638   0.458   3.071   0.675 -1.4853 -0.9126 -0.2640
12741TIP3    H259639   0.345   3.169   0.650  0.1268  0.6419 -1.6693
12742TIP3   OH259640   2.617   5.554   3.673  0.2312  0.3463  0.1315
12742TIP3    H159641   2.538   5.597   3.706 -0.4778 -0.7254 -0.1280
12742TIP3    H259642   2.598   5.460   3.681  0.8279  0.0692 -1.4451
12743TIP3   OH259643   2.314   2.457  13.283  0.2673 -0.3644  0.0699
12743TIP3    H159644   2.375   2.510  13.334  0.4053  0.7346 -1.2003
12743TIP3    H259645   2.238   2.514  13.270  1.1630  0.2772 -2.8904
12744TIP3   OH259646   0.531   2.899  12.850 -0.3337  0.1189  0.1500
12744TIP3    H159647   0.532   2.963  12.779 -0.0027  0.1590  0.1865
12744TIP3    H259648   0.477   2.827  12.818  0.1654 -0.0547 -0.3143
12745TIP3   OH259649   0.444   5.639   2.795 -0.0181 -0.9408  0.7754
12745TIP3    H159650   0.496   5.693   2.854  0.4024 -0.7999  0.2822
12745TIP3    H259651   0.431   5.557   2.843 -2.5383  0.3315  2.4585
12746TIP3   OH259652   1.330   6.579  16.884  0.7137  0.2657 -0.0384
12746TIP3    H159653   1.253   6.597  16.939  0.6920 -1.0491  0.3936
12746TIP3    H259654   1.404   6.579  16.945  1.0220  1.1645 -0.3970
12747TIP3   OH259655   2.759   1.931   2.986  0.4188  0.3909 -0.0098
12747TIP3    H159656   2.713   1.962   2.908  2.1003  0.1100 -1.1459
12747TIP3    H259657   2.746   2.000   3.051 -2.3698 -0.0803  0.0553
12748TIP3   OH259658   0.763   1.992  11.691 -0.3329  0.0809 -0.0218
12748TIP3    H159659   0.821   2.067  11.701  1.1743 -1.1335  0.8479
12748TIP3    H259660   0.736   1.971  11.781  0.8514 -1.5677 -0.0039
12749TIP3   OH259661   5.435   2.583  12.527 -0.0903  0.4322  0.4085
12749TIP3    H159662   5.482   2.504  12.553  0.9556  0.7734 -0.4044
12749TIP3    H259663   5.499   2.634  12.478 -1.7365  0.1492 -2.2238
12750TIP3   OH259664   0.571   1.789  11.431  0.0630 -0.0895 -0.2186
12750TIP3    H159665   0.569   1.882  11.453  0.2418 -0.3169  0.8472
12750TIP3    H259666   0.550   1.785  11.338 -0.2964  0.9879 -0.1938
12751TIP3   OH259667   5.901   3.228   2.461 -0.6546  0.6561 -0.0701
12751TIP3    H159668   5.825   3.254   2.513 -2.1206 -2.4691 -0.4290
12751TIP3    H259669   5.864   3.197   2.379  1.0762 -0.3580 -0.5156
12752TIP3   OH259670   0.910   2.855   0.617 -0.1462 -0.3478  0.0722
12752TIP3    H159671   0.861   2.778   0.644 -0.2259 -0.3586 -0.0995
12752TIP3    H259672   0.999   2.841   0.650 -0.7201  0.6269  2.2593
12753TIP3   OH259673   3.583   1.783   1.093 -0.2046  0.0713  0.0778
12753TIP3    H159674   3.668   1.824   1.112  0.9227 -2.0337 -0.1730
12753TIP3    H259675   3.563   1.811   1.004  0.6520 -0.0880 -0.1776
12754TIP3   OH259676   2.560   5.309   1.332  0.2692 -0.6333 -0.8293
12754TIP3    H159677   2.560   5.276   1.422 -0.1592  0.0027 -0.5905
12754TIP3    H259678   2.470   5.337   1.316  0.7525  1.1365 -0.7288
12755TIP3   OH259679   1.099   1.240  13.789  0.6886  0.0472  0.6712
12755TIP3    H159680   1.103   1.148  13.814 -0.8819 -0.3849 -0.5256
12755TIP3    H259681   1.176   1.254  13.734  0.7999 -0.6201  0.6475
12756TIP3   OH259682   5.876   4.741  11.959 -0.2475 -0.0476  0.3654
12756TIP3    H159683   5.941   4.671  11.964  0.7265  0.7714 -0.4405
12756TIP3    H259684   5.922   4.815  11.920 -1.0081  1.3411  1.9252
12757TIP3   OH259685   1.454   3.787   5.029  0.1007  0.1390 -0.6863
12757TIP3    H159686   1.359   3.798   5.021  0.1429  1.1084 -0.0645
12757TIP3    H259687   1.468   3.693   5.023 -1.2040 -0.3146  2.0503
12758TIP3   OH259688   1.736   0.572   6.388  0.5150 -0.0751 -0.0440
12758TIP3    H159689   1.712   0.644   6.329 -1.6299 -1.1995 -0.6295
12758TIP3    H259690   1.685   0.587   6.467 -0.0681 -0.9819 -0.2243
12759TIP3   OH259691   5.386   0.771  14.875 -0.4261 -0.8488 -0.4058
12759TIP3    H159692   5.470   0.736  14.907 -1.4790 -3.0509  0.1034
12759TIP3    H259693   5.409   0.856  14.837  2.2818 -2.0083 -1.6167
12760TIP3   OH259694   5.572   3.901  13.426  0.5190  0.5024 -0.0309
12760TIP3    H159695   5.556   3.811  13.398 -2.1603  0.7634  0.4102
12760TIP3    H259696   5.647   3.930  13.373  0.4559 -1.4613 -1.2884
12761TIP3   OH259697   4.957   2.905   0.565  0.0333  0.0123  0.2162
12761TIP3    H159698   4.960   2.960   0.487  0.6844  1.0843  0.9746
12761TIP3    H259699   4.919   2.822   0.535 -1.0667  0.8950 -0.9328
12762TIP3   OH259700   0.497   4.012   4.316  0.2680 -0.2012 -0.6598
12762TIP3    H159701   0.408   4.045   4.323  0.5540  0.4905 -0.2215
12762TIP3    H259702   0.506   3.951   4.389 -0.2226 -1.2023 -1.4041
12763TIP3   OH259703   4.806   2.494   4.813 -0.1422  0.2398 -0.1125
12763TIP3    H159704   4.860   2.495   4.892  0.0102 -0.3410 -0.2105
12763TIP3    H259705   4.803   2.403   4.786 -0.4357  0.3920 -0.6177
12764TIP3   OH259706   1.540   1.005  16.387 -0.0434  0.8625 -0.5808
12764TIP3    H159707   1.492   0.934  16.344 -1.0627  1.1613  0.0274
12764TIP3    H259708   1.596   0.960  16.451  0.0069  0.5507 -0.8419
12765TIP3   OH259709   2.861   2.562   0.359 -0.0292  0.3637  0.2920
12765TIP3    H159710   2.776   2.566   0.315  0.0091 -0.3441  0.1506
12765TIP3    H259711   2.901   2.648   0.341 -0.5405  0.5486  0.0187
12766TIP3   OH259712   4.196   3.288   0.761  0.1324 -0.3024  0.0891
12766TIP3    H159713   4.173   3.223   0.695 -1.2495 -0.6554  0.8713
12766TIP3    H259714   4.158   3.254   0.842  0.3923  0.9118  0.7473
12767TIP3   OH259715   2.898   4.354   1.972 -0.5510 -0.0434  0.3012
12767TIP3    H159716   2.955   4.325   1.901  0.0570  0.9531  0.3576
12767TIP3    H259717   2.826   4.291   1.972  1.4385 -2.5564  1.4454
12768TIP3   OH259718   5.088   6.441   4.764 -0.2272  0.5710  0.1837
12768TIP3    H159719   5.106   6.518   4.709  0.8210  1.4306  1.6649
12768TIP3    H259720   5.153   6.376   4.735  1.3645  1.5543  1.3677
12769TIP3   OH259721   2.468   3.491   6.014  0.1010  0.2575  0.0173
12769TIP3    H159722   2.457   3.578   6.051 -2.3791  0.6232 -1.3632
12769TIP3    H259723   2.398   3.439   6.053  0.4228 -0.6246 -0.5508
12770TIP3   OH259724   2.503   5.642   4.964 -0.3746 -0.2867 -0.4951
12770TIP3    H159725   2.445   5.583   5.012 -0.6786  0.1415 -0.3311
12770TIP3    H259726   2.461   5.652   4.878 -0.3472 -0.2768 -0.5073
12771TIP3   OH259727   6.176   5.066  11.517 -0.4100  0.4035  0.0765
12771TIP3    H159728   6.169   4.973  11.497  1.4433 -0.4807  2.9896
12771TIP3    H259729   6.243   5.099  11.457 -0.1443 -0.4460 -0.1071
12772TIP3   OH259730   2.617   1.361   0.448 -0.3624 -0.1092 -0.0867
12772TIP3    H159731   2.555   1.366   0.375 -2.4692  0.6460  1.6581
12772TIP3    H259732   2.602   1.274   0.485  0.2743 -0.2585 -0.1687
12773TIP3   OH259733   2.097   2.660   2.450 -0.2416 -0.0486  0.6565
12773TIP3    H159734   2.093   2.564   2.455  0.4661 -0.1611 -0.4302
12773TIP3    H259735   2.191   2.679   2.442 -0.4853  0.5669 -1.4349
12774TIP3   OH259736   6.326   2.336   3.981 -0.1992 -0.5397 -0.4358
12774TIP3    H159737   6.391   2.268   3.998 -0.3680 -0.7308 -0.5436
12774TIP3    H259738   6.279   2.305   3.903  0.4808  0.2624 -1.1746
12775TIP3   OH259739   6.483   3.717  16.154 -0.4038 -0.5689  1.0185
12775TIP3    H159740   6.566   3.756  16.124 -1.8745  1.6084 -0.5159
12775TIP3    H259741   6.510   3.651  16.218  2.6090 -1.2769 -0.7727
12776TIP3   OH259742   1.896   2.988   3.005 -0.4241  0.5925  0.4456
12776TIP3    H159743   1.918   2.956   3.093  0.3673  1.6267  0.6419
12776TIP3    H259744   1.818   3.042   3.018 -1.8203 -1.2259  0.0990
12777TIP3   OH259745   5.147   5.084   3.064 -0.3427  0.0935 -0.2309
12777TIP3    H159746   5.075   5.028   3.035 -0.2349  1.1065 -2.7571
12777TIP3    H259747   5.103   5.159   3.105 -0.6810 -0.0253 -0.3705
12778TIP3   OH259748   5.067   5.565  12.598 -0.3064  0.7941  0.3858
12778TIP3    H159749   5.007   5.502  12.636  0.2725  0.6834  1.1227
12778TIP3    H259750   5.154   5.527  12.609 -0.1463  0.4080 -1.7013
12779TIP3   OH259751   1.264   2.194   0.615  0.0597  0.0080  0.4375
12779TIP3    H159752   1.345   2.210   0.663 -1.0952  0.5887  2.2674
12779TIP3    H259753   1.227   2.115   0.654 -0.2175 -0.3120 -0.4451
12780TIP3   OH259754   5.546   2.154   3.252 -0.3414  0.2747  0.0932
12780TIP3    H159755   5.569   2.132   3.162 -0.2431  3.4821 -0.7810
12780TIP3    H259756   5.481   2.088   3.277 -1.8628  0.4152 -3.0514
12781TIP3   OH259757   4.464   4.483   5.851  0.1806  0.0477 -0.0451
12781TIP3    H159758   4.478   4.404   5.798 -0.0539 -0.9659  1.3422
12781TIP3    H259759   4.400   4.456   5.917  0.3147  1.3333  0.6341
12782TIP3   OH259760   4.490   2.723   0.760  0.2501  0.1210 -0.3286
12782TIP3    H159761   4.441   2.791   0.713  0.2007  0.5157  0.2816
12782TIP3    H259762   4.580   2.754   0.760  0.5875 -0.7711 -1.7523
12783TIP3   OH259763   1.728   3.251  12.997  0.0544  0.3879  0.5696
12783TIP3    H159764   1.670   3.296  13.058 -0.6905  1.2605 -0.7273
12783TIP3    H259765   1.783   3.321  12.961 -0.1731  0.0586 -0.4496
12784TIP3   OH259766   5.222   5.871  16.723  0.2822  0.2651 -0.2844
12784TIP3    H159767   5.201   5.847  16.633  0.5090 -2.2492  0.2299
12784TIP3    H259768   5.141   5.906  16.759  0.3597  1.8601 -1.6095
12785TIP3   OH259769   1.210   2.405  15.144  0.2638  0.4993  0.3194
12785TIP3    H159770   1.184   2.460  15.070  2.2173  1.3005  0.1757
12785TIP3    H259771   1.218   2.466  15.218  0.7981  0.1394  0.5646
12786TIP3   OH259772   1.605   3.670   5.320 -0.6350  0.7427 -0.2608
12786TIP3    H159773   1.625   3.577   5.317  0.8153  0.9339  1.5820
12786TIP3    H259774   1.679   3.713   5.277 -1.7340  1.0420 -1.9374
12787TIP3   OH259775   3.918   2.581  15.002  0.1559  0.0560  0.2764
12787TIP3    H159776   3.999   2.551  14.960 -0.8618 -3.3514  0.4431
12787TIP3    H259777   3.851   2.520  14.971 -2.1411  1.9911  1.1298
12788TIP3   OH259778   5.007   0.708  15.974  0.3263 -0.1541  0.0391
12788TIP3    H159779   5.013   0.727  16.067  3.2004  0.1901 -0.1205
12788TIP3    H259780   4.996   0.614  15.969  0.7993 -0.2535  0.7455
12789TIP3   OH259781   4.475   1.033  13.442 -0.0320  0.4136  0.0554
12789TIP3    H159782   4.436   0.976  13.509 -1.7791 -0.7316 -1.7967
12789TIP3    H259783   4.549   1.075  13.485 -0.7323 -0.7078  2.5041
12790TIP3   OH259784   1.445   3.827   0.113  1.3618  0.1689 -1.2423
12790TIP3    H159785   1.527   3.838   0.063  1.9067 -0.7544 -0.5946
12790TIP3    H259786   1.470   3.772   0.187  0.0677 -0.4301 -1.2263
12791TIP3   OH259787   0.463   4.323  12.113 -0.1732 -0.0231 -0.3914
12791TIP3    H159788   0.383   4.317  12.165  0.7041  0.4148  1.0405
12791TIP3    H259789   0.436   4.295  12.025 -2.0706  0.8696 -0.1420
12792TIP3   OH259790   3.052   3.356  14.372 -0.1538  0.2323  0.0611
12792TIP3    H159791   3.070   3.444  14.338 -0.0951  0.2919  0.2450
12792TIP3    H259792   3.133   3.307  14.356  0.4229  0.6794  1.4646
12793TIP3   OH259793   2.745   4.673  15.857 -0.7384 -0.2411  0.7450
12793TIP3    H159794   2.701   4.593  15.888  0.2113 -1.0332  0.0948
12793TIP3    H259795   2.759   4.725  15.936 -2.3095 -0.2201  1.0493
12794TIP3   OH259796   1.684   4.098   2.294  0.1018  0.1542 -0.0376
12794TIP3    H159797   1.663   4.032   2.360  1.1360  0.2031  0.3525
12794TIP3    H259798   1.757   4.147   2.331 -0.8654  1.7562 -0.1710
12795TIP3   OH259799   4.028   5.865   6.016 -0.7547  0.3848 -0.9214
12795TIP3    H159800   3.978   5.813   6.078 -0.1940 -1.0745 -1.6389
12795TIP3    H259801   4.101   5.900   6.067 -0.6619 -0.2592 -0.6023
12796TIP3   OH259802   4.947   2.030  16.892 -0.3072 -0.3887  0.5046
12796TIP3    H159803   4.961   1.958  16.831 -0.8616 -0.6037  0.6244
12796TIP3    H259804   4.983   1.998  16.975 -0.9504 -0.7133  0.6692
12797TIP3   OH259805   2.235   5.481  14.495 -0.1191 -0.0852 -0.0815
12797TIP3    H159806   2.255   5.408  14.437  0.2728 -0.4817  0.5397
12797TIP3    H259807   2.277   5.458  14.578 -1.1101  0.2192  0.5248
12798TIP3   OH259808   1.784   5.407  13.811 -0.3149  0.3411 -0.4027
12798TIP3    H159809   1.800   5.495  13.776  0.9830  0.1852 -0.2516
12798TIP3    H259810   1.871   5.367  13.817 -1.0090 -1.6428 -2.2055
12799TIP3   OH259811   3.570   5.162  13.871 -0.1840 -0.0533 -0.3543
12799TIP3    H159812   3.613   5.170  13.786 -0.8100 -2.5061 -0.9860
12799TIP3    H259813   3.642   5.147  13.932  0.0846 -3.9536 -1.3746
12800TIP3   OH259814   5.717   0.606  13.342 -0.0419 -0.1280  0.1842
12800TIP3    H159815   5.688   0.690  13.308  0.0332 -0.4307 -0.6373
12800TIP3    H259816   5.644   0.547  13.326 -0.1101 -0.2175  0.7972
12801TIP3   OH259817   2.415   3.237  14.810 -0.2218 -0.5325 -0.5913
12801TIP3    H159818   2.478   3.305  14.788 -1.6237  0.2033 -2.5423
12801TIP3    H259819   2.333   3.284  14.825 -0.6079 -1.5722  0.7677
12802TIP3   OH259820   3.185   2.551  16.793  0.1091 -0.6632 -0.1449
12802TIP3    H159821   3.266   2.503  16.814  1.1036  1.0946  0.2160
12802TIP3    H259822   3.204   2.596  16.711 -0.3135  0.1735  0.2069
12803TIP3   OH259823   2.048   3.381   2.278 -0.0360  0.1099  0.0502
12803TIP3    H159824   1.986   3.327   2.329  1.4993 -2.0150 -0.2089
12803TIP3    H259825   2.039   3.469   2.316 -0.6991 -0.8648  2.3676
12804TIP3   OH259826   4.466   2.709   0.087  0.2004 -1.1642 -0.7784
12804TIP3    H159827   4.507   2.721   0.001  1.8153 -1.6550 -0.1331
12804TIP3    H259828   4.415   2.788   0.101 -0.4103 -1.2474 -2.3494
12805TIP3   OH259829   1.025   5.675  14.620  0.0714 -0.3747 -0.5656
12805TIP3    H159830   1.061   5.595  14.659  0.8864 -0.0503 -0.6219
12805TIP3    H259831   1.103   5.727  14.598 -0.4426  0.2858 -0.8335
12806TIP3   OH259832   2.382   4.423   4.870  0.0916  0.3205 -0.1533
12806TIP3    H159833   2.304   4.438   4.924 -0.8564  2.1429 -1.9161
12806TIP3    H259834   2.360   4.346   4.817 -0.7593  1.1174 -0.9974
12807TIP3   OH259835   5.082   2.635   5.362 -0.2004 -0.0856  0.0369
12807TIP3    H159836   5.100   2.708   5.421  2.1662 -0.1769 -0.4752
12807TIP3    H259837   5.153   2.573   5.377 -1.1752 -1.4777 -0.8208
12808TIP3   OH259838   3.778   0.244  15.310  0.3521 -0.0612 -0.1823
12808TIP3    H159839   3.792   0.202  15.395 -0.1560 -0.8590 -0.4908
12808TIP3    H259840   3.861   0.233  15.264  0.3337 -0.4081 -0.1293
12809TIP3   OH259841   2.211   4.657  17.230  0.0481 -0.0194  0.3880
12809TIP3    H159842   2.187   4.682  17.319  0.5048 -0.9867  0.8017
12809TIP3    H259843   2.294   4.703  17.213 -1.5459  2.6767 -0.7469
12810TIP3   OH259844   5.249   3.331  14.285  0.4541 -0.6261 -0.1351
12810TIP3    H159845   5.320   3.292  14.234  0.7650 -0.3815  0.1068
12810TIP3    H259846   5.169   3.309  14.237  0.8187  0.5639 -1.3260
12811TIP3   OH259847   2.571   5.025   1.532  0.7103 -0.3458  0.3114
12811TIP3    H159848   2.609   4.937   1.528  0.8484 -0.2297 -1.8928
12811TIP3    H259849   2.494   5.020   1.477 -1.2275  0.0856  2.8052
12812TIP3   OH259850   1.819   0.457  15.063  0.3417 -0.1697 -0.4287
12812TIP3    H159851   1.830   0.417  15.149 -1.8856  1.0385  0.4973
12812TIP3    H259852   1.838   0.387  15.001  1.2885 -1.2664  1.0386
12813TIP3   OH259853   1.421   3.664   3.159  0.0168 -0.3935 -0.4734
12813TIP3    H159854   1.387   3.578   3.135 -1.2851 -0.0338 -0.0246
12813TIP3    H259855   1.393   3.676   3.250  2.0425 -0.3759  0.1977
12814TIP3   OH259856   4.651   5.012   0.707 -0.4929 -0.0086 -0.1945
12814TIP3    H159857   4.573   4.959   0.727 -0.7615 -0.4930 -2.3470
12814TIP3    H259858   4.716   4.948   0.676  1.6008  0.0674  3.4193
12815TIP3   OH259859   3.567   6.643   0.252  0.2827 -0.7980  0.0599
12815TIP3    H159860   3.650   6.692   0.252  0.3220 -0.7979 -2.0003
12815TIP3    H259861   3.503   6.705   0.287  0.2529  0.9985 -2.8862
12816TIP3   OH259862   2.449   3.083  16.680  0.4958 -0.1337  0.5905
12816TIP3    H159863   2.523   3.024  16.665  0.5011 -0.1990  0.8599
12816TIP3    H259864   2.444   3.137  16.601 -0.6448 -1.7005 -0.4606
12817TIP3   OH259865   2.591   2.739  16.400  0.2804  0.1047  0.4949
12817TIP3    H159866   2.634   2.705  16.322 -2.2298 -0.8638 -0.5499
12817TIP3    H259867   2.639   2.698  16.473  0.5032 -1.7280 -0.6293
12818TIP3   OH259868   1.445   2.627  10.651 -0.8323 -0.3425  0.3597
12818TIP3    H159869   1.439   2.664  10.739  0.7567  2.7032 -0.6290
12818TIP3    H259870   1.371   2.665  10.604 -0.9405 -0.9277  0.0472
12819TIP3   OH259871   6.604   5.852   2.478  0.4629  0.1756 -0.3791
12819TIP3    H159872   6.574   5.938   2.446 -1.2700  0.0424  0.7198
12819TIP3    H259873   6.698   5.862   2.488  0.5356  1.4108 -1.8661
12820TIP3   OH259874   5.646   1.824  12.732  0.3400  0.2164 -0.0993
12820TIP3    H159875   5.634   1.732  12.754  0.6678 -0.1888 -1.5069
12820TIP3    H259876   5.582   1.871  12.786  0.3222 -0.8060  0.7907
12821TIP3   OH259877   2.364   0.950   5.328  0.7686 -0.0043 -0.5747
12821TIP3    H159878   2.365   1.000   5.410 -0.8837  1.5108 -1.4086
12821TIP3    H259879   2.408   1.006   5.265 -0.0814 -0.0950 -1.2628
12822TIP3   OH259880   3.705   2.607   0.982  0.3813 -0.0356 -0.1262
12822TIP3    H159881   3.611   2.624   0.979  0.6257  1.4730 -0.2995
12822TIP3    H259882   3.733   2.612   0.891  0.6100 -0.6881 -0.0967
12823TIP3   OH259883   4.339   5.551   0.012  0.0217 -0.1339 -0.2665
12823TIP3    H159884   4.363   5.469  -0.030  0.1345 -0.0588 -0.3472
12823TIP3    H259885   4.315   5.610  -0.060  0.8522  0.2051 -0.2770
12824TIP3   OH259886   2.964   1.352  10.750 -0.2203 -0.5242  0.0082
12824TIP3    H159887   3.051   1.319  10.771 -0.5210  0.0739  2.5451
12824TIP3    H259888   2.905   1.299  10.803 -1.3494 -0.4120 -1.0886
12825TIP3   OH259889   2.652   2.775   6.001  0.5394  0.6148  0.1348
12825TIP3    H159890   2.738   2.817   5.989 -0.0480  1.9359  0.3181
12825TIP3    H259891   2.590   2.847   5.988 -0.5320 -0.2960  0.1805
12826TIP3   OH259892   3.952   1.948  14.481  0.4311 -0.0941  0.5674
12826TIP3    H159893   3.979   1.966  14.571  0.0695 -1.0660  0.8822
12826TIP3    H259894   4.027   1.903  14.442  1.1341  1.5590 -0.0614
12827TIP3   OH259895   2.508   4.025  16.111  0.1260  0.2237 -0.0266
12827TIP3    H159896   2.422   4.026  16.153  0.7471  1.3669  1.2865
12827TIP3    H259897   2.571   4.021  16.183  1.1991  0.7414 -0.8934
12828TIP3   OH259898   1.243   0.936  15.765  0.5512  0.0266 -0.3967
12828TIP3    H159899   1.164   0.900  15.724 -0.5329 -0.0089  1.5560
12828TIP3    H259900   1.248   1.026  15.733 -1.0412  0.4302  0.3703
12829TIP3   OH259901   2.566   3.749   5.235  0.0092 -0.0726  0.0825
12829TIP3    H159902   2.650   3.779   5.200 -0.6923  1.5323 -0.3028
12829TIP3    H259903   2.560   3.790   5.321  0.4277 -1.6871  0.9180
12830TIP3   OH259904   5.040   2.119   1.593 -0.1802 -0.5720 -0.6422
12830TIP3    H159905   5.117   2.098   1.541 -0.1976 -0.7712 -0.5884
12830TIP3    H259906   5.044   2.059   1.667 -0.7865 -1.0916 -1.0230
12831TIP3   OH259907   3.406   2.134   2.029  0.4385 -0.1095  0.1139
12831TIP3    H159908   3.396   2.054   1.977 -0.1969  1.4738 -2.3527
12831TIP3    H259909   3.481   2.179   1.990 -0.9584  1.8288 -0.4856
12832TIP3   OH259910   1.409   3.247  16.446 -0.2404  0.6541 -0.4686
12832TIP3    H159911   1.382   3.273  16.358  2.2272 -0.0627 -1.5295
12832TIP3    H259912   1.471   3.175  16.432 -1.1097 -0.7113  1.9729
12833TIP3   OH259913   0.128   4.595   2.355  0.1134 -0.2202 -0.1938
12833TIP3    H159914   0.091   4.518   2.312  0.9165  0.0129 -1.3408
12833TIP3    H259915   0.201   4.561   2.406 -0.3813 -0.3950  0.4108
12834TIP3   OH259916   6.115   3.034   3.004  0.1068  0.0485 -0.8080
12834TIP3    H159917   6.145   3.029   2.913  0.4187  3.2520 -0.9860
12834TIP3    H259918   6.193   3.019   3.057  0.5465  1.1126 -1.1451
12835TIP3   OH259919   3.897   1.894  17.019 -0.4635 -0.1382 -0.0619
12835TIP3    H159920   3.910   1.906  17.113 -1.0763  1.8364 -0.1791
12835TIP3    H259921   3.802   1.885  17.009 -0.4761  0.4398 -0.5395
12836TIP3   OH259922   0.895   4.259  15.208  0.4055 -0.8053  0.0918
12836TIP3    H159923   0.873   4.234  15.298  1.7074  0.4702  0.8141
12836TIP3    H259924   0.853   4.344  15.196 -1.6098 -1.9207 -1.3339
12837TIP3   OH259925   3.706   6.571  16.663 -0.0100  0.3594 -0.1213
12837TIP3    H159926   3.640   6.615  16.716 -0.7761 -0.7745 -0.1192
12837TIP3    H259927   3.710   6.482  16.697 -0.8123 -0.5381 -2.1818
12838TIP3   OH259928   6.478   3.875   4.989  0.7892  0.3786 -0.4561
12838TIP3    H159929   6.528   3.943   4.944  0.0954  1.8175  0.8517
12838TIP3    H259930   6.420   3.923   5.048 -1.1510 -1.2620 -0.8986
12839TIP3   OH259931   6.587   1.694   1.281  0.6992 -0.5663 -0.3024
12839TIP3    H159932   6.579   1.653   1.195 -0.5248 -1.5569  0.2415
12839TIP3    H259933   6.546   1.779   1.271  0.2773 -0.8014 -0.6280
12840TIP3   OH259934   1.002   4.334  12.800 -0.2052 -0.4076 -0.5839
12840TIP3    H159935   1.030   4.379  12.721 -1.0681  3.0880  0.9259
12840TIP3    H259936   1.079   4.335  12.857 -0.1925 -1.0059 -0.5832
12841TIP3   OH259937   2.895   2.446   5.496  0.3117  0.2856  0.3280
12841TIP3    H159938   2.906   2.446   5.401 -1.6511 -0.6167  0.0535
12841TIP3    H259939   2.801   2.461   5.510  0.2278 -1.4188  2.0611
12842TIP3   OH259940   1.859   1.468  12.078 -0.8666  0.6694 -0.2789
12842TIP3    H159941   1.947   1.435  12.066 -1.6051 -1.1881 -0.8363
12842TIP3    H259942   1.832   1.499  11.992 -1.3163 -0.2323 -0.4712
12843TIP3   OH259943   5.975   5.942  15.511  0.1491 -0.2293  0.3055
12843TIP3    H159944   5.901   5.895  15.474  0.2444 -0.2967  0.1997
12843TIP3    H259945   5.956   6.035  15.494  0.2796 -0.2700 -0.0748
12844TIP3   OH259946   6.688   3.209   5.571  0.2059  0.4917 -0.2961
12844TIP3    H159947   6.630   3.257   5.512  0.2759  1.0864  0.1076
12844TIP3    H259948   6.735   3.277   5.619  1.7849  0.0369 -1.1220
12845TIP3   OH259949   0.360   2.366   5.099 -0.0645 -0.1575 -0.2514
12845TIP3    H159950   0.360   2.459   5.124  0.2910 -0.1016 -0.4423
12845TIP3    H259951   0.279   2.331   5.135 -1.1760  0.6777 -1.8704
12846TIP3   OH259952   3.872   5.636   2.716 -0.3374 -0.4940 -0.1863
12846TIP3    H159953   3.915   5.623   2.632  0.5580  0.0214  0.1869
12846TIP3    H259954   3.939   5.619   2.781 -0.8082 -0.1081  0.4142
12847TIP3   OH259955   6.104   0.426   2.722  0.2533  0.3847 -0.4801
12847TIP3    H159956   6.099   0.370   2.799  1.7048  0.9156  0.0471
12847TIP3    H259957   6.048   0.384   2.657 -1.2694  0.1032  0.9575
12848TIP3   OH259958   5.731   5.568  11.481 -0.1890 -0.1310 -0.5801
12848TIP3    H159959   5.821   5.547  11.504 -0.7504 -1.4502  0.5927
12848TIP3    H259960   5.715   5.520  11.400 -0.6333 -2.2397  0.6748
12849TIP3   OH259961   5.670   6.688   6.272  0.4565  0.1121  0.8194
12849TIP3    H159962   5.689   6.629   6.200  0.2285  1.1022 -0.0889
12849TIP3    H259963   5.618   6.636   6.333 -1.3230 -0.1401 -0.8049
12850TIP3   OH259964   3.533   4.651   4.856 -1.2594 -0.0399  0.0635
12850TIP3    H159965   3.462   4.691   4.806  0.2440  0.9308 -1.4140
12850TIP3    H259966   3.575   4.724   4.900 -1.1333 -0.5924  0.8670
12851TIP3   OH259967   3.757   3.567   5.537 -0.3210  0.3826 -0.1094
12851TIP3    H159968   3.679   3.533   5.581 -0.0473 -0.4113 -0.2289
12851TIP3    H259969   3.764   3.516   5.456  0.0750  0.7489 -0.3123
12852TIP3   OH259970   1.784   3.280   0.464 -0.4838 -0.0667 -0.1369
12852TIP3    H159971   1.855   3.250   0.408 -0.4415 -1.2551  0.5167
12852TIP3    H259972   1.730   3.202   0.479 -0.8038  0.3475  1.0024
12853TIP3   OH259973   6.688   3.820   1.884  0.3014  0.2516 -0.0106
12853TIP3    H159974   6.600   3.857   1.877  1.0568  1.8810 -2.0613
12853TIP3    H259975   6.716   3.808   1.794  1.7024 -1.5669  0.6091
12854TIP3   OH259976   3.305   3.579  12.496 -0.2758  0.1229 -0.3084
12854TIP3    H159977   3.234   3.578  12.431 -0.2699  1.3816 -0.3671
12854TIP3    H259978   3.291   3.501  12.549 -1.4896  0.1570 -0.5540
12855TIP3   OH259979   4.926   4.506   5.326  0.1322  0.1201 -0.1221
12855TIP3    H159980   4.883   4.454   5.394  1.3104 -1.9159 -0.8419
12855TIP3    H259981   4.926   4.595   5.360 -1.6222 -0.3873  1.3618
12856TIP3   OH259982   0.939   2.886  10.876  0.0768 -0.5648 -0.3579
12856TIP3    H159983   0.863   2.876  10.819  0.2047  0.5847 -0.7475
12856TIP3    H259984   0.965   2.978  10.867  1.7917 -1.0323 -0.5783
12857TIP3   OH259985   5.470   5.865  14.264  0.6007 -0.1328 -0.6585
12857TIP3    H159986   5.393   5.885  14.212 -1.2858 -0.3324  1.8542
12857TIP3    H259987   5.497   5.950  14.300  0.4882 -0.3035 -0.1685
12858TIP3   OH259988   4.410   2.375  17.015  0.8836 -0.2087 -0.3401
12858TIP3    H159989   4.446   2.286  17.015 -1.8889 -1.4822  1.9872
12858TIP3    H259990   4.392   2.395  17.107 -0.8652  1.7452 -1.0134
12859TIP3   OH259991   2.722   1.901  12.643 -0.1112 -0.1209  0.0982
12859TIP3    H159992   2.800   1.897  12.698 -0.4993 -1.2916  0.6078
12859TIP3    H259993   2.689   1.990  12.654  2.1069  0.9849 -1.5495
12860TIP3   OH259994   2.259   4.801  15.743  0.6020  0.5328  0.3481
12860TIP3    H159995   2.244   4.765  15.655 -1.8061 -1.5322  1.4607
12860TIP3    H259996   2.198   4.874  15.750 -0.0524 -0.0255  0.6425
12861TIP3   OH259997   0.800   0.994  15.699 -0.3167  0.0341  0.3848
12861TIP3    H159998   0.863   0.928  15.670 -1.2359 -0.3628 -0.8171
12861TIP3    H259999   0.853   1.069  15.725  0.6595  0.8810 -3.4616
12862TIP3   OH260000   1.742   4.238  15.567  0.6381 -0.9236  0.7650
12862TIP3    H160001   1.794   4.164  15.596  0.6858 -1.4524 -0.5685
12862TIP3    H260002   1.678   4.200  15.506 -0.3288 -0.0765  1.2165
12863TIP3   OH260003   0.337   0.023  16.921 -0.3721 -0.2370  0.5288
12863TIP3    H160004   0.393  -0.006  16.993 -0.4833 -0.4908  0.5121
12863TIP3    H260005   0.250  -0.009  16.944 -0.5607  0.3506  0.6698
12864TIP3   OH260006   6.750   3.763   3.146  0.3785 -0.2047  0.5044
12864TIP3    H160007   6.820   3.828   3.156  2.4116 -2.2939  0.8685
12864TIP3    H260008   6.677   3.798   3.196  1.0771  2.1581  0.0175
12865TIP3   OH260009   6.563   2.820   4.101  0.6217  0.2873  0.2252
12865TIP3    H160010   6.642   2.824   4.155 -0.7729  0.7809  2.3466
12865TIP3    H260011   6.496   2.785   4.159 -0.1869 -2.7337 -2.2863
12866TIP3   OH260012   0.255   2.740  12.873  0.5781  0.3630  0.0988
12866TIP3    H160013   0.211   2.684  12.809 -1.2589  0.9615  0.7702
12866TIP3    H260014   0.223   2.828  12.854  1.3072  0.7956  0.7943
12867TIP3   OH260015   2.298   4.609   6.744  0.0594  0.0320 -0.1177
12867TIP3    H160016   2.360   4.592   6.672 -0.6566  0.2076 -0.7901
12867TIP3    H260017   2.349   4.660   6.807  0.1354  1.7606 -1.4800
12868TIP3   OH260018   4.564   1.107  10.712  0.3811  0.7369 -0.0844
12868TIP3    H160019   4.645   1.081  10.756  0.6598  2.3140  0.4354
12868TIP3    H260020   4.499   1.043  10.741  1.1671  0.1925  0.5187
12869TIP3   OH260021   5.582   0.218   4.493  0.3603  0.1764 -0.2025
12869TIP3    H160022   5.594   0.151   4.560  1.5903 -3.1212 -3.4581
12869TIP3    H260023   5.656   0.207   4.434  0.0348  3.8106 -1.5253
12870TIP3   OH260024   3.597   2.042  14.435  0.2193 -0.6760 -0.4570
12870TIP3    H160025   3.597   1.961  14.486 -0.8536  0.3069  1.2510
12870TIP3    H260026   3.574   2.016  14.346  0.2252 -2.2734 -0.0101
12871TIP3   OH260027   4.631   1.889  15.930  0.2833 -0.2992  0.2331
12871TIP3    H160028   4.563   1.846  15.982  0.4120  0.0058  0.6634
12871TIP3    H260029   4.702   1.826  15.927 -1.0129 -1.8135 -2.5889
12872TIP3   OH260030   5.835   5.838   3.226 -0.1368  0.4517 -0.1821
12872TIP3    H160031   5.891   5.865   3.153 -1.1081  0.9871 -0.7522
12872TIP3    H260032   5.812   5.920   3.270 -0.6850  0.2663 -0.1193
12873TIP3   OH260033   1.459   4.883   0.241 -0.3313 -0.3781 -0.0017
12873TIP3    H160034   1.522   4.813   0.257  0.4229  0.4271  0.7014
12873TIP3    H260035   1.465   4.938   0.319 -0.7337  0.5995 -0.6458
12874TIP3   OH260036   5.863   1.768   1.958 -0.3689 -0.3844  0.1341
12874TIP3    H160037   5.949   1.728   1.944  0.7911  1.3181  1.8453
12874TIP3    H260038   5.814   1.704   2.010 -0.0469 -1.2243 -0.5665
12875TIP3   OH260039   4.206   3.053   4.794  0.0251 -0.0109 -0.4903
12875TIP3    H160040   4.251   3.100   4.724 -0.8775  2.0007  0.2083
12875TIP3    H260041   4.266   3.058   4.868 -0.3688  0.6851 -0.2116
12876TIP3   OH260042   3.621   0.318  16.735  0.1629 -0.6910  0.3418
12876TIP3    H160043   3.599   0.372  16.811  2.8389 -0.2479  0.8832
12876TIP3    H260044   3.676   0.248  16.770  2.3878  0.1485 -1.2849
12877TIP3   OH260045   6.224   4.423  13.633 -0.3771  0.2812 -0.1770
12877TIP3    H160046   6.306   4.439  13.679 -1.1948  1.3513  0.9868
12877TIP3    H260047   6.249   4.379  13.552  1.4319  1.6249 -0.3860
12878TIP3   OH260048   0.249   4.937   0.108 -0.4604  0.0514 -0.1761
12878TIP3    H160049   0.305   5.014   0.105 -0.6881  0.2144 -0.2782
12878TIP3    H260050   0.179   4.955   0.045  0.2832 -0.8627 -1.3019
12879TIP3   OH260051   1.753   6.146  16.269 -0.0521 -0.1615 -0.2560
12879TIP3    H160052   1.699   6.069  16.254 -1.8077  1.1587 -1.0719
12879TIP3    H260053   1.804   6.157  16.188 -0.4939  0.0471 -0.5101
12880TIP3   OH260054   3.036   6.428   4.812 -0.6648 -0.1760  0.0039
12880TIP3    H160055   3.011   6.391   4.728 -0.0825  2.5709 -1.4859
12880TIP3    H260056   3.097   6.365   4.849 -0.8774 -1.4177 -1.6580
12881TIP3   OH260057   0.813   6.624   2.741 -0.2047  0.4047  0.3180
12881TIP3    H160058   0.767   6.550   2.781  0.7203  0.6062  1.8717
12881TIP3    H260059   0.903   6.617   2.775  0.4211  1.0849 -1.1354
12882TIP3   OH260060   0.498   1.323   2.894  0.4059  0.1988 -0.1807
12882TIP3    H160061   0.504   1.267   2.817  0.9555 -0.2911  0.2044
12882TIP3    H260062   0.564   1.390   2.880  0.7564 -0.0974  0.0174
12883TIP3   OH260063   0.452   5.744  13.990 -1.0445 -0.1648 -0.3048
12883TIP3    H160064   0.536   5.698  13.987 -1.7891 -1.5912  0.0410
12883TIP3    H260065   0.419   5.726  14.078 -1.0985  1.5492  0.0584
12884TIP3   OH260066   3.823   4.906   1.706  0.1007  0.1043  0.4359
12884TIP3    H160067   3.779   4.974   1.756 -0.3866  1.2099 -1.3951
12884TIP3    H260068   3.795   4.921   1.615  0.1414 -2.4189 -0.0643
12885TIP3   OH260069   4.798   2.917   4.253  0.1203  0.9476 -0.1507
12885TIP3    H160070   4.723   2.956   4.298 -1.7756  0.0762 -2.3718
12885TIP3    H260071   4.815   2.836   4.302 -0.8818  0.7949 -0.0233
12886TIP3   OH260072   5.364   6.644  16.472 -0.0581  0.3004 -0.3221
12886TIP3    H160073   5.295   6.615  16.531 -0.1380 -0.4337 -0.7699
12886TIP3    H260074   5.344   6.736  16.455 -0.6922  0.1991 -0.1283
12887TIP3   OH260075   2.521   6.035  15.687  0.7406  0.2122 -0.7039
12887TIP3    H160076   2.475   5.957  15.718 -0.8542  1.2710 -0.2471
12887TIP3    H260077   2.496   6.042  15.594 -1.5256  1.6821 -0.0845
12888TIP3   OH260078   5.339   3.703   1.338  0.0218  0.6460 -0.0103
12888TIP3    H160079   5.394   3.702   1.416  0.9492  0.2090 -0.6523
12888TIP3    H260080   5.264   3.647   1.361  0.8790 -0.4787  0.1627
12889TIP3   OH260081   2.192   3.349  10.661 -0.4220  0.1589  0.5260
12889TIP3    H160082   2.135   3.424  10.643 -0.6679  0.2587  1.6809
12889TIP3    H260083   2.277   3.374  10.625 -0.2490  1.4074  1.7357
12890TIP3   OH260084   1.615   0.435   3.135  0.4900 -0.0052  0.0053
12890TIP3    H160085   1.697   0.387   3.121  0.2580 -0.6836  0.9028
12890TIP3    H260086   1.587   0.460   3.047  0.8546 -1.1337 -0.4528
12891TIP3   OH260087   4.251   4.671   4.940 -0.5938  0.1214 -0.5393
12891TIP3    H160088   4.315   4.640   4.875  0.8206  0.0799  0.8263
12891TIP3    H260089   4.209   4.591   4.971  0.7141 -0.1768  0.5785
12892TIP3   OH260090   0.733   4.849   2.109 -0.3539  0.1634 -0.0559
12892TIP3    H160091   0.739   4.924   2.168 -1.9004  0.6348 -0.4602
12892TIP3    H260092   0.785   4.781   2.152 -1.6809  0.3767  2.0666
12893TIP3   OH260093   6.168   1.986   0.880  0.6513 -0.2290  0.4267
12893TIP3    H160094   6.194   1.975   0.971  3.7980  1.2674 -0.1163
12893TIP3    H260095   6.082   2.026   0.884  0.0772 -1.5119  2.6610
12894TIP3   OH260096   5.863   5.231  14.238 -0.1384 -0.0612  0.5193
12894TIP3    H160097   5.783   5.208  14.189  0.2926 -0.7663  0.1321
12894TIP3    H260098   5.831   5.276  14.316 -1.0102 -1.4486  1.0089
12895TIP3   OH260099   3.157   4.260   1.831  0.4246 -0.2171 -0.1581
12895TIP3    H160100   3.153   4.196   1.903  0.2209 -0.4485 -0.3745
12895TIP3    H260101   3.230   4.230   1.777  1.7620  0.9785  0.9132
12896TIP3   OH260102   6.333   0.283  11.134  0.2185 -0.2175 -0.0292
12896TIP3    H160103   6.358   0.367  11.173  0.4773  0.3314 -1.3114
12896TIP3    H260104   6.406   0.260  11.076 -1.0019  0.0860 -1.7910
12897TIP3   OH260105   2.830   4.220   4.029  0.5203 -1.0619  0.1139
12897TIP3    H160106   2.890   4.222   3.955  0.0490  0.7437 -0.2668
12897TIP3    H260107   2.743   4.211   3.991  0.2748 -0.1396  0.4325
12898TIP3   OH260108   2.615   6.228  14.219 -0.1278  0.3062  0.0678
12898TIP3    H160109   2.600   6.293  14.288 -1.7819  0.5732 -0.4924
12898TIP3    H260110   2.703   6.193  14.237  0.6069  2.3309  0.6714
12899TIP3   OH260111   2.828   4.337   6.057 -0.1747  0.6447  0.5793
12899TIP3    H160112   2.751   4.393   6.042 -0.3697  0.2867  0.2193
12899TIP3    H260113   2.793   4.248   6.059 -0.0610  0.6151  2.5806
12900TIP3   OH260114   3.060   1.775  13.257  0.0071 -0.2380  0.0262
12900TIP3    H160115   3.031   1.751  13.345  1.1959 -1.0328  0.2165
12900TIP3    H260116   3.145   1.818  13.270  0.3716 -0.6933 -0.7617
12901TIP3   OH260117   1.031   3.366   3.936  0.0387 -0.2769 -0.3713
12901TIP3    H160118   0.967   3.384   3.867 -0.7961 -1.6849  0.0023
12901TIP3    H260119   1.011   3.277   3.966 -0.5155  0.7246  2.6051
12902TIP3   OH260120   2.433   2.638  13.625  0.6920 -0.4854  0.4449
12902TIP3    H160121   2.463   2.548  13.612 -1.8516 -1.2567 -0.9189
12902TIP3    H260122   2.464   2.685  13.548  0.7683 -0.5925  0.4101
12903TIP3   OH260123   5.086   4.078  14.591 -1.3140  0.3194  0.2197
12903TIP3    H160124   5.043   4.048  14.511 -0.3540  0.4444 -0.3664
12903TIP3    H260125   5.114   3.998  14.635  0.4696  0.2840 -0.9041
12904TIP3   OH260126   6.353   4.067  16.533 -0.0856  1.0089  0.1084
12904TIP3    H160127   6.409   4.001  16.493 -0.3545  1.4899 -1.1045
12904TIP3    H260128   6.411   4.142  16.546 -0.1430  1.0624  0.0533
12905TIP3   OH260129   5.582   2.048  13.308  0.0090  0.2346  0.1373
12905TIP3    H160130   5.576   2.141  13.328 -0.3068  0.3279 -0.3766
12905TIP3    H260131   5.576   2.005  13.393  0.2627  0.6842  0.3894
12906TIP3   OH260132   4.583   0.689   1.638 -0.5010  0.0891 -0.5659
12906TIP3    H160133   4.510   0.628   1.623 -0.2205  0.1164 -2.2290
12906TIP3    H260134   4.606   0.721   1.550  0.0277  1.8230  0.1540
12907TIP3   OH260135   3.557   6.597  14.307  0.4042 -0.0383 -0.0544
12907TIP3    H160136   3.470   6.631  14.287 -0.3202 -1.0665  1.1921
12907TIP3    H260137   3.611   6.625  14.233 -0.5065  2.2802  0.0643
12908TIP3   OH260138   1.876   0.577  12.290 -0.0281  0.0577  0.0380
12908TIP3    H160139   1.785   0.563  12.314 -1.0030  2.3079 -1.9218
12908TIP3    H260140   1.887   0.672  12.294  1.3300  0.0965 -2.6207
12909TIP3   OH260141   2.840   3.211  15.252  0.8153 -0.2728 -0.4482
12909TIP3    H160142   2.813   3.127  15.213  0.4639 -0.2533 -0.2495
12909TIP3    H260143   2.758   3.256  15.272  0.9945 -0.1162 -0.0437
12910TIP3   OH260144   6.188   5.715  16.869 -0.4949 -0.1308  0.0423
12910TIP3    H160145   6.191   5.806  16.899  1.4197 -0.1266 -0.0781
12910TIP3    H260146   6.186   5.721  16.774 -0.0319 -0.2264  0.0284
12911TIP3   OH260147   0.864   1.394  13.031 -0.4266  0.1927  0.0874
12911TIP3    H160148   0.792   1.390  12.968  1.4040 -0.4703 -2.1108
12911TIP3    H260149   0.853   1.479  13.075 -1.1943  1.1627 -1.8705
12912TIP3   OH260150   1.408   4.516  13.257  0.3780 -0.7039 -0.6015
12912TIP3    H160151   1.338   4.487  13.316 -0.2900  0.5918 -0.7237
12912TIP3    H260152   1.362   4.543  13.178  1.2488 -2.1952 -1.6570
12913TIP3   OH260153   1.766   6.239   3.928 -0.3314 -0.2330  0.2209
12913TIP3    H160154   1.779   6.315   3.871  1.7396  0.2635  1.2356
12913TIP3    H260155   1.778   6.163   3.871 -1.7003  0.1746 -0.6582
12914TIP3   OH260156   2.231   6.192  13.098  0.2887 -0.5080  0.5119
12914TIP3    H160157   2.323   6.215  13.105  0.6195 -1.1244 -1.1742
12914TIP3    H260158   2.230   6.096  13.096 -0.0196 -0.5400 -2.3902
12915TIP3   OH260159   0.623   2.753  16.954 -0.4264  0.0902 -0.0704
12915TIP3    H160160   0.665   2.707  17.026 -1.3159 -0.2791  0.2197
12915TIP3    H260161   0.631   2.694  16.879  0.0631  0.2668 -0.1656
12916TIP3   OH260162   1.027   5.894   5.185  0.7209  0.1533  0.1217
12916TIP3    H160163   0.979   5.838   5.124  0.6441  1.5481 -1.1547
12916TIP3    H260164   0.965   5.964   5.207  1.0150  0.0925  1.2197
12917TIP3   OH260165   5.580   4.646  14.579 -0.1434  0.4599 -0.4348
12917TIP3    H160166   5.492   4.663  14.546  0.5473  1.0291 -2.0849
12917TIP3    H260167   5.569   4.572  14.639 -1.9078  1.2604  0.3171
12918TIP3   OH260168   3.614   4.590  15.401 -0.1708 -0.1536 -0.1400
12918TIP3    H160169   3.577   4.543  15.476  0.2202  0.7891  0.6544
12918TIP3    H260170   3.629   4.521  15.336  0.5775 -1.1881  1.0704
12919TIP3   OH260171   3.809   0.013   0.300 -0.4076 -0.5337 -0.3682
12919TIP3    H160172   3.832  -0.025   0.384  0.9557  0.2325 -0.3715
12919TIP3    H260173   3.788   0.104   0.319 -0.9910 -0.5828 -0.7376
12920TIP3   OH260174   6.501   5.836  15.997  0.7152 -0.1423 -0.2046
12920TIP3    H160175   6.449   5.798  15.926  1.1500  1.5278 -1.4686
12920TIP3    H260176   6.581   5.784  15.999  1.0246  0.2475 -1.4724
12921TIP3   OH260177   0.395   5.192  16.900 -1.2304  0.4316 -0.9309
12921TIP3    H160178   0.471   5.169  16.847 -2.1076  0.2054 -2.1279
12921TIP3    H260179   0.402   5.286  16.913  0.6985  0.0884  1.3329
12922TIP3   OH260180   3.139   1.618   4.387 -0.2142 -0.7009  0.3914
12922TIP3    H160181   3.046   1.640   4.379  0.2259  0.6591 -1.7950
12922TIP3    H260182   3.184   1.685   4.335  1.7897 -2.9089 -0.9058
12923TIP3   OH260183   3.150   2.099  16.999 -0.2477 -0.4772  0.5757
12923TIP3    H160184   3.055   2.112  16.990 -0.0386  1.4666  0.6508
12923TIP3    H260185   3.176   2.054  16.918 -0.9882  0.7034 -0.3630
12924TIP3   OH260186   3.999   5.985  12.286 -0.3963  0.0556  0.3458
12924TIP3    H160187   4.061   5.935  12.233 -1.3392 -2.0495  1.0954
12924TIP3    H260188   4.049   6.009  12.365  0.3360  1.1931 -0.4282
12925TIP3   OH260189   4.691   5.214  13.702  0.1592 -0.3464 -0.2229
12925TIP3    H160190   4.626   5.211  13.773 -0.7734 -1.5647 -1.0965
12925TIP3    H260191   4.764   5.264  13.739 -0.3825 -0.7814  1.5281
12926TIP3   OH260192   2.442   5.191   3.441  0.2232 -0.5081  0.1423
12926TIP3    H160193   2.400   5.277   3.443  2.6613  0.7510  0.3867
12926TIP3    H260194   2.428   5.159   3.352 -1.7992 -0.4986  0.3980
12927TIP3   OH260195   0.861   0.024  14.126 -0.0638  0.0032 -0.3997
12927TIP3    H160196   0.805  -0.028  14.069  0.6244 -0.1616 -0.9465
12927TIP3    H260197   0.914  -0.040  14.173  0.6456  0.1949 -0.9255
12928TIP3   OH260198   4.340   5.360  17.224  0.0787  0.6395  0.2438
12928TIP3    H160199   4.333   5.347  17.130 -2.4377 -0.5371  0.5075
12928TIP3    H260200   4.398   5.290  17.254  0.2329  0.5192 -0.3306
12929TIP3   OH260201   2.869   4.089   6.795  0.4101 -0.6991 -0.3477
12929TIP3    H160202   2.930   4.155   6.829  0.4827 -1.1476  0.4210
12929TIP3    H260203   2.925   4.022   6.756  0.3085  0.8242 -3.4622
12930TIP3   OH260204   6.684   3.112  13.044 -0.1623  0.4800  0.0797
12930TIP3    H160205   6.660   3.075  12.959 -1.7783  0.2749  0.5978
12930TIP3    H260206   6.741   3.186  13.022  1.2465 -0.8723 -1.0589
12931TIP3   OH260207   3.412   4.428  15.596 -0.3428 -0.9115  0.0745
12931TIP3    H160208   3.501   4.443  15.628 -0.0475  0.0853 -1.1460
12931TIP3    H260209   3.359   4.418  15.676  0.6196 -0.0734  0.8403
12932TIP3   OH260210   1.572   4.719   3.912 -0.1288 -0.9189 -0.2946
12932TIP3    H160211   1.511   4.732   3.840  0.2952  1.7225 -0.2885
12932TIP3    H260212   1.519   4.730   3.991  0.2080  0.9568 -0.2875
12933TIP3   OH260213   6.250   5.317   0.204  0.2177  0.6039 -0.3162
12933TIP3    H160214   6.333   5.283   0.171 -0.1043 -0.5538 -0.0155
12933TIP3    H260215   6.269   5.342   0.295  0.2660  0.3970 -0.2670
12934TIP3   OH260216   1.740   1.129   2.458  0.1538 -0.8769 -0.4328
12934TIP3    H160217   1.754   1.223   2.462  2.6824 -1.1291 -1.7190
12934TIP3    H260218   1.725   1.103   2.549  2.6799  0.3629  0.4122
12935TIP3   OH260219   0.476   5.500   4.194  0.5226  0.7926  0.0982
12935TIP3    H160220   0.414   5.508   4.122  0.5449 -1.3174 -0.2335
12935TIP3    H260221   0.460   5.577   4.249 -2.1413  0.5232 -0.1671
12936TIP3   OH260222   0.526   0.241  13.828  0.1104  0.0685 -0.2340
12936TIP3    H160223   0.546   0.150  13.850  0.1330 -0.2773 -1.6225
12936TIP3    H260224   0.468   0.235  13.751 -3.0566  1.0914  1.8491
12937TIP3   OH260225   1.219   4.647   1.145  0.4150 -0.1453 -0.0423
12937TIP3    H160226   1.224   4.557   1.177  0.7045 -0.2722 -0.4434
12937TIP3    H260227   1.288   4.693   1.194  0.8252 -0.3294 -0.4367
12938TIP3   OH260228   1.533   5.830   1.190  0.2215  0.1847 -0.1260
12938TIP3    H160229   1.535   5.740   1.156 -2.2567 -0.6797  1.7169
12938TIP3    H260230   1.605   5.832   1.253 -0.4565 -0.9739  0.7393
12939TIP3   OH260231   0.153   1.894   0.975 -0.6270 -0.0402  0.0681
12939TIP3    H160232   0.087   1.876   1.041 -0.5937 -0.9205 -0.1356
12939TIP3    H260233   0.229   1.926   1.024 -1.7766  2.8436  0.1935
12940TIP3   OH260234   2.383   0.162  17.069  0.3496 -0.7752 -0.0363
12940TIP3    H160235   2.401   0.073  17.038 -0.5425 -1.6749  1.8537
12940TIP3    H260236   2.296   0.182  17.035  0.3152 -0.8556  0.0040
12941TIP3   OH260237   2.104   2.689  12.009  0.3670 -0.1407 -0.8199
12941TIP3    H160238   2.184   2.645  11.979  0.7163  0.3139 -0.5677
12941TIP3    H260239   2.064   2.626  12.068  0.9747 -0.0467 -0.2949
12942TIP3   OH260240   5.314   4.591   5.339 -0.1224  0.0595 -0.5673
12942TIP3    H160241   5.323   4.575   5.433 -3.0705  1.7924  0.1335
12942TIP3    H260242   5.354   4.677   5.324 -0.4625  0.1976 -0.7018
12943TIP3   OH260243   1.850   3.291   2.827  0.1844 -0.6093 -0.6221
12943TIP3    H160244   1.907   3.265   2.899 -1.0128 -2.8953 -0.4136
12943TIP3    H260245   1.783   3.346   2.869  1.3769  0.9032 -0.6300
12944TIP3   OH260246   1.108   0.471  10.985  0.1285  0.1787  0.0655
12944TIP3    H160247   1.049   0.423  10.927  1.0006 -0.8408 -0.0109
12944TIP3    H260248   1.059   0.483  11.066  0.0363 -1.2168  0.2345
12945TIP3   OH260249   2.820   4.378  14.185  0.0360  0.1088  0.2832
12945TIP3    H160250   2.835   4.384  14.279  3.0710  1.9932 -0.1557
12945TIP3    H260251   2.750   4.441  14.167  0.1597  0.5117  1.1738
12946TIP3   OH260252   0.474   5.856  16.961  0.0903  0.1029  0.3574
12946TIP3    H160253   0.487   5.813  16.876  1.4223  2.1891 -0.5821
12946TIP3    H260254   0.502   5.791  17.025  1.1195 -0.7920 -0.9360
12947TIP3   OH260255   6.224   2.734  12.958  0.3465 -0.0979 -0.1211
12947TIP3    H160256   6.227   2.812  12.904  0.8776  0.6356  0.9188
12947TIP3    H260257   6.241   2.766  13.047 -0.7889 -1.2134  0.5263
12948TIP3   OH260258   3.209   0.953  15.248  0.5842  0.0014  0.6169
12948TIP3    H160259   3.117   0.926  15.245  1.2827 -2.4966 -1.7327
12948TIP3    H260260   3.234   0.944  15.340 -1.5649  1.1435  1.3879
12949TIP3   OH260261   0.710   6.720  14.374  0.0484  0.2349 -0.1669
12949TIP3    H160262   0.743   6.776  14.304  0.7848  0.9519  0.7083
12949TIP3    H260263   0.717   6.775  14.453 -1.8081 -0.1487  0.3080
12950TIP3   OH260264   2.581   1.128   1.171 -0.0179  0.2382 -0.2575
12950TIP3    H160265   2.532   1.205   1.200 -0.1203  0.4531 -0.9887
12950TIP3    H260266   2.517   1.077   1.121  0.4152  0.3707 -0.9601
12951TIP3   OH260267   0.498   0.301  15.481 -0.5268 -0.0083  0.0386
12951TIP3    H160268   0.541   0.312  15.396 -1.1401 -0.6879 -0.3747
12951TIP3    H260269   0.567   0.317  15.545 -0.5232  2.6288 -0.5160
12952TIP3   OH260270   5.876   4.129  14.945 -0.2712  0.0808 -0.2453
12952TIP3    H160271   5.932   4.170  14.878 -0.1187  1.8343  0.8852
12952TIP3    H260272   5.789   4.126  14.904  0.2289 -0.8980 -1.3029
12953TIP3   OH260273   2.136   0.198  16.931  0.0477  0.7325  0.7040
12953TIP3    H160274   2.041   0.184  16.925  0.1640 -0.1416  0.7986
12953TIP3    H260275   2.159   0.241  16.849 -0.6448  2.2477  1.2734
12954TIP3   OH260276   2.637   4.828   6.498 -0.1285 -0.1219  0.4504
12954TIP3    H160277   2.704   4.761   6.487 -0.7143 -0.6107 -0.2023
12954TIP3    H260278   2.574   4.789   6.559  0.3600  0.4844  1.3657
12955TIP3   OH260279   5.056   1.658  12.685  0.7771  0.1438 -0.0032
12955TIP3    H160280   4.977   1.634  12.733  0.0137  0.5945 -1.0038
12955TIP3    H260281   5.116   1.585  12.700  0.3271 -0.0175  1.0971
12956TIP3   OH260282   6.454   1.986  14.056 -0.7089 -0.6236  0.2021
12956TIP3    H160283   6.417   1.906  14.092  1.0102 -1.5593  0.0076
12956TIP3    H260284   6.513   2.018  14.125  0.3814 -0.8229 -0.6162
12957TIP3   OH260285   3.477   4.137   0.289 -0.6976 -0.2025 -0.3303
12957TIP3    H160286   3.523   4.054   0.274  0.1693  0.1694  0.2129
12957TIP3    H260287   3.387   4.120   0.260 -0.3391 -1.0877 -0.9745
12958TIP3   OH260288   1.999   2.072  16.232 -0.1741 -0.5484  0.0003
12958TIP3    H160289   1.942   2.014  16.282  1.4165 -2.1167  0.0844
12958TIP3    H260290   1.955   2.157  16.235 -0.3748 -0.5924  3.8277
12959TIP3   OH260291   1.574   1.350   2.780  0.3229  0.3511 -0.1217
12959TIP3    H160292   1.589   1.381   2.869  2.8874  0.0791 -0.3749
12959TIP3    H260293   1.606   1.421   2.724 -1.4989  0.6259 -0.8631
12960TIP3   OH260294   3.390   5.271  11.444  0.6936  0.3055  0.3208
12960TIP3    H160295   3.317   5.307  11.394  0.7495  0.9734  0.6998
12960TIP3    H260296   3.353   5.196  11.491 -0.5414  2.2907  2.7527
12961TIP3   OH260297   3.455   2.371   2.890 -0.2984 -0.5954  0.7989
12961TIP3    H160298   3.447   2.355   2.796 -0.0830  0.3287  0.6167
12961TIP3    H260299   3.406   2.300   2.930 -3.2306  0.7598 -0.0939
12962TIP3   OH260300   3.674   4.642  13.417  1.2392 -0.2551  0.2406
12962TIP3    H160301   3.658   4.602  13.502 -0.0170 -0.6941 -0.1657
12962TIP3    H260302   3.588   4.641  13.374  1.2171  2.5032  0.0378
12963TIP3   OH260303   5.366   1.435   2.267 -0.0572 -0.4710  0.2921
12963TIP3    H160304   5.419   1.429   2.347  1.3487  1.2325 -0.4721
12963TIP3    H260305   5.320   1.518   2.274 -0.8291 -0.8443 -0.1628
12964TIP3   OH260306   2.431   6.423   4.706  0.3214 -0.8088 -0.0786
12964TIP3    H160307   2.515   6.380   4.686 -0.2194 -1.3048 -1.4295
12964TIP3    H260308   2.397   6.450   4.620  0.0520  1.2584  0.6163
12965TIP3   OH260309   1.379   4.159   1.183  0.3497  0.1850 -0.0434
12965TIP3    H160310   1.388   4.254   1.195  0.5822  0.1907 -0.2670
12965TIP3    H260311   1.358   4.149   1.090 -1.1264  0.1166  0.2647
12966TIP3   OH260312   3.319   2.540   3.073 -0.2605  0.1777 -0.3544
12966TIP3    H160313   3.371   2.507   3.000 -2.7881 -0.5596 -1.9460
12966TIP3    H260314   3.321   2.469   3.137  0.3534  0.0020 -0.5647
12967TIP3   OH260315   6.012   4.259  15.571 -0.8078  0.1103  0.0217
12967TIP3    H160316   6.004   4.170  15.537 -2.3875  0.4442 -0.5670
12967TIP3    H260317   6.076   4.300  15.514 -0.7577 -0.3819 -0.2858
12968TIP3   OH260318   6.231   4.227  11.580 -0.0427 -0.0164 -0.2377
12968TIP3    H160319   6.201   4.284  11.510  0.4594 -0.6193 -0.9611
12968TIP3    H260320   6.315   4.193  11.549  1.6352  1.8813  1.8433
12969TIP3   OH260321   2.160   6.453  12.018  0.7562 -0.2289  0.6708
12969TIP3    H160322   2.093   6.392  12.048  0.5538  0.3356  1.4087
12969TIP3    H260323   2.114   6.512  11.958  1.1773 -1.4025 -0.8587
12970TIP3   OH260324   6.324   6.034   1.032 -0.1709  0.1680  0.5596
12970TIP3    H160325   6.248   6.051   1.087 -0.2637 -0.1184  0.5204
12970TIP3    H260326   6.309   6.088   0.954 -0.0305  0.5865  0.8158
12971TIP3   OH260327   2.925   3.950   4.634  0.3635  0.3068 -0.3173
12971TIP3    H160328   2.941   4.025   4.691 -1.1682  2.1904 -2.1681
12971TIP3    H260329   2.837   3.922   4.655  1.3780 -1.9230  1.2668
12972TIP3   OH260330   0.569   5.977   3.121  0.1141 -0.5636 -0.2371
12972TIP3    H160331   0.620   5.990   3.200 -2.8010  0.7759  1.6218
12972TIP3    H260332   0.520   5.896   3.137  0.5302 -1.0576 -1.3405
12973TIP3   OH260333   6.418   3.374   5.787 -0.0451 -0.5340  0.3744
12973TIP3    H160334   6.346   3.366   5.850 -1.8716  2.0704 -1.1551
12973TIP3    H260335   6.384   3.334   5.706 -0.0142  1.1024 -0.4892
12974TIP3   OH260336   4.714   4.303  13.310  0.7133 -0.5068  0.5032
12974TIP3    H160337   4.802   4.291  13.274  0.6824 -3.6932  1.2119
12974TIP3    H260338   4.665   4.227  13.280 -1.6858  0.8928  0.6190
12975TIP3   OH260339   4.295   5.146   6.196  0.3317 -0.4163 -0.1104
12975TIP3    H160340   4.299   5.076   6.131 -0.1114  0.1271 -0.7403
12975TIP3    H260341   4.385   5.154   6.228  0.0646 -2.5588  1.3940
12976TIP3   OH260342   5.551   0.173   3.269 -0.0677 -0.2620  0.1726
12976TIP3    H160343   5.513   0.235   3.207 -1.0326 -0.2219  0.7898
12976TIP3    H260344   5.594   0.107   3.213 -0.5260  0.0167 -0.5264
12977TIP3   OH260345   1.406   3.387   3.109  0.6862  0.0877 -0.3962
12977TIP3    H160346   1.480   3.374   3.049 -0.9289 -2.7694 -2.0236
12977TIP3    H260347   1.409   3.310   3.167 -0.9653 -0.0829 -0.4984
12978TIP3   OH260348   5.263   3.076  13.288 -0.3969 -0.0817  0.0167
12978TIP3    H160349   5.194   3.107  13.347  0.5427 -0.0694  1.1387
12978TIP3    H260350   5.343   3.114  13.323  0.1257  0.4478 -1.6547
12979TIP3   OH260351   5.883   5.641   1.502  0.1413  0.2784  0.4951
12979TIP3    H160352   5.893   5.624   1.408  0.0870  0.7086  0.4073
12979TIP3    H260353   5.853   5.732   1.507 -0.2038  0.1435  0.9166
12980TIP3   OH260354   0.243   6.454   1.787  0.2761  0.1787  0.3274
12980TIP3    H160355   0.298   6.527   1.815  0.7187  0.0393 -0.1570
12980TIP3    H260356   0.160   6.467   1.833  1.0786 -0.2410  2.0073
12981TIP3   OH260357   5.476   5.423  16.747  0.2106  0.2125 -0.2415
12981TIP3    H160358   5.503   5.332  16.732  0.3196  0.1967  0.0534
12981TIP3    H260359   5.427   5.446  16.668 -2.2905 -1.0415  0.8376
12982TIP3   OH260360   1.698   5.517   1.213 -0.4512  0.7188 -0.0554
12982TIP3    H160361   1.721   5.440   1.265 -1.7049 -0.1824 -0.7730
12982TIP3    H260362   1.752   5.587   1.248  1.1090 -0.6057  0.2784
12983TIP3   OH260363   1.299   2.182   2.892 -0.4565  0.0588 -0.0258
12983TIP3    H160364   1.352   2.259   2.911  0.4513 -0.2261 -1.2275
12983TIP3    H260365   1.360   2.108   2.896 -0.8299 -0.3327 -0.9811
12984TIP3   OH260366   1.305   0.291   0.270  0.2642 -0.2306 -0.0961
12984TIP3    H160367   1.268   0.352   0.333  1.3515 -0.3649  0.7043
12984TIP3    H260368   1.400   0.296   0.284  0.5067 -0.6408 -1.3723
12985TIP3   OH260369   4.498   4.257   2.237 -0.3218  0.0112 -0.5317
12985TIP3    H160370   4.423   4.199   2.248 -0.2117 -0.1753 -0.7393
12985TIP3    H260371   4.537   4.264   2.324 -1.4076  1.2691 -0.1139
12986TIP3   OH260372   1.360   3.534   0.848  0.0934 -0.1531  0.8879
12986TIP3    H160373   1.381   3.446   0.879  0.8252 -0.1658  0.3829
12986TIP3    H260374   1.435   3.588   0.874  0.3909 -0.0217 -0.1933
12987TIP3   OH260375   1.685   4.844  12.178  0.3747 -0.1362 -0.0077
12987TIP3    H160376   1.592   4.854  12.198  0.6435  0.6412  0.9116
12987TIP3    H260377   1.700   4.749  12.181 -0.3004 -0.2403  0.2135
12988TIP3   OH260378   1.588   1.346   5.351 -0.2976 -0.8161 -0.1983
12988TIP3    H160379   1.633   1.338   5.436 -1.0620  1.1223  0.4357
12988TIP3    H260380   1.503   1.304   5.366 -0.3738 -0.6117 -0.0662
12989TIP3   OH260381   3.185   4.300  13.785 -0.0163  0.0839 -0.5239
12989TIP3    H160382   3.165   4.245  13.710 -0.8865  2.2768 -1.9930
12989TIP3    H260383   3.101   4.319  13.825  0.1782  0.9066 -0.4796
12990TIP3   OH260384   0.754   5.028  11.496  0.2277  0.0063 -0.1120
12990TIP3    H160385   0.718   4.956  11.547 -1.3485  0.9805  0.2093
12990TIP3    H260386   0.776   5.095  11.561 -1.3154  1.0538 -0.6062
12991TIP3   OH260387   1.567   5.893  14.347  0.0762  0.3593 -0.3624
12991TIP3    H160388   1.483   5.924  14.381  0.4138 -0.6020  1.5246
12991TIP3    H260389   1.565   5.914  14.254 -0.7072  3.7192  0.2884
12992TIP3   OH260390   3.236   4.328   6.109 -0.1899  0.1179  0.6156
12992TIP3    H160391   3.195   4.415   6.108 -1.5725 -0.5061 -0.2751
12992TIP3    H260392   3.168   4.269   6.076  1.8465 -0.8290 -2.2726
12993TIP3   OH260393   1.762   0.949  12.472 -0.4073 -0.2101 -0.0404
12993TIP3    H160394   1.785   1.041  12.483  1.9395 -0.7928  0.5651
12993TIP3    H260395   1.844   0.907  12.445 -1.3032 -2.1864  0.1161
12994TIP3   OH260396   6.021   2.923   4.858  0.2183  0.2773  0.6485
12994TIP3    H160397   5.932   2.951   4.840 -0.1802 -0.5604  1.2652
12994TIP3    H260398   6.062   2.999   4.900 -0.0855  0.7912  0.0246
12995TIP3   OH260399   5.749   2.786   3.024 -0.0665 -0.1421  0.6668
12995TIP3    H160400   5.800   2.813   2.948  0.8084 -1.8832  0.6050
12995TIP3    H260401   5.795   2.825   3.099  0.3464 -0.2545  0.4739
12996TIP3   OH260402   1.293   5.900   3.468 -0.1191  0.2721  0.1728
12996TIP3    H160403   1.347   5.889   3.389 -1.3811  0.4495 -0.7447
12996TIP3    H260404   1.251   5.985   3.456 -0.0745  0.4595  1.2154
12997TIP3   OH260405   1.755   1.769   6.340  0.0897  0.2841 -0.2581
12997TIP3    H160406   1.701   1.755   6.419  1.3508  2.1097  1.0062
12997TIP3    H260407   1.829   1.821   6.371  0.7411  0.8753 -2.6473
12998TIP3   OH260408   0.751   4.510  14.051 -0.3024 -0.8250  0.0363
12998TIP3    H160409   0.835   4.522  14.006  0.4387 -0.3094  1.4888
12998TIP3    H260410   0.734   4.416  14.047 -0.7822 -0.7136 -2.1436
12999TIP3   OH260411   5.864   0.173   4.062 -0.4033 -0.3776  0.6942
12999TIP3    H160412   5.829   0.259   4.039  0.4325 -0.2003  0.0350
12999TIP3    H260413   5.821   0.113   4.001  0.8182 -0.0834 -0.5162
13000TIP3   OH260414   3.485   5.033  15.496 -0.2333 -0.6154  0.2707
13000TIP3    H160415   3.531   5.003  15.575  0.1331  0.0096  0.2996
13000TIP3    H260416   3.399   4.992  15.503 -0.5990  0.3152  1.5755
13001TIP3   OH260417   3.203   5.932   5.904  0.0136  0.4520  0.9540
13001TIP3    H160418   3.118   5.936   5.948 -0.7949 -0.5398 -0.3965
13001TIP3    H260419   3.261   5.985   5.958 -1.7067  2.0229  1.3950
13002TIP3   OH260420   5.615   2.633   4.465  0.1557  0.0249 -0.6068
13002TIP3    H160421   5.575   2.610   4.381  0.4853  1.4474 -1.1843
13002TIP3    H260422   5.697   2.584   4.467 -0.6266 -1.3338 -0.3211
13003TIP3   OH260423   6.409   6.355  15.398  0.0121 -0.6030 -0.5356
13003TIP3    H160424   6.329   6.320  15.437  0.3711 -2.3200 -1.2285
13003TIP3    H260425   6.466   6.278  15.389  1.2999  0.3912 -1.0741
13004TIP3   OH260426   5.769   4.605  12.426  0.3643  0.6114  0.1800
13004TIP3    H160427   5.754   4.642  12.513 -0.8322 -1.6766  1.0450
13004TIP3    H260428   5.843   4.545  12.437  0.2319  0.3327 -0.3888
13005TIP3   OH260429   3.119   5.379  15.922  0.0825 -0.2606  0.5030
13005TIP3    H160430   3.107   5.464  15.965 -1.2101  0.5081 -1.2612
13005TIP3    H260431   3.033   5.357  15.887  1.0767 -0.7590 -1.7812
13006TIP3   OH260432   1.314   0.540  14.529  0.7358 -0.0346  0.1895
13006TIP3    H160433   1.264   0.536  14.447 -0.2095 -0.5299  0.7724
13006TIP3    H260434   1.403   0.561  14.501  0.4294 -0.1681 -0.9670
13007TIP3   OH260435   0.113   5.839  13.931  0.6753  0.1032 -0.4628
13007TIP3    H160436   0.108   5.756  13.882  0.5072 -1.0291  1.3971
13007TIP3    H260437   0.201   5.872  13.911  0.5751 -0.2546 -1.6071
13008TIP3   OH260438   4.711   1.478   3.429 -0.1676  0.2262 -0.1298
13008TIP3    H160439   4.627   1.506   3.466 -0.5565  0.0386 -0.8472
13008TIP3    H260440   4.706   1.502   3.336  1.2195  1.6611  0.1289
13009TIP3   OH260441   4.864   3.988  13.487  0.0751 -0.0312 -0.0676
13009TIP3    H160442   4.886   3.897  13.467  0.4903  0.4440 -2.0429
13009TIP3    H260443   4.923   4.011  13.559  0.2856 -1.1766  0.1591
13010TIP3   OH260444   0.283   2.330  14.005 -0.3886  0.2543  0.5168
13010TIP3    H160445   0.306   2.325  14.098  0.4866  2.5911  0.4957
13010TIP3    H260446   0.291   2.423  13.984 -1.9181 -0.0356 -1.5853
13011TIP3   OH260447   0.321   6.296  15.598 -0.5514 -0.4253 -0.6097
13011TIP3    H160448   0.336   6.206  15.570  1.2157  0.0222 -1.2466
13011TIP3    H260449   0.370   6.349  15.535 -0.1219  0.8686  0.7479
13012TIP3   OH260450   5.849   3.141  16.148 -0.1987  0.2495 -0.0623
13012TIP3    H160451   5.896   3.075  16.098 -0.6693 -0.6461  0.6360
13012TIP3    H260452   5.908   3.164  16.220 -0.5523 -0.3791  0.4339
13013TIP3   OH260453   5.048   1.482   0.811  0.2017  0.1584 -0.4525
13013TIP3    H160454   5.094   1.412   0.764 -0.3862 -2.3551  2.4237
13013TIP3    H260455   5.106   1.504   0.883 -2.0834 -1.8153  2.2117
13014TIP3   OH260456   5.416   4.577  16.090  0.0400  0.2099  0.3945
13014TIP3    H160457   5.382   4.666  16.097  0.4775  0.2814  1.9047
13014TIP3    H260458   5.339   4.524  16.068 -0.1481  0.9844 -0.9291
13015TIP3   OH260459   2.405   2.418  11.284  0.2441 -0.6696 -0.4478
13015TIP3    H160460   2.461   2.474  11.231  0.3676  1.3560  1.6388
13015TIP3    H260461   2.333   2.393  11.226  0.0911  1.8310 -1.4402
13016TIP3   OH260462   5.876   5.665  12.730 -0.2502  0.4903 -0.7332
13016TIP3    H160463   5.877   5.575  12.764 -2.0586  0.6578 -0.1340
13016TIP3    H260464   5.893   5.720  12.806 -2.1762  0.7675 -0.4593
13017TIP3   OH260465   5.597   3.381   2.309 -0.1463  0.4368  0.3543
13017TIP3    H160466   5.635   3.300   2.276  0.3840  1.1482 -0.8438
13017TIP3    H260467   5.507   3.381   2.276 -0.3480  0.0440  0.8931
13018TIP3   OH260468   5.159   2.178  13.958  0.3792 -0.2055  0.2389
13018TIP3    H160469   5.234   2.119  13.953  0.0913 -0.5008 -0.7843
13018TIP3    H260470   5.183   2.241  14.026  1.3066 -0.6355  0.3261
13019TIP3   OH260471   5.987   3.661  12.433  0.5003  0.4747  0.1037
13019TIP3    H160472   5.997   3.566  12.435  0.7484  0.4686  3.0608
13019TIP3    H260473   5.897   3.675  12.405  0.1257 -0.6762  0.6710
13020TIP3   OH260474   4.170   3.011   5.604 -0.2976  0.4146  0.1662
13020TIP3    H160475   4.079   3.040   5.606 -0.7994 -0.9593 -1.0260
13020TIP3    H260476   4.218   3.085   5.567 -0.9365  1.0932  0.6459
13021TIP3   OH260477   5.485   5.057   0.146  0.5068 -0.5207 -0.6454
13021TIP3    H160478   5.406   5.064   0.092 -0.2463  0.6184  0.5242
13021TIP3    H260479   5.535   5.136   0.125 -0.4617  0.6939  1.2222
13022TIP3   OH260480   5.011   1.948  14.873  0.4420  0.6351 -0.5359
13022TIP3    H160481   4.958   1.877  14.836  0.1105  0.2357  0.6560
13022TIP3    H260482   4.970   2.028  14.839 -1.5406  0.3787  1.0356
13023TIP3   OH260483   6.334   4.912  12.921  0.3949 -0.6340 -0.1791
13023TIP3    H160484   6.297   4.831  12.956 -1.4117  0.9325  1.8366
13023TIP3    H260485   6.407   4.932  12.979  0.6970 -0.6617 -0.5408
13024TIP3   OH260486   2.649   6.013   4.640 -0.0437  0.4690 -0.0136
13024TIP3    H160487   2.682   5.931   4.604  0.3124  0.6918 -0.1911
13024TIP3    H260488   2.721   6.075   4.630  0.6414  0.1782  2.4392
13025TIP3   OH260489   2.334   1.819   0.683  0.3371  0.3549 -0.1806
13025TIP3    H160490   2.379   1.747   0.728  0.4904 -0.5617 -1.7337
13025TIP3    H260491   2.330   1.889   0.748  2.2932 -0.2123  0.6083
13026TIP3   OH260492   1.359   1.120   2.761 -0.1222  0.1305 -0.4778
13026TIP3    H160493   1.316   1.141   2.844  2.4243 -0.7572  1.1773
13026TIP3    H260494   1.419   1.194   2.747  0.4153 -0.3670 -0.8138
13027TIP3   OH260495   1.540   5.475   0.975  0.7531 -0.1154 -0.5114
13027TIP3    H160496   1.583   5.481   1.060  0.0033  0.4652 -0.1608
13027TIP3    H260497   1.586   5.539   0.921  1.0806 -0.3227 -0.4820
13028TIP3   OH260498   5.831   0.409   0.844 -0.1982  0.3487  0.6536
13028TIP3    H160499   5.833   0.313   0.852  1.6168  0.4922  3.8008
13028TIP3    H260500   5.821   0.440   0.934 -3.2549  3.1863 -0.4753
13029TIP3   OH260501   4.267   2.875   5.267  0.2218  0.4051  0.0028
13029TIP3    H160502   4.234   2.847   5.352  0.5526  2.3071  0.8033
13029TIP3    H260503   4.362   2.860   5.272  0.1003 -0.6070 -0.5065
13030TIP3   OH260504   3.815   1.982   0.884 -0.1960  0.2698  0.0810
13030TIP3    H160505   3.825   1.995   0.790 -0.5813 -0.9132 -0.1455
13030TIP3    H260506   3.880   1.915   0.906 -1.8058 -1.3584  0.1361
13031TIP3   OH260507   1.861   5.075   3.442 -0.5441  0.5414 -0.0414
13031TIP3    H160508   1.948   5.042   3.423 -0.1902  0.3553  1.6907
13031TIP3    H260509   1.829   5.018   3.512 -1.7827  1.0199 -0.1904
13032TIP3   OH260510   3.826   0.251   1.787 -0.0238  0.0030  0.1201
13032TIP3    H160511   3.917   0.227   1.805  0.4490  0.8969 -0.9597
13032TIP3    H260512   3.797   0.297   1.866 -0.5484 -2.8285  1.7216
13033TIP3   OH260513   4.776   5.785  16.647 -0.1696  0.2237 -0.0311
13033TIP3    H160514   4.852   5.822  16.602 -0.8635 -0.3087 -1.7371
13033TIP3    H260515   4.810   5.758  16.732  1.4658  0.3367 -0.5998
13034TIP3   OH260516   3.779   3.048  12.456 -0.2866 -0.4205 -0.3349
13034TIP3    H160517   3.756   3.031  12.365  0.5157  0.9122 -0.7969
13034TIP3    H260518   3.874   3.042  12.459 -0.2151  0.7531  0.1543
13035TIP3   OH260519   3.390   2.983   1.300  0.4473 -0.1668 -0.5796
13035TIP3    H160520   3.461   2.924   1.325  1.1514  0.9124  0.0793
13035TIP3    H260521   3.353   2.944   1.221  2.6194 -0.1162 -1.6928
13036TIP3   OH260522   1.079   5.173  14.982  0.2577 -0.3478 -0.3631
13036TIP3    H160523   1.122   5.090  15.001  1.4268  0.0288 -1.2708
13036TIP3    H260524   1.076   5.178  14.887 -1.5990 -0.2328 -0.3377
13037TIP3   OH260525   6.184   5.233   1.872  0.0556 -0.0282 -0.2899
13037TIP3    H160526   6.163   5.195   1.957 -1.0446 -3.0149 -1.7644
13037TIP3    H260527   6.279   5.230   1.866  0.1362  0.1585  0.7669
13038TIP3   OH260528   6.100   0.168  14.634  0.1018 -0.5349  0.3929
13038TIP3    H160529   6.135   0.152  14.546 -1.3559 -2.5742  0.1217
13038TIP3    H260530   6.032   0.235  14.621  1.4431  0.8923  0.3924
13039TIP3   OH260531   1.722   1.838  11.923  0.3287  0.4483 -0.5550
13039TIP3    H160532   1.718   1.761  11.980 -0.2630  0.6746 -0.2825
13039TIP3    H260533   1.790   1.817  11.859  0.6245 -0.0322 -0.0939
13040TIP3   OH260534   1.372   5.198   0.410  0.5895  0.4412  0.4094
13040TIP3    H160535   1.442   5.133   0.422 -0.4403 -0.7195  0.3741
13040TIP3    H260536   1.375   5.252   0.489  1.4332  0.3276  0.4655
13041TIP3   OH260537   6.409   0.876   4.819 -0.3058 -1.0021  0.1885
13041TIP3    H160538   6.348   0.810   4.853 -3.5054  2.2450  1.2612
13041TIP3    H260539   6.384   0.888   4.728 -1.3182  0.3032  0.6164
13042TIP3   OH260540   2.365   4.187   0.426 -0.1446 -0.1899  0.1291
13042TIP3    H160541   2.431   4.256   0.430  1.1334 -1.2074 -1.6649
13042TIP3    H260542   2.287   4.231   0.393  1.1293  0.1888 -2.6790
13043TIP3   OH260543   0.020   5.173   1.755 -0.2634 -0.2294  0.6743
13043TIP3    H160544   0.052   5.083   1.748  3.1824  0.9517 -1.7221
13043TIP3    H260545   0.055   5.205   1.838  0.5133 -0.4375  0.4319
13044TIP3   OH260546   4.287   0.533   2.249  0.5574 -0.4654 -0.3693
13044TIP3    H160547   4.268   0.439   2.239  0.3578 -0.4877  0.1975
13044TIP3    H260548   4.368   0.535   2.300  0.3050 -0.3250  0.0290
13045TIP3   OH260549   2.971   5.712   1.681  0.3457  0.0561  0.2508
13045TIP3    H160550   2.880   5.718   1.710  0.2191  0.7341 -0.2644
13045TIP3    H260551   2.968   5.729   1.587  0.6736 -2.7805 -0.3736
13046TIP3   OH260552   3.758   0.944   2.742 -0.1037 -0.4915  0.4104
13046TIP3    H160553   3.809   0.874   2.782 -0.4596 -0.1779  1.4237
13046TIP3    H260554   3.770   1.019   2.800  0.5831  0.4226 -0.8665
13047TIP3   OH260555   1.952   3.098   1.951  0.2081  0.5210  0.5042
13047TIP3    H160556   1.976   3.030   2.014 -1.0553  0.9833  1.5135
13047TIP3    H260557   1.931   3.051   1.871 -0.6777 -0.2865  1.2016
13048TIP3   OH260558   4.168   5.546   2.645  0.1452  0.0934  0.1897
13048TIP3    H160559   4.190   5.457   2.618  1.0862  0.2009  0.5621
13048TIP3    H260560   4.095   5.571   2.589  0.6472 -0.4798 -0.7383
13049TIP3   OH260561   1.734   2.805   5.002 -0.0030  0.0044  0.0850
13049TIP3    H160562   1.810   2.750   5.021 -0.7149 -0.9416  0.2541
13049TIP3    H260563   1.688   2.759   4.931  0.0819  1.0553 -0.6729
13050TIP3   OH260564   2.031   4.561   6.704  0.3896  0.3388 -0.5487
13050TIP3    H160565   1.977   4.637   6.723 -0.9794 -0.4509 -1.1228
13050TIP3    H260566   2.119   4.585   6.734 -0.4238  1.3745  1.1230
13051TIP3   OH260567   3.629   3.432  15.151  0.5684 -0.0176 -0.0864
13051TIP3    H160568   3.537   3.414  15.131  0.8866 -1.0281 -0.7183
13051TIP3    H260569   3.660   3.352  15.193  1.4561 -0.1639 -0.9748
13052TIP3   OH260570   3.102   6.072  16.089  0.3345 -0.0518  0.4712
13052TIP3    H160571   3.086   6.040  16.177 -0.1704 -0.4775  0.2309
13052TIP3    H260572   3.092   6.167  16.096  0.2151 -0.0909  0.8533
13053TIP3   OH260573   0.260   2.759  12.334  0.2307  0.5478  0.0629
13053TIP3    H160574   0.344   2.749  12.289 -0.5629  0.6336 -1.4874
13053TIP3    H260575   0.269   2.840  12.384  0.7578  1.0566 -0.8409
13054TIP3   OH260576   2.123   2.321   0.329 -0.0114 -0.4311  0.3514
13054TIP3    H160577   2.029   2.318   0.309 -0.0399 -1.2778  0.5656
13054TIP3    H260578   2.165   2.309   0.244 -0.1341 -4.7154  0.6878
13055TIP3   OH260579   4.844   2.541   5.721  0.0401 -0.0934  0.0775
13055TIP3    H160580   4.821   2.554   5.629  0.6067  0.0336 -0.0499
13055TIP3    H260581   4.929   2.583   5.731 -0.0695 -0.0011  0.6920
13056TIP3   OH260582   5.432   4.047  14.628  0.3035  0.2919 -0.0660
13056TIP3    H160583   5.467   4.097  14.555  1.8348 -1.6485 -0.7385
13056TIP3    H260584   5.345   4.019  14.599 -0.4506  2.1829  0.2010
13057TIP3   OH260585   1.704   6.452  16.026  0.6035 -0.8702 -0.2633
13057TIP3    H160586   1.766   6.440  16.099  1.1142  0.1958 -0.4958
13057TIP3    H260587   1.757   6.437  15.948  1.1411  1.8866 -0.5558
13058TIP3   OH260588   0.535   5.267   3.220  0.3050 -0.0663  0.7723
13058TIP3    H160589   0.562   5.177   3.236  2.0826  0.0243 -1.2404
13058TIP3    H260590   0.585   5.319   3.283 -0.3115 -0.4193  1.5667
13059TIP3   OH260591   1.172   2.584  11.425  0.0135 -0.2968 -0.1653
13059TIP3    H160592   1.258   2.542  11.418 -0.8862 -2.2584 -0.1880
13059TIP3    H260593   1.124   2.552  11.348 -1.0104  0.0505  0.3093
13060TIP3   OH260594   5.426   1.898  15.316  0.6703 -0.1882  0.6494
13060TIP3    H160595   5.366   1.824  15.328  0.8232 -0.5397 -0.6561
13060TIP3    H260596   5.383   1.953  15.250  1.9833 -0.6908 -0.6711
13061TIP3   OH260597   4.613   5.664  15.835  0.4301 -0.3339  0.2421
13061TIP3    H160598   4.680   5.733  15.840  0.2070 -0.1058  0.1032
13061TIP3    H260599   4.663   5.583  15.837  0.7308 -0.1649 -0.1259
13062TIP3   OH260600   5.331   2.123   1.051  0.1376 -0.1808 -0.3464
13062TIP3    H160601   5.275   2.100   0.977  0.5531  2.9655 -1.8373
13062TIP3    H260602   5.418   2.132   1.012  0.5444  0.6222  0.7099
13063TIP3   OH260603   1.355   1.180   5.339  0.4311  0.0989 -0.2684
13063TIP3    H160604   1.376   1.094   5.376 -0.2411 -0.0228 -0.1580
13063TIP3    H260605   1.292   1.217   5.400  0.4734  0.5415 -0.4902
13064TIP3   OH260606   5.704   3.193   5.451  0.4960  0.2247 -0.2373
13064TIP3    H160607   5.750   3.255   5.507 -0.2114 -0.9236  1.6871
13064TIP3    H260608   5.769   3.169   5.384  2.2044 -0.1210  1.4445
13065TIP3   OH260609   5.340   5.059  10.679 -0.3983  0.3483 -0.1467
13065TIP3    H160610   5.281   5.025  10.746  0.0703  0.2782  0.2337
13065TIP3    H260611   5.291   5.051  10.598 -1.7857  2.3572  0.4317
13066TIP3   OH260612   3.416   2.059  12.329  0.4762  0.0348  0.0112
13066TIP3    H160613   3.348   2.070  12.264 -0.3624 -1.2249  0.6334
13066TIP3    H260614   3.490   2.110  12.296 -0.1194 -0.1151 -1.6149
13067TIP3   OH260615   1.331   0.452   3.133  0.5155  0.0507 -0.0401
13067TIP3    H160616   1.383   0.532   3.118  0.0362  0.4697  0.5037
13067TIP3    H260617   1.267   0.477   3.199 -0.8443 -0.2516 -1.1963
13068TIP3   OH260618   2.573   3.439  14.751 -0.2031  0.0291 -0.2621
13068TIP3    H160619   2.579   3.439  14.655  1.3493  0.4915 -0.2022
13068TIP3    H260620   2.569   3.532  14.774 -1.2721 -0.0972  0.1066
13069TIP3   OH260621   2.418   1.654  11.932  0.7537  0.9840  0.2316
13069TIP3    H160622   2.449   1.581  11.984 -1.7409  1.2158  2.2322
13069TIP3    H260623   2.383   1.614  11.852  0.3792  0.0744  0.8322
13070TIP3   OH260624   3.462   5.761   6.468 -0.3429 -0.0210  0.7548
13070TIP3    H160625   3.556   5.760   6.455 -0.5711 -0.3782 -1.2184
13070TIP3    H260626   3.449   5.811   6.549  1.4544  0.9593  0.4852
13071TIP3   OH260627   1.836   1.706   3.802  0.1135 -0.3581 -0.0135
13071TIP3    H160628   1.844   1.643   3.731 -0.1066  0.0355 -0.3867
13071TIP3    H260629   1.819   1.790   3.759 -0.3112 -0.1667  0.5123
13072TIP3   OH260630   1.234   5.770  16.300 -0.2921 -0.2279  0.2310
13072TIP3    H160631   1.231   5.864  16.283 -1.9126 -0.4819 -1.1502
13072TIP3    H260632   1.208   5.762  16.392 -2.5496  0.5747 -0.2719
13073TIP3   OH260633   5.803   6.743  15.712 -0.5228  0.0332 -0.4528
13073TIP3    H160634   5.755   6.666  15.739  0.4113 -0.1038  0.9001
13073TIP3    H260635   5.790   6.747  15.617  0.5189 -2.5544 -0.7796
13074TIP3   OH260636   5.890   0.756  13.779  0.7220 -0.4327  0.2006
13074TIP3    H160637   5.909   0.697  13.706  0.9265 -0.5536  0.3504
13074TIP3    H260638   5.940   0.720  13.853 -0.0964 -0.7678  0.6128
13075TIP3   OH260639   1.104   6.547   1.489 -0.0894  0.5039  0.1108
13075TIP3    H160640   1.048   6.474   1.461  1.6130 -0.3120 -1.4272
13075TIP3    H260641   1.046   6.623   1.492 -1.4625 -0.4918 -0.4052
13076TIP3   OH260642   3.088   3.087  16.709  0.1386  0.4698  0.3248
13076TIP3    H160643   3.053   3.046  16.630 -0.6613  1.1331  0.3196
13076TIP3    H260644   3.093   3.180  16.688  0.1015  0.6301  0.9809
13077TIP3   OH260645   5.486   2.013   4.916  0.5004  0.3596 -0.0702
13077TIP3    H160646   5.543   1.956   4.967  1.2388  1.1986  0.0596
13077TIP3    H260647   5.416   2.038   4.976  0.0131 -0.5918 -0.2032
13078TIP3   OH260648   4.253   0.640  14.741  0.5638  0.4835 -0.0704
13078TIP3    H160649   4.241   0.551  14.710  0.1556  0.3989  0.3281
13078TIP3    H260650   4.315   0.632  14.814 -0.0898  0.4185  0.4901
13079TIP3   OH260651   4.789   4.883  13.102 -0.3022 -0.1894 -1.0073
13079TIP3    H160652   4.748   4.871  13.188  0.2615 -0.0464 -0.7091
13079TIP3    H260653   4.766   4.804  13.053 -1.0710 -0.0359 -0.9146
13080TIP3   OH260654   0.566   4.188   4.494 -0.0311 -0.3679  0.0247
13080TIP3    H160655   0.651   4.230   4.483 -0.2458  0.4886  1.3037
13080TIP3    H260656   0.558   4.128   4.420  1.5086 -0.1794 -0.3235
13081TIP3   OH260657   5.270   0.846   4.646 -0.2637 -0.4494  0.1207
13081TIP3    H160658   5.271   0.936   4.677  0.5884  0.0915 -1.3495
13081TIP3    H260659   5.356   0.810   4.671 -1.2404 -1.4677  2.2533
13082TIP3   OH260660   4.624   6.355  11.709  0.6124 -0.4437  0.1380
13082TIP3    H160661   4.719   6.360  11.705  0.7172 -1.6395  0.6262
13082TIP3    H260662   4.594   6.421  11.646  1.7583 -0.3266 -0.3163
13083TIP3   OH260663   4.822   1.094  12.842 -0.7376  0.0782  0.3621
13083TIP3    H160664   4.778   1.145  12.774 -1.4081  0.1618  0.8497
13083TIP3    H260665   4.872   1.029  12.793  0.5638  1.5071 -0.2987
13084TIP3   OH260666   3.407   1.383  11.899  0.4355 -0.4307 -0.2087
13084TIP3    H160667   3.405   1.386  11.803  0.7190  0.1035 -0.2001
13084TIP3    H260668   3.320   1.352  11.923  1.5099 -4.4598 -0.7552
13085TIP3   OH260669   1.339   4.183   2.372  0.9100 -0.6265  0.6920
13085TIP3    H160670   1.390   4.227   2.441  0.4025  1.5402 -0.2358
13085TIP3    H260671   1.272   4.134   2.420 -0.2182  1.8155  1.7926
13086TIP3   OH260672   6.671   4.180   4.351  0.0430  0.7339 -0.7772
13086TIP3    H160673   6.669   4.116   4.280  1.5132  1.3726 -1.4452
13086TIP3    H260674   6.734   4.246   4.321  0.5883  1.1012  1.0534
13087TIP3   OH260675   3.643   3.668   5.271  0.7000  0.5082  0.4602
13087TIP3    H160676   3.669   3.658   5.363 -2.0711 -0.3657  1.2669
13087TIP3    H260677   3.567   3.726   5.275  0.2981  0.1320 -1.2515
13088TIP3   OH260678   4.783   3.189  13.279 -0.4264 -0.4754  0.3122
13088TIP3    H160679   4.828   3.113  13.316  2.5783  0.6623 -0.7389
13088TIP3    H260680   4.735   3.154  13.203  0.0236 -1.4834  0.4779
13089TIP3   OH260681   4.766   2.701   0.984 -0.0169 -0.2622 -0.4206
13089TIP3    H160682   4.770   2.768   0.916 -1.7179 -0.7387 -1.0596
13089TIP3    H260683   4.857   2.675   0.999  0.6774  2.1182 -0.1846
13090TIP3   OH260684   1.394   0.106  14.052 -0.5019  0.6110  0.1223
13090TIP3    H160685   1.352   0.021  14.043 -0.3737  0.3633  1.6484
13090TIP3    H260686   1.409   0.116  14.146  0.7863  1.6907 -0.1637
13091TIP3   OH260687   3.084   1.060   2.621 -0.3315  0.2164 -0.4273
13091TIP3    H160688   3.101   1.085   2.530 -0.8478 -0.8091 -0.8242
13091TIP3    H260689   3.005   1.006   2.616 -1.5785  1.7980  0.8841
13092TIP3   OH260690   1.028   4.964   3.673 -0.1796  0.3271 -0.4679
13092TIP3    H160691   1.025   4.912   3.753 -0.2443  0.5296 -0.3395
13092TIP3    H260692   0.939   4.997   3.663  0.2098  1.6568  0.2684
13093TIP3   OH260693   4.468   2.407  16.730 -0.1782  1.4034  0.7298
13093TIP3    H160694   4.453   2.467  16.803 -0.5280  1.3887  0.6734
13093TIP3    H260695   4.380   2.383  16.701 -0.1221  3.1054 -1.0802
13094TIP3   OH260696   0.820   2.579  14.868  0.0924 -0.3400  0.7918
13094TIP3    H160697   0.828   2.645  14.937  2.1599 -0.0748  0.3698
13094TIP3    H260698   0.855   2.623  14.790 -1.9194 -0.7245 -0.4035
13095TIP3   OH260699   1.791   3.063  13.338 -0.2591  0.1648  0.3998
13095TIP3    H160700   1.819   3.038  13.249 -0.5987  1.8011 -0.2031
13095TIP3    H260701   1.823   2.992  13.394  0.6248 -0.5315 -0.9344
13096TIP3   OH260702   3.767   6.512  15.991  0.3177  0.3362 -0.1943
13096TIP3    H160703   3.809   6.570  15.928 -0.0854 -0.6453 -1.4305
13096TIP3    H260704   3.707   6.459  15.938  1.9500 -2.4609  0.5217
13097TIP3   OH260705   3.365   2.243   6.895  0.3560  0.1899 -0.4044
13097TIP3    H160706   3.436   2.180   6.880  0.0060 -0.1025 -0.8574
13097TIP3    H260707   3.360   2.251   6.990  0.6086 -0.2344 -0.3525
13098TIP3   OH260708   2.761   1.663   3.030  0.0557 -0.3832  0.9608
13098TIP3    H160709   2.783   1.625   2.945 -0.9389 -0.2720  0.6380
13098TIP3    H260710   2.760   1.757   3.014  0.8266 -0.3023  1.3435
13099TIP3   OH260711   4.065   0.875   0.548 -0.1266  0.0022 -0.1626
13099TIP3    H160712   3.985   0.822   0.545  0.0811 -0.4982  1.8294
13099TIP3    H260713   4.036   0.962   0.575  0.1270 -0.5771  2.1171
13100TIP3   OH260714   4.026   0.113  13.486  0.1178 -0.1506  0.0510
13100TIP3    H160715   4.122   0.108  13.487  0.1125 -0.3408 -0.4019
13100TIP3    H260716   4.007   0.201  13.519  0.5562  1.1744 -2.9359
13101TIP3   OH260717   1.581   2.664   4.256  0.0924 -0.5032 -0.2919
13101TIP3    H160718   1.604   2.582   4.213  1.6664 -0.3300  0.1346
13101TIP3    H260719   1.558   2.724   4.185  0.2213 -0.9420 -0.7073
13102TIP3   OH260720   6.176   0.299  11.484 -0.2276 -0.0441 -0.2264
13102TIP3    H160721   6.198   0.224  11.430  1.0727 -0.1022  0.3563
13102TIP3    H260722   6.183   0.374  11.425  0.2643 -0.2013 -0.3759
13103TIP3   OH260723   2.221   3.079   0.971 -0.3794 -0.1182 -0.3519
13103TIP3    H160724   2.208   3.004   0.913 -2.7589 -0.1559  0.1294
13103TIP3    H260725   2.222   3.154   0.912 -1.7684 -0.2363 -0.5513
13104TIP3   OH260726   4.868   4.819  11.859 -0.3071 -0.1357  0.6485
13104TIP3    H160727   4.862   4.731  11.895 -0.3833  0.2804  1.7070
13104TIP3    H260728   4.798   4.824  11.794  1.3965 -1.7210 -1.4387
13105TIP3   OH260729   1.054   2.439   3.518 -0.3850 -0.6514  0.2258
13105TIP3    H160730   1.104   2.481   3.447  0.3108 -0.6811  0.6881
13105TIP3    H260731   1.001   2.373   3.474  0.6985 -1.2742 -0.1771
13106TIP3   OH260732   4.999   5.986   2.266 -0.5165 -0.2596 -0.2717
13106TIP3    H160733   5.085   5.963   2.231 -0.2655  0.6675 -0.2856
13106TIP3    H260734   5.007   5.973   2.360  0.4155  2.1104  0.0291
13107TIP3   OH260735   4.708   5.670   4.648  0.4092 -0.5018  0.0219
13107TIP3    H160736   4.628   5.664   4.596 -0.0143  0.4866  0.5268
13107TIP3    H260737   4.680   5.651   4.738  0.4831  0.9328  0.3878
13108TIP3   OH260738   6.426   4.625   3.405  0.2016 -0.3281  0.4701
13108TIP3    H160739   6.404   4.568   3.332  2.1955  0.3587 -0.7439
13108TIP3    H260740   6.512   4.660   3.383 -1.5375  4.6147  0.1221
13109TIP3   OH260741   1.837   6.303  16.514  0.0468  0.3795  0.3767
13109TIP3    H160742   1.777   6.377  16.526 -0.7402 -0.2211  0.2109
13109TIP3    H260743   1.825   6.277  16.423  0.3609  0.0735  0.4218
13110TIP3   OH260744   5.313   4.454   2.346 -0.0335 -0.1987 -0.2143
13110TIP3    H160745   5.255   4.500   2.285 -0.4069 -1.6616 -1.0056
13110TIP3    H260746   5.349   4.381   2.295  0.3377 -0.9456  1.0656
13111TIP3   OH260747   5.870   6.406  16.223 -0.0736 -0.1186  0.3235
13111TIP3    H160748   5.893   6.441  16.137 -0.6420  0.2286  0.3082
13111TIP3    H260749   5.915   6.322  16.227 -1.7514 -1.1468 -1.1931
13112TIP3   OH260750   4.073   3.446   4.192 -0.5307 -0.2988 -0.1469
13112TIP3    H160751   4.045   3.491   4.113  0.2799  1.8512  0.7300
13112TIP3    H260752   4.147   3.392   4.164 -0.7087 -0.1219 -0.9697
13113TIP3   OH260753   0.531   4.966   4.953 -0.6381 -0.6857 -0.2993
13113TIP3    H160754   0.585   4.924   5.020 -0.7601 -0.1278  0.1576
13113TIP3    H260755   0.561   5.057   4.953  0.3575 -0.9663 -2.0086
13114TIP3   OH260756   0.475   5.684  16.300 -0.0585  0.2945 -0.5185
13114TIP3    H160757   0.431   5.740  16.363  0.2320  0.2586 -0.2816
13114TIP3    H260758   0.466   5.729  16.216 -3.5485 -1.2690 -1.2018
13115TIP3   OH260759   1.929   3.902  13.019  0.2723 -0.0658 -0.0263
13115TIP3    H160760   1.854   3.961  13.031  0.5140  0.3745 -0.6105
13115TIP3    H260761   1.968   3.895  13.106  0.0481  0.3851  0.1169
13116TIP3   OH260762   1.006   4.220  15.727  0.1720 -0.0797  0.1068
13116TIP3    H160763   0.935   4.270  15.769  0.7351  0.7017  0.1509
13116TIP3    H260764   0.973   4.130  15.725 -1.2156  0.4031 -0.6985
13117TIP3   OH260765   3.085   0.140   3.282  0.1045  0.3200 -0.1845
13117TIP3    H160766   3.180   0.149   3.272 -0.1186  0.4078 -3.1223
13117TIP3    H260767   3.051   0.229   3.275 -0.2822  0.1135 -1.1319
13118TIP3   OH260768   5.387   3.627  15.219 -0.0599 -0.4357  0.3780
13118TIP3    H160769   5.470   3.583  15.203  0.0796 -1.4744  3.2764
13118TIP3    H260770   5.392   3.708  15.168  1.0411 -2.2241 -2.5578
13119TIP3   OH260771   1.453   0.022  15.909 -0.6205 -0.2688 -0.2524
13119TIP3    H160772   1.460   0.040  16.003 -0.3450 -1.7853  0.0377
13119TIP3    H260773   1.528   0.067  15.870 -1.2320  1.1177  0.1119
13120TIP3   OH260774   5.607   1.772   5.243 -0.6774 -0.5883 -0.2247
13120TIP3    H160775   5.541   1.827   5.287  0.1381  0.4773 -0.2882
13120TIP3    H260776   5.625   1.701   5.304  0.6868  1.0466  1.3644
13121TIP3   OH260777   1.229   5.387   5.925  0.0561 -0.0434  0.3063
13121TIP3    H160778   1.201   5.347   6.007  1.9490  1.1538  1.6160
13121TIP3    H260779   1.260   5.473   5.950  0.4642  0.4522 -1.7346
13122TIP3   OH260780   4.010   6.358   2.660 -0.1585 -0.5716 -0.0318
13122TIP3    H160781   4.038   6.278   2.704 -0.9288 -0.2831  1.0342
13122TIP3    H260782   4.073   6.424   2.688 -0.7441 -0.3503  0.8181
13123TIP3   OH260783   6.011   2.494  16.409 -0.3693  0.3402 -0.2450
13123TIP3    H160784   5.919   2.475  16.387 -1.2601  1.7665  1.8955
13123TIP3    H260785   6.009   2.581  16.448  2.5794  2.2586 -3.8041
13124TIP3   OH260786   4.738   3.476  12.487 -0.0906 -0.7188  0.0578
13124TIP3    H160787   4.738   3.484  12.392  2.6134 -0.7420 -0.0219
13124TIP3    H260788   4.714   3.385  12.504  0.2517 -0.9429 -0.6547
13125TIP3   OH260789   3.862   2.906   4.950  0.0128  0.4521  0.2087
13125TIP3    H160790   3.933   2.847   4.924  2.8177  2.6904  2.0722
13125TIP3    H260791   3.796   2.849   4.990  0.4602 -1.7905 -1.9844
13126TIP3   OH260792   1.150   0.069  14.572  0.3258  0.3586  0.3665
13126TIP3    H160793   1.066   0.113  14.554 -0.8140 -2.0122 -0.6370
13126TIP3    H260794   1.207   0.138  14.604 -1.5737  2.3745 -0.3219
13127TIP3   OH260795   3.802   1.463   5.415 -0.0587 -0.7562  0.4883
13127TIP3    H160796   3.718   1.429   5.447  0.4665 -1.0372  1.6361
13127TIP3    H260797   3.835   1.516   5.488  0.4163 -0.0358 -0.2390
13128TIP3   OH260798   5.219   1.945  11.843 -0.0113 -0.7609 -0.2332
13128TIP3    H160799   5.204   1.914  11.932 -1.2701 -1.0787 -0.5405
13128TIP3    H260800   5.177   1.880  11.787  0.2769 -0.2763 -1.0296
13129TIP3   OH260801   0.159   6.515   1.444 -0.3038  0.3661  0.5305
13129TIP3    H160802   0.111   6.520   1.526  0.8655 -0.4754  1.3063
13129TIP3    H260803   0.250   6.497   1.470 -0.1267 -1.2392 -0.9438
13130TIP3   OH260804   1.751   6.103   3.689 -0.1761  0.5529 -0.4198
13130TIP3    H160805   1.749   6.008   3.684  1.3087  0.4561  0.0820
13130TIP3    H260806   1.665   6.131   3.660 -0.4318 -0.9157 -1.1903
13131TIP3   OH260807   1.987   0.150  12.525  0.2996 -0.1538 -0.1229
13131TIP3    H160808   2.039   0.104  12.591 -2.2828 -1.9898  0.7745
13131TIP3    H260809   1.896   0.140  12.555 -0.6639  2.6220 -1.7609
13132TIP3   OH260810   3.862   0.285  11.590  0.0758  0.0113 -0.3479
13132TIP3    H160811   3.774   0.307  11.560 -0.1311 -0.3601 -0.0096
13132TIP3    H260812   3.877   0.196  11.558 -0.5726 -0.8197  1.5742
13133TIP3   OH260813   3.929   6.717   1.748  0.0679 -0.0180 -0.8413
13133TIP3    H160814   3.844   6.758   1.733  0.1946  0.2540 -0.8293
13133TIP3    H260815   3.993   6.782   1.718  0.2511 -0.6327 -1.8125
13134TIP3   OH260816   5.677   3.518   4.044  0.8456  0.2553 -0.5877
13134TIP3    H160817   5.584   3.534   4.028  0.3854 -1.8434 -0.2981
13134TIP3    H260818   5.706   3.465   3.970  2.1503  1.8214 -1.2713
13135TIP3   OH260819   5.043   2.077   4.969 -0.2412 -0.3895  0.5586
13135TIP3    H160820   5.038   2.069   4.873 -0.6477 -1.9914  0.6846
13135TIP3    H260821   4.960   2.039   5.000  0.8311 -1.9644  1.6263
13136TIP3   OH260822   3.308   1.102   1.252 -0.3681 -0.1184 -0.1040
13136TIP3    H160823   3.226   1.136   1.288 -0.0094  0.4686  0.1769
13136TIP3    H260824   3.292   1.009   1.239 -1.9491  0.4020 -2.4643
13137TIP3   OH260825   5.968   1.717   2.958 -0.3970 -0.5537 -0.3179
13137TIP3    H160826   5.885   1.739   3.001 -1.5337 -1.7316 -1.8080
13137TIP3    H260827   5.999   1.639   3.004  0.2460  0.2501  0.6547
13138TIP3   OH260828   5.159   0.520   5.451 -0.1995  0.0576 -0.0747
13138TIP3    H160829   5.166   0.425   5.458 -1.3653 -0.0963 -0.7921
13138TIP3    H260830   5.174   0.552   5.541 -2.4807 -1.0057  0.7716
13139TIP3   OH260831   6.103   0.810  12.047  0.0200 -0.1547 -0.3181
13139TIP3    H160832   6.121   0.890  11.999 -0.2443  0.1213  0.0371
13139TIP3    H260833   6.110   0.740  11.982  0.5279  0.1258 -0.5688
13140TIP3   OH260834   6.063   0.634  14.747 -0.4014  0.3880  0.1078
13140TIP3    H160835   6.157   0.618  14.757 -0.8148 -1.2299  1.9080
13140TIP3    H260836   6.029   0.631  14.836 -2.4446 -1.0576 -0.6613
13141TIP3   OH260837   4.264   6.511   4.799  0.3622 -0.6052 -0.5870
13141TIP3    H160838   4.255   6.564   4.720 -0.0103  0.5207  0.1944
13141TIP3    H260839   4.174   6.485   4.820  0.3773 -0.2652 -0.1051
13142TIP3   OH260840   0.965   2.611   4.892 -0.2869 -0.7129  0.2426
13142TIP3    H160841   0.887   2.663   4.910  0.0310 -0.0902 -0.1284
13142TIP3    H260842   1.034   2.676   4.879 -0.0634 -1.1920 -1.0840
13143TIP3   OH260843   0.969   3.936   5.010  0.0558  0.1781 -0.1901
13143TIP3    H160844   0.912   3.876   4.962 -0.4250  0.9416 -0.5929
13143TIP3    H260845   1.033   3.879   5.053  0.0234 -0.5735 -1.1071
13144TIP3   OH260846   4.697   1.950  13.520 -0.2676  0.6206  0.0109
13144TIP3    H160847   4.782   1.992  13.536 -1.1126  2.7766 -0.8125
13144TIP3    H260848   4.651   1.957  13.604 -0.0001  0.2947  0.1901
13145TIP3   OH260849   6.754   4.598  13.271 -0.5048 -0.3009  0.1128
13145TIP3    H160850   6.725   4.555  13.191 -0.1672  1.9759 -1.3291
13145TIP3    H260851   6.847   4.574  13.279 -0.4702 -0.3324 -0.3560
13146TIP3   OH260852   2.810   3.718  12.811  0.5116 -0.1176  0.4839
13146TIP3    H160853   2.900   3.717  12.780  0.2322 -0.5207 -0.3466
13146TIP3    H260854   2.775   3.632  12.787 -0.2776  0.2614  0.2361
13147TIP3   OH260855   4.300   6.639  14.547 -0.0050  0.4601 -0.1295
13147TIP3    H160856   4.331   6.711  14.493  1.5866  0.0149  0.1534
13147TIP3    H260857   4.373   6.578  14.551 -0.0107  0.4836  2.5791
13148TIP3   OH260858   2.439   3.394  14.005 -0.2231  0.2411 -1.2506
13148TIP3    H160859   2.398   3.460  14.061  1.1532 -1.3783  1.9405
13148TIP3    H260860   2.367   3.355  13.956 -2.0954 -0.2496  1.6696
13149TIP3   OH260861   2.586   4.501   4.567  0.3760  0.1285 -0.0569
13149TIP3    H160862   2.651   4.529   4.503 -0.6789  0.5417 -0.9826
13149TIP3    H260863   2.622   4.529   4.651  1.3037  0.4969 -0.5579
13150TIP3   OH260864   1.015   3.879   3.183  0.4175 -0.7919 -0.1415
13150TIP3    H160865   0.977   3.959   3.220  1.1907 -0.9410  1.0361
13150TIP3    H260866   1.053   3.908   3.100 -2.4047 -0.6952 -1.5129
13151TIP3   OH260867   4.604   5.747   2.164 -0.3069 -0.2064  0.1813
13151TIP3    H160868   4.700   5.750   2.165 -0.2884 -0.6753  1.5259
13151TIP3    H260869   4.577   5.837   2.181 -0.1533  0.3272 -2.0871
13152TIP3   OH260870   6.746   1.979   3.448 -0.5534  0.0533  0.0971
13152TIP3    H160871   6.708   2.015   3.528 -0.7101 -0.2254  0.1471
13152TIP3    H260872   6.840   1.993   3.459 -0.5192 -0.5151  0.5972
13153TIP3   OH260873   1.152   6.534   5.272  0.8600 -0.0440 -0.5143
13153TIP3    H160874   1.098   6.462   5.303  1.1239  0.2129  0.5707
13153TIP3    H260875   1.145   6.601   5.340 -0.5350  1.5686 -2.1286
13154TIP3   OH260876   0.436   4.459  14.255  1.0874  0.4148  0.1692
13154TIP3    H160877   0.464   4.447  14.164 -1.0344 -0.8842 -0.3769
13154TIP3    H260878   0.490   4.398  14.305 -0.0008 -1.3290 -0.7089
13155TIP3   OH260879   2.919   0.091   0.878  0.3296  0.5915  0.0754
13155TIP3    H160880   2.863   0.122   0.948  1.3185  1.4483  0.5072
13155TIP3    H260881   2.967   0.018   0.917 -0.5425 -0.2217 -0.3307
13156TIP3   OH260882   3.329   6.166   2.214  0.2625 -0.0456 -0.0424
13156TIP3    H160883   3.319   6.148   2.308 -2.0125 -0.6105 -0.3172
13156TIP3    H260884   3.313   6.260   2.206 -1.9263 -0.3576 -0.0476
13157TIP3   OH260885   2.557   3.695  13.661  0.5713  0.1855  0.0106
13157TIP3    H160886   2.503   3.619  13.639  1.1538 -0.3424  0.3797
13157TIP3    H260887   2.586   3.679  13.750 -3.1806  3.1096  2.0217
13158TIP3   OH260888   4.203   6.041   4.786 -0.6644 -0.4077  0.1424
13158TIP3    H160889   4.270   6.098   4.824 -1.1509  0.2867 -0.0243
13158TIP3    H260890   4.139   6.030   4.856 -0.5455 -0.8074  0.1934
13159TIP3   OH260891   5.280   4.003   1.339 -0.0415 -0.0263 -0.2282
13159TIP3    H160892   5.276   3.922   1.288 -2.8187  0.9112 -1.6933
13159TIP3    H260893   5.199   4.003   1.390 -1.0794  2.5725 -1.6578
13160TIP3   OH260894   0.983   3.267  15.153 -0.2255  0.0728 -0.4887
13160TIP3    H160895   1.032   3.298  15.228 -0.0862  0.3168 -0.6803
13160TIP3    H260896   0.975   3.343  15.096  0.5365 -0.3515 -1.1867
13161TIP3   OH260897   0.972   3.394   4.382  0.2457  0.0068  0.5949
13161TIP3    H160898   0.925   3.376   4.463  0.4685  1.7572  1.1542
13161TIP3    H260899   1.056   3.351   4.393 -0.2051 -0.8493  0.7401
13162TIP3   OH260900   4.847   3.783  16.510  0.0309  0.6789  0.7308
13162TIP3    H160901   4.798   3.703  16.527  2.0972 -0.8995 -0.3355
13162TIP3    H260902   4.798   3.828  16.441  0.8088 -1.6607 -1.4990
13163TIP3   OH260903   3.367   1.300  14.717 -0.3653  0.2546  0.0281
13163TIP3    H160904   3.429   1.245  14.669 -1.6738 -2.1599  0.9190
13163TIP3    H260905   3.337   1.245  14.790 -1.5677  2.2840  1.1734
13164TIP3   OH260906   1.516   6.506   1.219 -0.5263  0.1348 -0.4168
13164TIP3    H160907   1.460   6.468   1.151 -1.1812  0.3093  0.0196
13164TIP3    H260908   1.469   6.584   1.248 -1.8868 -1.5802  2.4365
13165TIP3   OH260909   1.623   6.336  16.790 -0.0799  0.5594 -0.0694
13165TIP3    H160910   1.691   6.279  16.756  1.5627  1.9623  0.7247
13165TIP3    H260911   1.661   6.375  16.869 -1.8278  1.3481  0.4331
13166TIP3   OH260912   0.849   5.296  16.715  0.6442 -0.6336  0.1630
13166TIP3    H160913   0.829   5.203  16.707 -1.4380 -0.0875 -3.8000
13166TIP3    H260914   0.928   5.308  16.661  0.0206  0.0531 -0.6278
13167TIP3   OH260915   6.449   5.239  15.382  0.2172  0.0850  0.8977
13167TIP3    H160916   6.362   5.199  15.382 -0.0024  0.5511  0.4199
13167TIP3    H260917   6.446   5.306  15.450  0.3146 -0.1385  1.1217
13168TIP3   OH260918   0.979   2.536   6.555 -0.3224  0.4566 -0.3430
13168TIP3    H160919   1.029   2.462   6.588 -0.2315  0.6271 -0.0928
13168TIP3    H260920   0.964   2.591   6.632 -1.6259 -0.0033 -0.2403
13169TIP3   OH260921   1.386   0.016   1.090  0.4585 -0.3246 -0.0149
13169TIP3    H160922   1.317  -0.005   1.153  0.4420  0.7584  0.3562
13169TIP3    H260923   1.433   0.090   1.131  0.1395  0.7300 -1.4898
13170TIP3   OH260924   4.687   1.985  15.496 -0.3950  0.0071  0.0858
13170TIP3    H160925   4.683   2.017  15.586 -1.3000  0.3389 -0.0645
13170TIP3    H260926   4.779   1.963  15.483 -0.2051  0.2026  1.0042
13171TIP3   OH260927   4.273   5.331   4.053  0.3365 -0.1360  0.2733
13171TIP3    H160928   4.220   5.391   4.105  0.6102 -0.3450  0.7953
13171TIP3    H260929   4.266   5.247   4.097  1.6897 -0.0113  0.7751
13172TIP3   OH260930   3.701   3.638  16.793  0.3576  0.8942 -0.0608
13172TIP3    H160931   3.703   3.697  16.718 -0.3587  1.3806  0.2817
13172TIP3    H260932   3.758   3.565  16.769  0.0473  0.9856 -1.1212
13173TIP3   OH260933   5.853   0.630  11.691 -0.1827 -0.3931 -0.0907
13173TIP3    H160934   5.839   0.715  11.650  2.2852 -0.2625 -0.8043
13173TIP3    H260935   5.875   0.571  11.619 -1.0766 -1.4750  0.4830
13174TIP3   OH260936   1.466   4.637  16.639 -0.5239 -0.3661  0.1595
13174TIP3    H160937   1.423   4.624  16.723  1.6194  1.1126  1.5808
13174TIP3    H260938   1.517   4.717  16.650 -0.9905  0.5109 -2.9294
13175TIP3   OH260939   1.325   1.592  17.011  0.0960  0.3189 -0.0551
13175TIP3    H160940   1.341   1.511  17.060 -0.9523  0.4406  0.5294
13175TIP3    H260941   1.319   1.564  16.920 -4.1173 -0.9979  0.3879
13176TIP3   OH260942   6.593   4.923  16.519 -0.4912  0.9213 -0.3037
13176TIP3    H160943   6.673   4.915  16.570  0.6024  1.9240 -1.8000
13176TIP3    H260944   6.523   4.902  16.581  0.8036  1.5535  1.4437
13177TIP3   OH260945   0.544   6.116  16.074 -0.2141 -0.1566 -0.3065
13177TIP3    H160946   0.609   6.047  16.092  0.6690  0.7595  0.1156
13177TIP3    H260947   0.594   6.183  16.028 -0.1458  1.8060  2.3878
13178TIP3   OH260948   1.859   6.491  13.672  0.1847 -0.3485  0.3808
13178TIP3    H160949   1.807   6.537  13.606 -1.9786 -1.1391  1.4406
13178TIP3    H260950   1.813   6.509  13.755  2.1394 -0.3553  1.5277
13179TIP3   OH260951   2.063   2.938   3.499 -0.1558 -0.4751 -0.1139
13179TIP3    H160952   2.141   2.907   3.454  0.0108  2.4207 -2.0554
13179TIP3    H260953   2.078   3.031   3.514 -2.0349 -0.4194  2.2023
13180TIP3   OH260954   2.224   0.245   4.871  0.1548  0.4460  0.0665
13180TIP3    H160955   2.241   0.160   4.914 -0.3270 -0.2048 -0.9991
13180TIP3    H260956   2.252   0.310   4.936  0.4899 -0.5223  0.9273
13181TIP3   OH260957   3.341   4.145  14.464  0.6985 -0.4085 -0.0474
13181TIP3    H160958   3.383   4.085  14.526  1.1233  0.7824  0.8588
13181TIP3    H260959   3.341   4.229  14.509 -2.0057 -0.1850 -0.3357
13182TIP3   OH260960   1.910   5.396  17.026 -0.3269 -0.7478  0.2210
13182TIP3    H160961   1.915   5.311  16.984 -1.5770 -0.0652 -1.4107
13182TIP3    H260962   1.819   5.423  17.015 -0.4844 -0.0719  2.5320
13183TIP3   OH260963   4.770   5.097  11.535 -0.2397 -0.0018 -0.2643
13183TIP3    H160964   4.747   5.011  11.572 -1.6993  0.4291 -0.1219
13183TIP3    H260965   4.723   5.101  11.452  0.4105  0.3810 -0.6215
13184TIP3   OH260966   2.736   0.661  13.699 -0.0789 -0.8784 -0.3848
13184TIP3    H160967   2.666   0.609  13.738  0.6248 -1.7332 -0.2178
13184TIP3    H260968   2.722   0.749  13.733 -2.7280 -0.3419 -2.5254
13185TIP3   OH260969   0.283   5.252   6.388  0.0523  0.4545 -0.1350
13185TIP3    H160970   0.267   5.186   6.455  0.5233  1.0979  0.6317
13185TIP3    H260971   0.212   5.315   6.399  0.0108  0.4535 -0.3871
13186TIP3   OH260972   2.018   1.751  11.106 -0.3123  0.5211 -0.4587
13186TIP3    H160973   1.953   1.714  11.166 -1.0088  1.7220 -0.4225
13186TIP3    H260974   1.990   1.722  11.019 -1.9122  2.3408 -0.6176
13187TIP3   OH260975   3.680   2.743   5.072  0.0830 -0.0142  0.4099
13187TIP3    H160976   3.592   2.725   5.039 -0.3104 -0.0795  1.4630
13187TIP3    H260977   3.689   2.686   5.149  0.1353  1.7035  1.7272
13188TIP3   OH260978   2.511   3.627  11.581 -0.1570 -0.3897 -0.3045
13188TIP3    H160979   2.442   3.688  11.555 -1.4847 -0.2849  2.9485
13188TIP3    H260980   2.593   3.674  11.563 -0.9907  0.5008 -1.9650
13189TIP3   OH260981   5.973   0.591   2.438 -0.3089 -0.4127  0.4689
13189TIP3    H160982   5.945   0.506   2.405  1.2608 -1.0887  0.8254
13189TIP3    H260983   5.892   0.641   2.446 -0.9788 -0.8805 -2.4621
13190TIP3   OH260984   1.369   5.693  14.799 -0.1044  0.0049  0.2053
13190TIP3    H160985   1.414   5.616  14.834  1.0021  0.5318 -0.0023
13190TIP3    H260986   1.432   5.765  14.811 -0.0785  0.3973 -1.9241
13191TIP3   OH260987   1.661   0.068   4.323  0.2038 -0.4060  0.1476
13191TIP3    H160988   1.627  -0.017   4.295  1.2922 -0.4838 -1.0720
13191TIP3    H260989   1.686   0.112   4.241 -1.1318  1.4615  0.6792
13192TIP3   OH260990   5.874   5.921   4.553 -0.1664 -0.1350  0.7472
13192TIP3    H160991   5.967   5.910   4.569 -0.0949 -2.3051 -0.7152
13192TIP3    H260992   5.836   5.836   4.574 -1.2824 -0.3603 -1.8391
13193TIP3   OH260993   3.368   6.732   2.118  0.7749 -0.1590  0.2995
13193TIP3    H160994   3.291   6.748   2.173 -0.3748 -3.4075 -0.1543
13193TIP3    H260995   3.438   6.783   2.159 -0.7179 -0.1486  3.0456
13194TIP3   OH260996   2.578   1.409  15.557  0.1558  0.7477 -0.3722
13194TIP3    H160997   2.565   1.335  15.498 -0.1745  1.4224 -1.1728
13194TIP3    H260998   2.600   1.369  15.641 -1.2461 -0.2879 -0.4657
13195TIP3   OH260999   1.555   1.767   6.552 -0.3343  0.2268  0.0382
13195TIP3    H161000   1.572   1.738   6.642 -0.3690  0.2780  0.0613
13195TIP3    H261001   1.484   1.830   6.560 -0.3669  0.1992 -0.0297
13196TIP3   OH261002   0.804   0.978   1.708 -0.4270 -0.7087  0.4124
13196TIP3    H161003   0.774   0.895   1.745 -0.1050 -1.8032 -1.6391
13196TIP3    H261004   0.836   1.028   1.784 -2.3301 -1.6572  1.9546
13197TIP3   OH261005   3.851   4.490  11.763  0.5938  0.4921  0.7903
13197TIP3    H161006   3.801   4.531  11.693 -0.6037 -0.5847  0.9819
13197TIP3    H261007   3.791   4.487  11.837  1.5590  0.8357  1.6155
13198TIP3   OH261008   1.744   0.084  13.840 -1.0056 -0.2875 -0.1038
13198TIP3    H161009   1.695   0.152  13.887  0.7097  0.4282  0.7892
13198TIP3    H261010   1.836   0.106  13.857 -0.3763 -2.0354 -0.9927
13199TIP3   OH261011   6.032   6.481   4.999 -0.1583 -0.4345  0.6854
13199TIP3    H161012   6.124   6.506   4.993 -0.1685 -0.7981 -1.6612
13199TIP3    H261013   6.008   6.503   5.089  2.2576 -0.5233  1.4340
13200TIP3   OH261014   4.058   4.806   3.637  0.8466  0.1613 -0.0366
13200TIP3    H161015   4.007   4.869   3.587  0.8170 -0.2975 -0.5952
13200TIP3    H261016   4.125   4.775   3.576  1.6717  0.6031  0.6297
13201TIP3   OH261017   6.702   3.230  14.254  0.1644  0.3351  0.1485
13201TIP3    H161018   6.679   3.156  14.310 -3.6199  2.1411  1.3081
13201TIP3    H261019   6.631   3.234  14.189 -0.2519  3.3553  0.6659
13202TIP3   OH261020   1.047   4.620  12.073 -0.0345 -0.2091 -0.0777
13202TIP3    H161021   1.026   4.562  12.000 -1.3509 -0.5429  0.5401
13202TIP3    H261022   1.067   4.704  12.032  2.1544 -1.0987 -1.0162
13203TIP3   OH261023   5.025   4.346   1.952 -0.1026 -0.1292 -0.1852
13203TIP3    H161024   4.965   4.363   1.879  0.9650 -0.7327 -1.2313
13203TIP3    H261025   5.109   4.329   1.910  1.5650  3.3977  1.2758
13204TIP3   OH261026   6.627   0.608   2.889  0.0219 -0.2335  0.4852
13204TIP3    H161027   6.697   0.666   2.860  0.1204 -0.8485 -0.5413
13204TIP3    H261028   6.659   0.571   2.971  1.1899 -1.0157 -0.3013
13205TIP3   OH261029   1.548   4.566  16.381  0.2495  0.2269  0.0955
13205TIP3    H161030   1.527   4.567  16.474 -0.1590  0.6189  0.0021
13205TIP3    H261031   1.626   4.622  16.374  0.2218  0.2770  0.1887
13206TIP3   OH261032   1.935   1.511   0.958 -0.4220  0.7320  0.0805
13206TIP3    H161033   1.903   1.426   0.989  0.2737  0.0578 -0.9662
13206TIP3    H261034   1.944   1.500   0.863 -0.5313  2.0540 -0.1006
13207TIP3   OH261035   1.740   4.162   0.279 -0.0004  0.3695  0.4018
13207TIP3    H161036   1.819   4.213   0.261 -0.8744  1.6927  0.1567
13207TIP3    H261037   1.688   4.171   0.199  0.4219 -2.1523 -0.2338
13208TIP3   OH261038   0.839   1.569   4.524  0.1313  0.2174  0.0275
13208TIP3    H161039   0.781   1.634   4.486  0.9847  2.0589  1.7059
13208TIP3    H261040   0.918   1.572   4.469 -0.2887 -0.3346 -0.6288
13209TIP3   OH261041   3.424   2.972  12.215 -0.2621  0.1410 -0.1761
13209TIP3    H161042   3.428   2.883  12.252  0.0093 -0.4086 -1.4625
13209TIP3    H261043   3.342   2.974  12.167  0.0378  0.3595 -0.6844
13210TIP3   OH261044   0.038   3.460  16.153  0.1711  0.3634 -0.3973
13210TIP3    H161045   0.008   3.471  16.244 -0.3311 -1.1237 -0.3599
13210TIP3    H261046  -0.036   3.420  16.108  1.1485 -0.9238 -0.9388
13211TIP3   OH261047   6.606   2.426  15.778 -0.6160 -0.0450  0.3888
13211TIP3    H161048   6.608   2.486  15.852  1.6197  1.3468 -0.6929
13211TIP3    H261049   6.678   2.365  15.794  1.9801  2.1271 -1.9353
13212TIP3   OH261050   3.276   0.489  13.471 -0.2990  0.1465 -0.0072
13212TIP3    H161051   3.355   0.516  13.425 -0.0031  1.3878  1.1734
13212TIP3    H261052   3.307   0.436  13.544 -0.8033 -2.3547 -1.4938
13213TIP3   OH261053   0.745   2.609   6.013 -0.0381 -0.1399 -0.1548
13213TIP3    H161054   0.813   2.547   5.984  2.1886  0.4951  3.2304
13213TIP3    H261055   0.737   2.670   5.940  1.8825 -1.1683 -1.3276
13214TIP3   OH261056   1.137   2.540   5.990 -0.6849 -0.2863 -0.0135
13214TIP3    H161057   1.220   2.548   5.944  1.5030 -1.5792  3.3673
13214TIP3    H261058   1.091   2.469   5.944  2.4138 -3.1839  0.9739
13215TIP3   OH261059   2.678   5.869   3.503  0.5545  0.6638  0.2231
13215TIP3    H161060   2.761   5.823   3.498 -0.1819 -0.5981 -1.2459
13215TIP3    H261061   2.616   5.813   3.455 -0.5877  2.7393 -0.8999
13216TIP3   OH261062   5.939   4.137  10.803  0.2443 -0.0367  0.1119
13216TIP3    H161063   5.968   4.082  10.877 -0.3445 -1.7810 -0.8883
13216TIP3    H261064   5.849   4.160  10.824  0.2481 -0.0912  0.1888
13217TIP3   OH261065   4.141   3.607   4.828 -0.3185 -0.6591  0.2346
13217TIP3    H161066   4.062   3.655   4.803  0.6508  0.6647 -0.4337
13217TIP3    H261067   4.109   3.526   4.868 -1.9815 -1.5348 -2.6294
13218TIP3   OH261068   3.312   4.956   0.394  0.0709 -0.1093 -0.1904
13218TIP3    H161069   3.404   4.949   0.417 -0.1252 -1.1628  0.3440
13218TIP3    H261070   3.298   5.049   0.377  2.0762 -0.2977 -3.9188
13219TIP3   OH261071   2.727   4.858  13.818  0.5343  0.1377  0.2761
13219TIP3    H161072   2.694   4.863  13.728 -0.3053  1.4954  0.6170
13219TIP3    H261073   2.651   4.878  13.872  0.3898 -3.1271  1.4767
13220TIP3   OH261074   3.307   2.214  15.138  0.2246 -0.1783  0.6113
13220TIP3    H161075   3.315   2.154  15.063 -1.6970 -0.4050  0.5359
13220TIP3    H261076   3.269   2.160  15.207  1.0063  0.2980  1.4294
13221TIP3   OH261077   3.277   3.221   3.736 -0.0184  0.2792  0.1901
13221TIP3    H161078   3.237   3.191   3.818  1.5724 -0.9126  0.5743
13221TIP3    H261079   3.253   3.155   3.672  3.5087 -2.0892  1.0413
13222TIP3   OH261080   0.043   4.089  15.180  0.6903 -0.0592  0.4650
13222TIP3    H161081   0.125   4.063  15.138  0.5846 -0.5356  0.5536
13222TIP3    H261082  -0.025   4.051  15.125  0.4691  1.5575 -0.4525
13223TIP3   OH261083   4.142   4.373  12.274  0.1577  0.3523 -0.0829
13223TIP3    H161084   4.110   4.352  12.362 -0.5995  0.8779 -0.2237
13223TIP3    H261085   4.100   4.456  12.252  0.3718  0.2476 -0.9290
13224TIP3   OH261086   2.883   1.656   0.624 -0.1023 -0.1283 -0.1120
13224TIP3    H161087   2.898   1.657   0.530  0.0953  2.3290 -0.1084
13224TIP3    H261088   2.835   1.736   0.642  2.1812  0.8883  2.1926
13225TIP3   OH261089   2.007   1.196   5.463 -0.6428  0.2557 -0.0358
13225TIP3    H161090   2.042   1.240   5.386  0.2437  0.3544  0.4148
13225TIP3    H261091   2.009   1.103   5.441 -0.7569  0.3101 -0.2769
13226TIP3   OH261092   2.494   4.898  12.469  0.5526  0.3270 -0.5509
13226TIP3    H161093   2.456   4.842  12.537 -2.8204  0.4191 -2.1496
13226TIP3    H261094   2.537   4.837  12.408  0.8452 -0.0504  0.0308
13227TIP3   OH261095   3.941   2.629   5.625  0.1130  0.6181 -0.6472
13227TIP3    H161096   3.943   2.626   5.529 -0.3066 -1.5078 -0.6342
13227TIP3    H261097   3.855   2.594   5.648  0.6770 -0.0402  0.5267
13228TIP3   OH261098   1.707   1.612  13.597  0.2462 -0.0678 -0.1703
13228TIP3    H161099   1.790   1.611  13.646  0.1940 -1.9603 -0.0711
13228TIP3    H261100   1.675   1.523  13.602 -1.2324  0.3699 -1.2290
13229TIP3   OH261101   6.479   5.453   5.628 -0.3013  0.5195 -0.2940
13229TIP3    H161102   6.399   5.502   5.645  1.1789  3.3556 -0.8747
13229TIP3    H261103   6.549   5.517   5.640  1.8416 -1.6321 -0.6271
13230TIP3   OH261104   2.567   1.352  13.487  0.0659 -0.2464  0.3963
13230TIP3    H161105   2.661   1.367  13.490 -0.1931  2.4488 -1.3341
13230TIP3    H261106   2.547   1.338  13.394 -1.2061 -1.1256  0.7722
13231TIP3   OH261107   4.202   3.302  13.141  0.0900 -0.4813  0.1043
13231TIP3    H161108   4.152   3.226  13.110 -0.8359  0.6896 -1.3936
13231TIP3    H261109   4.149   3.338  13.212  0.4201 -1.0925  0.6684
13232TIP3   OH261110   5.240   6.269  15.058  0.0272  0.0472  0.2556
13232TIP3    H161111   5.277   6.341  15.007  2.3971 -0.3648  1.2433
13232TIP3    H261112   5.242   6.194  14.999 -0.5574  0.3282 -0.1318
13233TIP3   OH261113   4.125   6.482   4.478  0.2207  0.1389 -0.4084
13233TIP3    H161114   4.114   6.505   4.386  1.0745 -0.1278 -0.5851
13233TIP3    H261115   4.140   6.566   4.522 -0.6274  0.3113 -0.4397
13234TIP3   OH261116   2.076   0.472  14.443  0.0491 -0.6152  0.7438
13234TIP3    H161117   2.028   0.420  14.378  0.6306  1.6826 -1.6707
13234TIP3    H261118   2.167   0.441  14.436 -0.0377 -1.0092  1.2137
13235TIP3   OH261119   0.439   1.966   3.698 -0.1135  0.4415  0.0669
13235TIP3    H161120   0.500   1.928   3.634  0.2589  3.6340 -1.6729
13235TIP3    H261121   0.354   1.933   3.671  0.2872  0.0400 -0.7777
13236TIP3   OH261122   6.481   3.641  11.762 -0.7559  0.6393 -0.6979
13236TIP3    H161123   6.566   3.601  11.782 -1.3078 -1.5353 -2.3952
13236TIP3    H261124   6.417   3.581  11.799 -1.6145  1.0888 -1.4251
13237TIP3   OH261125   0.840   5.706  16.754 -0.2566  0.0145  0.1932
13237TIP3    H161126   0.836   5.768  16.827 -0.4553 -1.3185  1.3767
13237TIP3    H261127   0.917   5.733  16.704 -0.3840  1.2489  0.6180
13238TIP3   OH261128   3.372   2.130   5.429 -0.3478 -0.0840 -0.1703
13238TIP3    H161129   3.454   2.134   5.379 -1.6270  0.2468 -2.3670
13238TIP3    H261130   3.342   2.040   5.418 -0.3955 -0.1471  0.4544
13239TIP3   OH261131   3.791   4.481   2.959 -0.6291  0.3448 -0.4259
13239TIP3    H161132   3.732   4.530   3.016 -1.6807  0.4811 -1.5974
13239TIP3    H261133   3.795   4.532   2.879  0.1619 -0.2829 -0.8039
13240TIP3   OH261134   5.845   6.039   5.461  0.6535 -0.6634  0.3120
13240TIP3    H161135   5.756   6.060   5.490  0.7276  0.3101 -0.1423
13240TIP3    H261136   5.877   6.120   5.421  1.8131 -0.9590  0.6299
13241TIP3   OH261137   6.661   0.043  11.267  0.2261 -0.5080 -0.3309
13241TIP3    H161138   6.664   0.045  11.171 -1.6906  1.2007 -0.4049
13241TIP3    H261139   6.703   0.124  11.294 -0.6068 -0.2382  0.1970
13242TIP3   OH261140   6.131   1.867   5.621 -0.4132  0.7582 -0.0650
13242TIP3    H161141   6.166   1.940   5.671  3.5355 -1.3075  0.6626
13242TIP3    H261142   6.120   1.902   5.532  1.9950  2.1522  0.0938
13243TIP3   OH261143   2.825   2.454  14.171  0.0334  0.7644 -0.0087
13243TIP3    H161144   2.753   2.431  14.112 -0.3853  3.0267 -0.5084
13243TIP3    H261145   2.803   2.412  14.254  0.7293 -2.6810 -1.3984
13244TIP3   OH261146   6.161   3.508   5.495  0.0861 -0.1735 -0.2011
13244TIP3    H161147   6.181   3.421   5.528  2.4446  0.6500  0.7919
13244TIP3    H261148   6.139   3.559   5.573  0.0180  0.4178 -0.6006
13245TIP3   OH261149   5.898   1.418   5.372 -0.2260 -0.4306 -0.2933
13245TIP3    H161150   5.943   1.450   5.450  1.7147 -0.8411 -1.1894
13245TIP3    H261151   5.859   1.335   5.399  1.0354 -0.9216  0.0746
13246TIP3   OH261152   3.408   5.878  16.732 -0.1705  0.4446  0.0414
13246TIP3    H161153   3.373   5.846  16.814 -1.9028 -0.9054 -1.1650
13246TIP3    H261154   3.332   5.892  16.676  0.9809  0.6427 -1.5737
13247TIP3   OH261155   0.293   2.227  13.730  0.2313  0.3592 -0.1648
13247TIP3    H161156   0.315   2.292  13.797  1.9340  0.5869 -0.8898
13247TIP3    H261157   0.376   2.184  13.711 -0.5252 -0.7590 -1.0302
13248TIP3   OH261158   0.993   2.101  16.479  0.3721  0.7753 -0.1279
13248TIP3    H161159   0.955   2.174  16.527 -2.0625  0.9869 -2.1600
13248TIP3    H261160   0.991   2.028  16.541  0.0314  1.7133  0.9928
13249TIP3   OH261161   5.639   3.968   1.175 -0.1636  0.0229  0.1761
13249TIP3    H161162   5.628   4.062   1.164 -0.5853 -0.0713 -0.2788
13249TIP3    H261163   5.568   3.943   1.234 -0.7654 -0.1774 -0.6145
13250TIP3   OH261164   1.500   2.740  16.076 -0.0476 -0.1401 -0.1951
13250TIP3    H161165   1.427   2.699  16.123 -0.6495  2.4778  1.3536
13250TIP3    H261166   1.569   2.749  16.141  0.7547 -0.3950 -1.0002
13251TIP3   OH261167   0.063   0.155   1.546  0.9996  0.0838 -0.2491
13251TIP3    H161168   0.143   0.103   1.557  0.7188 -1.0129 -2.6162
13251TIP3    H261169   0.069   0.190   1.457 -1.6031 -0.9340 -0.9373
13252TIP3   OH261170   6.019   1.640   5.119  0.6640  0.6054 -0.1487
13252TIP3    H161171   5.940   1.645   5.173  0.3095 -0.3355 -0.5672
13252TIP3    H261172   6.091   1.632   5.182  0.2771 -0.2396  0.1877
13253TIP3   OH261173   1.080   2.813  13.139 -0.3522 -0.2976 -0.0673
13253TIP3    H161174   1.088   2.823  13.044  2.5582 -1.1662 -0.0015
13253TIP3    H261175   1.170   2.803  13.170 -1.2938 -1.1746  2.6765
13254TIP3   OH261176   4.171   2.052   4.599 -0.2309  0.7395  0.5307
13254TIP3    H161177   4.099   2.087   4.652 -0.5284  0.0405  0.5987
13254TIP3    H261178   4.156   1.958   4.597  0.4572  0.6297  0.1974
13255TIP3   OH261179   4.910   0.902   2.594  0.1696  0.2920 -0.6097
13255TIP3    H161180   4.932   0.827   2.649 -2.5666 -0.5692 -0.5244
13255TIP3    H261181   4.947   0.882   2.509  1.4166 -0.0443 -0.0002
13256TIP3   OH261182   2.380   1.338   1.228  0.2154 -0.2896 -0.1379
13256TIP3    H161183   2.335   1.366   1.148 -1.3601 -0.4011  0.6614
13256TIP3    H261184   2.404   1.420   1.271 -2.7166 -0.0403  1.2779
13257TIP3   OH261185   3.695   6.369  13.055 -0.0302 -0.6379  0.3920
13257TIP3    H161186   3.680   6.460  13.078 -0.6460 -0.4374 -0.7237
13257TIP3    H261187   3.652   6.358  12.971  1.3276 -1.5708 -0.2222
13258TIP3   OH261188   3.022   5.831   0.536 -0.3376 -0.8259  0.3508
13258TIP3    H161189   3.057   5.750   0.499 -0.8435 -1.0612  0.3718
13258TIP3    H261190   2.966   5.802   0.608  0.5426 -0.3749  1.2354
13259TIP3   OH261191   2.628   0.620  12.725 -0.1628 -0.8339  0.2225
13259TIP3    H161192   2.585   0.536  12.738  0.7702 -1.0749  2.2644
13259TIP3    H261193   2.562   0.685  12.747 -0.4855 -1.0726 -0.0399
13260TIP3   OH261194   6.684   1.322  15.027 -0.0008 -0.1133 -0.9712
13260TIP3    H161195   6.716   1.239  14.992 -0.1634 -0.0046 -1.3921
13260TIP3    H261196   6.620   1.351  14.962 -0.5503 -0.0655 -0.4070
13261TIP3   OH261197   6.514   5.195   2.661 -0.2769  0.1685  0.1390
13261TIP3    H161198   6.460   5.168   2.587  0.4109  1.7074 -0.9901
13261TIP3    H261199   6.483   5.142   2.734 -2.5504  0.2135 -0.7093
13262TIP3   OH261200   3.285   6.545   0.254 -0.9477  0.4920 -0.2211
13262TIP3    H161201   3.372   6.508   0.238 -0.4231  2.1049 -1.4347
13262TIP3    H261202   3.225   6.471   0.244  0.1549 -0.3225 -1.0971
13263TIP3   OH261203   1.245   0.494   1.850  0.2663 -0.4497  0.5723
13263TIP3    H161204   1.152   0.516   1.860  0.7238  0.8634  2.6030
13263TIP3    H261205   1.258   0.420   1.909  0.1994 -1.7386 -0.9808
13264TIP3   OH261206   2.529   1.842   1.490  0.4814 -0.6957 -0.5823
13264TIP3    H161207   2.506   1.784   1.418 -1.1830  0.5043 -1.0840
13264TIP3    H261208   2.460   1.828   1.555  0.3915  0.2450 -0.4602
13265TIP3   OH261209   4.297   0.404   5.685  0.3140 -0.2224 -0.0182
13265TIP3    H161210   4.381   0.449   5.685  0.6362 -0.6805  2.5675
13265TIP3    H261211   4.243   0.454   5.746 -0.9764 -0.5195 -0.8689
13266TIP3   OH261212   3.756   3.527   2.412  0.4651  0.1527 -0.3111
13266TIP3    H161213   3.796   3.473   2.344 -0.0717  0.0221 -0.5240
13266TIP3    H261214   3.665   3.497   2.417  0.8624 -0.8641  1.4981
13267TIP3   OH261215   3.202   6.384  13.343  0.3893  0.5236  0.3566
13267TIP3    H161216   3.118   6.425  13.324 -0.8294 -0.9124  2.1790
13267TIP3    H261217   3.212   6.393  13.438  1.2266 -1.1888  0.4714
13268TIP3   OH261218   2.406   4.712   4.379 -0.4312  0.2967 -0.1636
13268TIP3    H161219   2.483   4.759   4.347 -0.1075  1.1770  1.7431
13268TIP3    H261220   2.351   4.701   4.302  1.4177 -0.0175 -1.5060
13269TIP3   OH261221   4.301   6.467   0.593 -0.3565  0.4153 -0.3778
13269TIP3    H161222   4.275   6.530   0.526 -0.6714  0.1051 -0.5567
13269TIP3    H261223   4.389   6.492   0.618  0.0670  0.0720 -1.4735
13270TIP3   OH261224   1.147   0.577   3.327 -0.0973  0.2385  0.2302
13270TIP3    H161225   1.087   0.631   3.276 -1.1558  0.0332  1.2237
13270TIP3    H261226   1.193   0.639   3.383  0.4953  0.3746 -0.3971
13271TIP3   OH261227   4.101   0.541  17.002 -0.1939  0.2524 -0.3002
13271TIP3    H161228   4.143   0.624  16.978  0.7484 -0.3076 -0.6431
13271TIP3    H261229   4.134   0.478  16.939  0.2034 -0.6827  0.7957
13272TIP3   OH261230   5.406   1.001  16.853  0.2588  0.1367  0.5722
13272TIP3    H161231   5.360   1.060  16.913 -1.8540 -2.1914  1.4178
13272TIP3    H261232   5.492   0.990  16.893  0.0182  1.1421  1.4256
13273TIP3   OH261233   1.942   4.768   2.366  0.1009 -0.8814 -0.0773
13273TIP3    H161234   1.856   4.729   2.381 -0.4633  0.4573  0.3774
13273TIP3    H261235   1.923   4.846   2.314  0.6060  1.1367  2.5379
13274TIP3   OH261236   1.574   2.133  12.107  0.2091  0.0076  0.1614
13274TIP3    H161237   1.591   2.121  12.201  1.2623  1.2852  0.1562
13274TIP3    H261238   1.647   2.187  12.076 -0.6622  0.4586 -1.1798
13275TIP3   OH261239   3.485   5.404   3.052  0.0444 -0.7453  0.0123
13275TIP3    H161240   3.452   5.373   3.136 -0.7503  1.3937  0.5393
13275TIP3    H261241   3.427   5.476   3.028  2.4274  1.1380 -0.5546
13276TIP3   OH261242   2.315   3.395  16.904 -0.0518  0.5323  0.0009
13276TIP3    H161243   2.401   3.355  16.905  0.3928  1.3094 -1.9329
13276TIP3    H261244   2.332   3.489  16.909 -0.8882  0.6610  0.9632
13277TIP3   OH261245   2.703   2.131  15.784  0.2512 -0.6284 -0.4616
13277TIP3    H161246   2.753   2.063  15.737 -0.2530 -1.3107 -0.0247
13277TIP3    H261247   2.764   2.204  15.791 -0.1604  0.1467 -3.6102
13278TIP3   OH261248   0.706   2.000  16.462 -0.1249 -0.0194 -0.4387
13278TIP3    H161249   0.797   2.008  16.493 -0.6870  2.1871  0.8653
13278TIP3    H261250   0.693   2.078  16.408 -0.4690 -1.7142 -2.9801
13279TIP3   OH261251   5.641   4.721  15.249 -0.2264 -0.2015  0.2005
13279TIP3    H161252   5.707   4.782  15.282 -0.3231  1.1556 -1.8851
13279TIP3    H261253   5.647   4.646  15.307  1.3843  0.9236  1.6088
13280TIP3   OH261254   2.205   4.446   0.361  0.6093  0.4757 -0.5009
13280TIP3    H161255   2.192   4.533   0.401  1.1452  0.0773  0.5863
13280TIP3    H261256   2.300   4.434   0.363  0.5338 -0.1293 -0.6642
13281TIP3   OH261257   2.372   4.588  12.112 -0.8018  0.0847 -0.1668
13281TIP3    H161258   2.358   4.586  12.207  0.2571  0.1431  0.0052
13281TIP3    H261259   2.405   4.500  12.092 -1.2183  0.0071 -0.5215
13282TIP3   OH261260   3.389   4.961  13.735 -0.1177  0.5329 -0.6211
13282TIP3    H161261   3.414   4.871  13.755 -0.3906  0.1678 -1.8389
13282TIP3    H261262   3.458   5.014  13.775 -0.3549 -0.1472  0.7820
13283TIP3   OH261263   5.143   0.722  16.251  0.0999  0.0430  0.1152
13283TIP3    H161264   5.148   0.641  16.301  0.6110  0.5202  0.8691
13283TIP3    H261265   5.220   0.772  16.279  0.1010  0.5559 -0.7507
13284TIP3   OH261266   0.055   0.524  11.847 -0.2693  0.0319  0.7106
13284TIP3    H161267   0.017   0.498  11.763 -0.1604 -0.2285  0.7404
13284TIP3    H261268   0.073   0.617  11.838  1.0001 -0.2559 -0.0413
13285TIP3   OH261269   2.366   3.966   0.251  0.2214 -0.1192  0.0218
13285TIP3    H161270   2.378   4.042   0.307  0.1594 -0.1833  0.1233
13285TIP3    H261271   2.312   3.906   0.303  1.1767 -0.6914  0.3712
13286TIP3   OH261272   1.018   1.081  11.684  0.0472 -0.2406 -0.2736
13286TIP3    H161273   1.096   1.058  11.735 -0.4588 -1.5929 -0.0538
13286TIP3    H261274   0.947   1.035  11.728 -0.8389  0.7976 -0.6118
13287TIP3   OH261275   4.863   1.172   4.575 -0.8729 -0.4155  0.4478
13287TIP3    H161276   4.809   1.229   4.630  0.6470  0.7954  0.7335
13287TIP3    H261277   4.859   1.087   4.619 -4.0858 -0.9648 -0.5868
13288TIP3   OH261278   3.245   5.999  11.714  0.0427  0.3993  0.0270
13288TIP3    H161279   3.314   6.007  11.649 -0.6608  0.6650 -0.7072
13288TIP3    H261280   3.164   6.015  11.665 -0.6064 -0.7481  0.6813
13289TIP3   OH261281   4.513   6.293   0.693  0.0809 -0.1923 -0.1351
13289TIP3    H161282   4.511   6.219   0.754 -1.7398 -0.6123 -0.6459
13289TIP3    H261283   4.591   6.278   0.639  0.5068 -0.9739  0.6659
13290TIP3   OH261284   0.899   5.065  15.567  0.0196 -0.2891  0.3853
13290TIP3    H161285   0.964   5.051  15.636 -1.6710  0.8122  2.3270
13290TIP3    H261286   0.846   4.985  15.567 -0.5573  0.0759  1.0822
13291TIP3   OH261287   5.357   6.442   1.820  0.3303 -0.5623 -0.5153
13291TIP3    H161288   5.299   6.376   1.860  1.0163 -0.7076  0.2791
13291TIP3    H261289   5.443   6.423   1.857  0.4913  0.9627 -0.0460
13292TIP3   OH261290   6.269   2.166  12.306  0.9679 -0.0772 -0.0969
13292TIP3    H161291   6.332   2.168  12.378 -0.6987 -0.7874  1.4706
13292TIP3    H261292   6.277   2.252  12.265  0.4308  1.2562  2.3765
13293TIP3   OH261293   4.956   1.021  16.568 -1.0400 -0.7102  0.1031
13293TIP3    H161294   4.869   1.051  16.594 -0.5571  1.1108 -0.2611
13293TIP3    H261295   5.013   1.047  16.641 -0.1023  2.1619 -1.4964
13294TIP3   OH261296   3.912   2.220  13.191  0.2877 -0.7283  0.2116
13294TIP3    H161297   3.891   2.178  13.274  1.6032  0.8781  1.4227
13294TIP3    H261298   3.830   2.264  13.165 -0.1944 -1.4304  0.5119
13295TIP3   OH261299   5.737   6.678   3.582  0.0230 -0.4331 -0.1985
13295TIP3    H161300   5.725   6.768   3.550 -0.5139 -0.1628  0.7018
13295TIP3    H261301   5.831   6.671   3.601  0.2113 -0.3503 -1.0870
13296TIP3   OH261302   3.603   4.963  15.737  0.0984 -0.4161  0.2904
13296TIP3    H161303   3.542   5.008  15.796  1.0463 -0.5726  1.4315
13296TIP3    H261304   3.649   4.901  15.794  1.4275 -0.1905 -0.5160
13297TIP3   OH261305   6.395   0.537  13.906  0.3551 -0.2782 -0.0735
13297TIP3    H161306   6.354   0.594  13.841  0.5829  0.3856  0.3611
13297TIP3    H261307   6.489   0.553  13.896  0.3464  0.7452  1.2295
13298TIP3   OH261308   0.104   4.715   4.980 -0.2020  0.3368 -0.7769
13298TIP3    H161309   0.187   4.667   4.977 -0.6262 -0.5672  0.7721
13298TIP3    H261310   0.046   4.665   4.923  0.1757  0.7099 -1.5008
13299TIP3   OH261311   4.972   1.324  10.641  0.1504  0.1205  0.5999
13299TIP3    H161312   5.032   1.250  10.637 -1.2117 -1.0129  0.5584
13299TIP3    H261313   4.966   1.356  10.551 -1.8034 -1.8656 -0.0555
13300TIP3   OH261314   6.633   1.653   5.271  0.0005 -0.7099 -0.4411
13300TIP3    H161315   6.724   1.657   5.302  0.0431 -0.2122 -0.6317
13300TIP3    H261316   6.634   1.581   5.207  0.1011 -1.1684  0.0633
13301TIP3   OH261317   2.187   0.913  13.000 -0.2161  0.5753 -0.2001
13301TIP3    H161318   2.266   0.933  13.052  0.5727 -0.3610 -1.0056
13301TIP3    H261319   2.142   0.845  13.050  0.3667 -0.0842 -0.5596
13302TIP3   OH261320   4.085   4.486   4.063 -0.0849  0.5191 -0.1421
13302TIP3    H161321   4.174   4.475   4.030 -0.4207 -0.2507 -0.8305
13302TIP3    H261322   4.039   4.529   3.991 -0.6483 -0.5196 -0.4233
13303TIP3   OH261323   3.763   2.370  16.175 -0.1551 -0.3078  0.2656
13303TIP3    H161324   3.797   2.459  16.163  0.5096 -0.6985 -0.9024
13303TIP3    H261325   3.746   2.363  16.269  2.3339  0.1659  0.8111
13304TIP3   OH261326   4.715   3.622  14.889  0.0551 -0.0981  0.3417
13304TIP3    H161327   4.783   3.638  14.955  0.8853 -0.9112 -0.2851
13304TIP3    H261328   4.747   3.547  14.840 -0.8892  0.0597 -0.5467
13305TIP3   OH261329   1.921   3.778  14.614 -0.0529  0.1309 -0.4817
13305TIP3    H161330   2.007   3.814  14.635 -0.4636  0.6951  0.2747
13305TIP3    H261331   1.890   3.740  14.696  0.4511 -2.1786 -1.2874
13306TIP3   OH261332   2.632   3.024   0.804  0.0927 -0.2943  0.5126
13306TIP3    H161333   2.701   3.040   0.868  0.1462  0.7807  0.2091
13306TIP3    H261334   2.669   3.054   0.721  0.2513 -2.2106 -0.1661
13307TIP3   OH261335   2.659   6.298   2.114 -0.7985 -0.1955 -0.6285
13307TIP3    H161336   2.599   6.249   2.058  1.0507 -1.7008 -1.4299
13307TIP3    H261337   2.691   6.234   2.177  0.3072  0.4339 -0.5169
13308TIP3   OH261338   2.325   3.207  15.257  0.5402 -0.3254  0.0405
13308TIP3    H161339   2.387   3.171  15.320  0.1103 -1.0667  0.0502
13308TIP3    H261340   2.252   3.239  15.310  0.3356 -0.6334 -0.0503
13309TIP3   OH261341   5.045   5.901  15.225 -0.1045  0.1123  0.4059
13309TIP3    H161342   4.955   5.879  15.247  0.3796  0.0754  2.6047
13309TIP3    H261343   5.095   5.822  15.246  0.5666  0.4665  0.1748
13310TIP3   OH261344   5.552   3.597  15.532 -0.1003 -0.3798 -0.1187
13310TIP3    H161345   5.636   3.573  15.493  0.7129  0.7829  0.8669
13310TIP3    H261346   5.493   3.606  15.457  0.9244 -0.1270 -0.9215
13311TIP3   OH261347   0.624   0.432   1.613 -0.3851  0.4328 -0.0622
13311TIP3    H161348   0.624   0.524   1.640 -2.2301  1.2793 -2.6211
13311TIP3    H261349   0.534   0.404   1.623  0.0521 -0.9576  0.1333
13312TIP3   OH261350   2.588   3.700   5.804 -0.2744  0.0617  0.3195
13312TIP3    H161351   2.532   3.649   5.745 -0.7684  2.4148 -1.4383
13312TIP3    H261352   2.662   3.727   5.749  1.8277 -1.6316  2.1753
13313TIP3   OH261353   2.533   6.236  11.476  0.2660  0.6515 -0.3307
13313TIP3    H161354   2.531   6.226  11.571  0.9113 -0.2146 -0.3941
13313TIP3    H261355   2.441   6.235  11.449  0.0249  2.0004  0.3718
13314TIP3   OH261356   6.201   4.894   0.773 -0.3397  0.2017  0.2283
13314TIP3    H161357   6.156   4.809   0.769  1.9102 -0.9935 -1.3370
13314TIP3    H261358   6.129   4.958   0.771 -2.0556 -1.6117 -0.9292
13315TIP3   OH261359   2.048   3.139  11.513 -0.2348 -0.2642 -0.1554
13315TIP3    H161360   1.987   3.144  11.439 -1.2702 -1.8971  0.5252
13315TIP3    H261361   2.053   3.229  11.545 -1.2741  0.1327 -1.0373
13316TIP3   OH261362   5.634   1.231  11.817  0.2388  0.2221  0.3540
13316TIP3    H161363   5.611   1.297  11.883  1.4719  1.3895 -0.3290
13316TIP3    H261364   5.622   1.276  11.733 -1.2925 -1.2341 -0.2598
13317TIP3   OH261365   0.042   3.942  15.465 -0.1051  0.5168  0.0608
13317TIP3    H161366   0.087   3.902  15.540 -0.0314 -0.1775 -0.3487
13317TIP3    H261367   0.110   3.994  15.422  0.1649 -0.0384 -0.2022
13318TIP3   OH261368   0.043   5.618  14.562 -0.0867  0.2658  0.6164
13318TIP3    H161369   0.113   5.602  14.499 -2.2776  0.3302 -2.0328
13318TIP3    H261370   0.060   5.556  14.633  1.4749 -1.1928 -0.9449
13319TIP3   OH261371   1.156   4.358  16.473  0.2187  0.2406 -0.4346
13319TIP3    H161372   1.218   4.334  16.542 -1.0497 -2.0468  0.0141
13319TIP3    H261373   1.072   4.366  16.518 -0.2825  0.7255 -1.4237
13320TIP3   OH261374   1.577   4.830   0.568 -0.3775 -0.2228  0.4098
13320TIP3    H161375   1.625   4.877   0.636 -1.3923  0.5245  0.6278
13320TIP3    H261376   1.568   4.894   0.497 -2.6624  0.3049  1.1087
13321TIP3   OH261377   3.629   5.631   4.161  0.2183  0.0162  0.1272
13321TIP3    H161378   3.564   5.661   4.097 -0.8559 -1.8309  0.2701
13321TIP3    H261379   3.698   5.698   4.158 -1.8372  2.2888  0.2765
13322TIP3   OH261380   6.621   4.627   1.551  0.1114  0.3787  0.2756
13322TIP3    H161381   6.709   4.626   1.588  0.1930  1.9008  0.1911
13322TIP3    H261382   6.603   4.536   1.528  0.1106 -0.6928  3.8996
13323TIP3   OH261383   2.378   5.113   3.949  0.3417 -0.5506 -0.5318
13323TIP3    H161384   2.287   5.113   3.922  0.0866  1.1510  0.1763
13323TIP3    H261385   2.375   5.107   4.045  0.8658  1.0009 -0.3868
13324TIP3   OH261386   0.290   3.361  17.046 -0.1807  0.3237 -0.3613
13324TIP3    H161387   0.325   3.272  17.046 -0.5880  0.1520 -1.0295
13324TIP3    H261388   0.365   3.416  17.028 -0.2941 -0.0835 -2.3670
13325TIP3   OH261389   5.119   4.263  13.972  0.5608  0.3275  0.3118
13325TIP3    H161390   5.208   4.257  13.938  1.3511 -0.3454  2.3763
13325TIP3    H261391   5.090   4.172  13.980  0.0311  0.5117  0.5517
13326TIP3   OH261392   0.995   0.330  13.862 -0.0447  0.9601  0.1428
13326TIP3    H161393   0.981   0.301  13.772 -1.1653  2.3223 -0.1605
13326TIP3    H261394   1.090   0.329  13.873  0.0539 -0.7922 -0.4871
13327TIP3   OH261395   5.675   4.515   3.322 -0.0271  0.1829  0.7066
13327TIP3    H161396   5.706   4.535   3.410  1.2193  1.3285  0.0641
13327TIP3    H261397   5.581   4.532   3.325  0.1483  1.1502  1.5897
13328TIP3   OH261398   0.588   0.060   5.219 -0.1121 -0.7162  0.5387
13328TIP3    H161399   0.586   0.107   5.135  0.2658 -1.5085  0.0773
13328TIP3    H261400   0.554  -0.027   5.199 -1.1535 -0.5352  1.4676
13329TIP3   OH261401   2.764   4.319   0.401  0.4165  0.1720 -0.1585
13329TIP3    H161402   2.733   4.240   0.356  0.4603  0.1713 -0.1876
13329TIP3    H261403   2.743   4.390   0.342  0.4130  0.1780 -0.1502
13330TIP3   OH261404   5.531   2.507   5.459  0.8233 -0.0454 -0.3669
13330TIP3    H161405   5.496   2.476   5.543  1.6295 -0.0800 -0.0358
13330TIP3    H261406   5.595   2.441   5.434 -0.9826 -1.2179 -2.1518
13331TIP3   OH261407   3.289   2.091  12.074  0.3022 -0.4412 -0.3983
13331TIP3    H161408   3.301   2.083  11.979  1.0010  2.3214 -0.6154
13331TIP3    H261409   3.242   2.011  12.098  0.0742 -1.2254 -3.0618
13332TIP3   OH261410   3.899   4.539  15.608 -0.0760 -0.2159  0.5098
13332TIP3    H161411   3.943   4.454  15.602 -1.0093 -0.6085 -1.7844
13332TIP3    H261412   3.923   4.584  15.527  0.7453  1.9434  1.8518
13333TIP3   OH261413   4.610   0.644  14.082  0.1646 -0.3432 -0.0241
13333TIP3    H161414   4.544   0.702  14.045 -0.2429 -0.5245  0.4081
13333TIP3    H261415   4.654   0.697  14.148  1.0625  0.0601 -0.9256
13334TIP3   OH261416   1.306   6.508  12.913  0.2677 -0.4803 -0.6043
13334TIP3    H161417   1.313   6.443  12.843  0.9724 -0.9806 -0.0892
13334TIP3    H261418   1.339   6.588  12.873  1.4845 -0.9605 -0.6131
13335TIP3   OH261419   2.589   3.496  16.264 -0.2378  0.2123 -0.0735
13335TIP3    H161420   2.536   3.432  16.216  0.3498 -0.7071  0.4646
13335TIP3    H261421   2.627   3.446  16.336  0.4390  1.1231  0.2179
13336TIP3   OH261422   3.885   2.819   2.488  0.2909 -0.1076 -0.0372
13336TIP3    H161423   3.977   2.824   2.516  0.7875 -0.7835 -1.4312
13336TIP3    H261424   3.835   2.831   2.568  1.6081 -0.2594  0.8487
13337TIP3   OH261425   4.413   5.606   1.259  0.1488  0.0860 -0.1977
13337TIP3    H161426   4.348   5.547   1.220  0.5848  0.2625 -1.2164
13337TIP3    H261427   4.412   5.584   1.352 -0.9101 -0.3541 -0.2960
13338TIP3   OH261428   4.927   1.797  12.040  0.0062  0.4928 -0.1499
13338TIP3    H161429   4.848   1.837  12.006  0.7701  2.3714  0.1833
13338TIP3    H261430   4.897   1.719  12.086 -1.6466  1.2104  0.0274
13339TIP3   OH261431   2.232   3.960  11.168  0.1407  0.5659 -0.9752
13339TIP3    H161432   2.188   4.015  11.103 -1.4022 -1.7345 -1.9742
13339TIP3    H261433   2.273   3.890  11.117  1.7509  0.5331  0.2890
13340TIP3   OH261434   4.572   3.995   6.042  0.6736  0.0752 -0.2290
13340TIP3    H161435   4.483   4.029   6.045  1.0887  1.3166 -1.0597
13340TIP3    H261436   4.576   3.931   6.113 -0.5435  0.8169  0.5405
13341TIP3   OH261437   1.984   1.448  17.181  0.4576 -0.5266 -0.5566
13341TIP3    H161438   1.892   1.439  17.202  0.7100 -0.5793  0.5867
13341TIP3    H261439   1.990   1.427  17.088 -0.4632 -1.9494 -0.3175
13342TIP3   OH261440   4.370   4.412  17.102  0.1565 -0.0766  0.0109
13342TIP3    H161441   4.466   4.412  17.109  0.1814 -0.7838 -0.2591
13342TIP3    H261442   4.352   4.464  17.023  0.2772  0.6315  0.4391
13343TIP3   OH261443   4.351   4.665  14.006 -0.2126  0.3417 -0.0136
13343TIP3    H161444   4.423   4.642  13.946 -0.4469 -1.6182  0.4121
13343TIP3    H261445   4.278   4.688  13.948  0.8276  2.8601 -0.4602
13344TIP3   OH261446   4.389   5.231   3.285  0.2651  0.2776 -0.3226
13344TIP3    H161447   4.401   5.286   3.207  0.6247  0.4455 -0.1487
13344TIP3    H261448   4.338   5.285   3.345  3.7521  1.9844  1.4089
13345TIP3   OH261449   5.701   4.052   0.368  0.2147 -0.2024  0.1376
13345TIP3    H161450   5.632   4.007   0.318 -0.6079  0.1453  0.9246
13345TIP3    H261451   5.759   4.089   0.302  0.4596 -1.7107 -0.5407
13346TIP3   OH261452   5.139   2.574   1.745  0.4035  0.6235 -0.1095
13346TIP3    H161453   5.150   2.480   1.756  1.2259  0.6272 -0.8147
13346TIP3    H261454   5.045   2.588   1.754  0.2661 -0.2688 -0.0564
13347TIP3   OH261455   0.114   0.360   5.619 -0.1675 -0.1628 -0.5572
13347TIP3    H161456   0.024   0.383   5.599 -0.0985 -0.4557 -1.2504
13347TIP3    H261457   0.120   0.364   5.714 -0.5398  1.1880 -0.5752
13348TIP3   OH261458   6.505   3.452  14.483 -0.2576 -0.2965  0.2058
13348TIP3    H161459   6.550   3.462  14.399  1.6998 -2.7816  0.8487
13348TIP3    H261460   6.432   3.514  14.479  0.9309  1.0726 -2.5018
13349TIP3   OH261461   2.851   1.683   5.426 -0.4511  0.2454  0.7366
13349TIP3    H161462   2.831   1.719   5.340 -1.1925  0.5289  1.0236
13349TIP3    H261463   2.766   1.674   5.470 -0.0743  0.2426  1.4937
13350TIP3   OH261464   6.016   3.188  15.457 -0.1993  0.4940 -0.0694
13350TIP3    H161465   5.986   3.146  15.376  0.4925 -1.0335  0.4341
13350TIP3    H261466   6.036   3.115  15.516 -1.0047  1.5688  1.6155
13351TIP3   OH261467   2.316   4.415  13.866  0.7841 -0.0223  0.2321
13351TIP3    H161468   2.242   4.400  13.925  0.4777  0.9447  0.1160
13351TIP3    H261469   2.289   4.372  13.784  0.6352 -0.2241  0.3840
13352TIP3   OH261470   5.400   1.093  13.541  0.0735 -0.5971  0.1178
13352TIP3    H161471   5.389   0.999  13.552 -0.4270 -0.5976 -0.3584
13352TIP3    H261472   5.456   1.119  13.615 -0.1411 -1.1925  0.5000
13353TIP3   OH261473   3.888   5.252   0.581  0.1628  1.0729  0.8183
13353TIP3    H161474   3.822   5.188   0.608 -0.4952  0.3507 -2.1825
13353TIP3    H261475   3.961   5.200   0.549 -0.3463  1.7356 -1.5790
13354TIP3   OH261476   1.364   6.428   6.008 -0.4140 -0.0980 -0.0069
13354TIP3    H161477   1.412   6.503   5.973  0.6495  0.1212  1.7891
13354TIP3    H261478   1.419   6.395   6.078 -1.3677 -1.9317 -0.0653
13355TIP3   OH261479   2.193   4.935  13.151  0.6376 -0.4686  0.0966
13355TIP3    H161480   2.222   4.850  13.184 -0.6911 -0.3569  1.6627
13355TIP3    H261481   2.168   4.984  13.229 -3.8589 -0.6043 -1.0257
13356TIP3   OH261482   2.868   3.122  13.734  0.3162 -0.1238 -0.1193
13356TIP3    H161483   2.914   3.093  13.655 -0.2879 -1.3480 -0.0588
13356TIP3    H261484   2.790   3.166  13.702  0.3074 -0.2071 -0.2121
13357TIP3   OH261485   3.226   0.080  16.024  0.4213  0.0790  0.5323
13357TIP3    H161486   3.299   0.068  15.963  1.5780  1.2774  1.6086
13357TIP3    H261487   3.268   0.092  16.109 -0.9142  2.4969  0.9403
13358TIP3   OH261488   4.427   6.078  16.142 -0.3031  0.1169  0.6662
13358TIP3    H161489   4.515   6.092  16.178 -0.7745  0.9931  1.5164
13358TIP3    H261490   4.374   6.053  16.218  0.0835 -5.1568 -0.3787
13359TIP3   OH261491   0.093   6.142   1.615  0.4289  0.5886  0.2654
13359TIP3    H161492   0.096   6.214   1.677  1.0938  2.3089 -1.6557
13359TIP3    H261493   0.027   6.082   1.651 -1.5100  3.0157  1.0107
13360TIP3   OH261494   3.813   2.211   3.673 -0.0861 -0.1453 -0.0324
13360TIP3    H161495   3.788   2.121   3.654  1.5916 -0.9716  1.3046
13360TIP3    H261496   3.789   2.223   3.765 -1.8180  1.3983 -0.6152
13361TIP3   OH261497   3.705   4.325   1.793  0.1497 -0.1355 -0.1967
13361TIP3    H161498   3.641   4.294   1.857  1.1286 -2.1180 -0.0941
13361TIP3    H261499   3.776   4.360   1.847 -0.1964  0.6950 -0.2750
13362TIP3   OH261500   5.701   0.696  17.228 -0.0811 -0.3234  0.3899
13362TIP3    H161501   5.713   0.791  17.233  2.2836 -0.5825  0.7652
13362TIP3    H261502   5.686   0.679  17.135  1.8705  0.2266 -0.0709
13363TIP3   OH261503   2.894   1.163   0.616  0.4605 -0.1634  0.7914
13363TIP3    H161504   2.837   1.086   0.612  0.2206  0.0611 -0.7682
13363TIP3    H261505   2.926   1.174   0.526  2.1003  0.3673  1.3968
13364TIP3   OH261506   2.325   1.969   2.072  0.3911 -0.4683  0.1858
13364TIP3    H161507   2.413   1.968   2.108  0.0329  2.9529  1.5484
13364TIP3    H261508   2.337   1.985   1.979  1.2320 -0.2851  0.3168
13365TIP3   OH261509   5.657   6.395  16.826  0.3985 -0.0629 -0.1533
13365TIP3    H161510   5.670   6.490  16.826 -1.0581  0.1741  1.3126
13365TIP3    H261511   5.610   6.378  16.745  1.6652  0.2801 -0.9947
13366TIP3   OH261512   3.267   6.265  10.825  0.0443 -0.3535  0.0288
13366TIP3    H161513   3.205   6.330  10.859 -0.7798 -0.8081 -0.5644
13366TIP3    H261514   3.216   6.184  10.819  0.8097 -0.8383 -0.0873
13367TIP3   OH261515   2.677   4.092   2.328  0.2929  0.1152 -0.2730
13367TIP3    H161516   2.622   4.146   2.385  0.2816 -2.0364  1.9163
13367TIP3    H261517   2.617   4.062   2.259 -0.3587  0.6844  0.0285
13368TIP3   OH261518   5.416   5.141   5.655 -0.5881 -0.5592  0.5899
13368TIP3    H161519   5.411   5.213   5.592  0.0263  0.0463  1.2101
13368TIP3    H261520   5.351   5.164   5.722 -1.1379 -1.1276  0.2687
13369TIP3   OH261521   6.752   4.122  12.546  0.4586  0.0719 -0.3645
13369TIP3    H161522   6.805   4.051  12.510  0.7149  1.0083 -1.9087
13369TIP3    H261523   6.703   4.157  12.472 -1.2733  0.1680  0.7652
13370TIP3   OH261524   5.329   1.857  16.841  0.1839 -0.2104 -0.2912
13370TIP3    H161525   5.376   1.939  16.823 -0.2967  0.1218 -0.0784
13370TIP3    H261526   5.345   1.841  16.934 -0.5347  0.1808 -0.0942
13371TIP3   OH261527   4.440   6.600  12.973  0.1015  0.0118  0.0389
13371TIP3    H161528   4.515   6.576  12.918  1.5213  4.4643 -0.3881
13371TIP3    H261529   4.386   6.655  12.916  0.6234  3.1690  2.3319
13372TIP3   OH261530   0.294   5.115  15.987 -0.4551  0.1999  0.6816
13372TIP3    H161531   0.264   5.204  15.967  0.4303  0.4045  0.1884
13372TIP3    H261532   0.356   5.127  16.059  0.5573  0.1337 -0.1625
13373TIP3   OH261533   4.680   0.808  14.809 -0.0352  0.2126  0.5738
13373TIP3    H161534   4.725   0.853  14.880 -0.4272  0.4180  0.6954
13373TIP3    H261535   4.669   0.875  14.741 -1.3458  0.5471  1.0756
13374TIP3   OH261536   2.612   5.556   4.310  0.3596  0.2076  0.2613
13374TIP3    H161537   2.586   5.481   4.257 -0.4632 -0.6535  1.8033
13374TIP3    H261538   2.532   5.582   4.355  1.0563  0.8034  1.1924
13375TIP3   OH261539   1.383   4.242   2.656 -0.4675 -0.5812 -0.2511
13375TIP3    H161540   1.398   4.148   2.659  0.5900 -0.4029  1.7882
13375TIP3    H261541   1.471   4.279   2.644 -0.8506  0.1693 -0.8180
13376TIP3   OH261542   2.948   6.637   1.083 -0.7273 -0.3106 -0.0241
13376TIP3    H161543   3.040   6.631   1.108 -0.5936  2.2740  0.4000
13376TIP3    H261544   2.901   6.644   1.167 -0.7921  2.9646 -0.1981
13377TIP3   OH261545   5.477   1.501  14.456 -0.0942  0.1194 -0.0661
13377TIP3    H161546   5.520   1.427  14.498 -0.0771  0.5659  0.7226
13377TIP3    H261547   5.393   1.508  14.500  0.4442  1.3948  0.8325
13378TIP3   OH261548   3.853   0.063  16.070 -0.0201 -0.4404  0.2542
13378TIP3    H161549   3.822   0.082  16.159  0.0995 -3.2136  0.9999
13378TIP3    H261550   3.776   0.077  16.014 -0.0372  1.5479  0.7088
13379TIP3   OH261551   1.344   5.038  14.686 -0.5078 -0.0247  0.4198
13379TIP3    H161552   1.316   5.115  14.736  0.6061  1.0075 -0.5017
13379TIP3    H261553   1.392   5.073  14.612 -2.4399 -1.4818 -1.6673
13380TIP3   OH261554   3.186   0.061   2.310 -0.0616 -0.5428 -0.0342
13380TIP3    H161555   3.134   0.017   2.377  0.9807 -1.5884  0.1250
13380TIP3    H261556   3.200   0.149   2.345  3.2623 -1.9711  2.8684
13381TIP3   OH261557   5.419   1.607  11.202 -0.7276 -0.1566 -0.1193
13381TIP3    H161558   5.506   1.582  11.172 -0.3398 -0.5937  1.2808
13381TIP3    H261559   5.425   1.607  11.297 -2.1199  0.3293  0.0009
13382TIP3   OH261560   4.297   5.995  16.945  0.2676 -1.0552  0.2127
13382TIP3    H161561   4.387   5.971  16.966 -0.8024 -2.9098  3.3700
13382TIP3    H261562   4.290   6.087  16.974  0.9459 -1.1460  0.7072
13383TIP3   OH261563   1.555   2.990  16.400  0.0359 -0.2358 -0.1890
13383TIP3    H161564   1.597   2.945  16.473 -0.0215 -1.3420 -0.8181
13383TIP3    H261565   1.501   2.923  16.358 -0.9540  0.7115 -0.4810
13384TIP3   OH261566   1.944   3.428  17.131 -0.2464 -0.2556 -0.1510
13384TIP3    H161567   1.892   3.352  17.105  1.3075 -1.3645 -0.1581
13384TIP3    H261568   1.949   3.482  17.051 -2.0318  0.3039  0.0735
13385TIP3   OH261569   0.589   1.817   1.225  0.2815 -0.2987  0.0898
13385TIP3    H161570   0.617   1.794   1.314 -1.3050 -1.6161  0.2930
13385TIP3    H261571   0.658   1.783   1.168  0.3781 -1.1573  0.7042
13386TIP3   OH261572   1.299   5.339  14.351  0.1029 -0.3656 -0.4138
13386TIP3    H161573   1.357   5.415  14.357  0.2568 -0.5806  1.9709
13386TIP3    H261574   1.347   5.269  14.394  0.1016 -1.9782 -2.8736
13387TIP3   OH261575   1.815   1.904  16.041  0.0061  0.4239  0.4348
13387TIP3    H161576   1.733   1.877  16.083 -0.3751  1.7654  0.6206
13387TIP3    H261577   1.827   1.995  16.070  0.1646  1.1381 -1.6963
13388TIP3   OH261578   3.839   0.485  11.121  0.5219  0.1180 -0.0941
13388TIP3    H161579   3.878   0.421  11.062 -1.0110 -0.3297 -0.6834
13388TIP3    H261580   3.846   0.569  11.075 -2.6985 -0.5423 -2.1090
13389TIP3   OH261581   1.606   0.663  12.680  0.0940  0.3674 -0.4681
13389TIP3    H161582   1.693   0.643  12.647 -0.1410  1.0338 -1.5500
13389TIP3    H261583   1.619   0.728  12.748  0.4115  0.8187 -0.9556
13390TIP3   OH261584   5.827   1.055   1.636 -0.0595 -0.6431 -0.3833
13390TIP3    H161585   5.806   1.135   1.588  0.5455 -0.3942 -0.2458
13390TIP3    H261586   5.913   1.029   1.603  0.1669 -0.7102  0.2349
13391TIP3   OH261587   1.749   5.356   1.883  0.1473  0.4685  0.0228
13391TIP3    H161588   1.768   5.442   1.844 -0.9279  0.0058 -1.6273
13391TIP3    H261589   1.673   5.324   1.833 -0.0676 -1.0289  1.2530
13392TIP3   OH261590   1.828   3.774  14.368 -0.2514  0.0968 -0.2026
13392TIP3    H161591   1.882   3.709  14.322 -1.9776 -2.7470  1.4897
13392TIP3    H261592   1.871   3.784  14.453  0.0275  1.2782 -0.4709
13393TIP3   OH261593   4.020   3.993  13.075 -0.3995  0.0911  0.0921
13393TIP3    H161594   3.982   3.966  12.991 -1.6347  0.2964  0.5637
13393TIP3    H261595   4.069   4.072  13.055  1.0511 -0.9631 -0.8080
13394TIP3   OH261596   2.014   0.929   0.480 -0.2312  0.2896 -0.5218
13394TIP3    H161597   2.077   0.882   0.426 -1.1744  0.4709 -1.8187
13394TIP3    H261598   2.065   0.960   0.555  0.9649 -0.5120 -0.9707
13395TIP3   OH261599   5.371   4.241   1.465  0.6909 -0.3889  0.2808
13395TIP3    H161600   5.368   4.198   1.380  0.6846 -0.1677  0.1691
13395TIP3    H261601   5.279   4.262   1.484  0.2660 -2.9429  1.6324
13396TIP3   OH261602   2.690   1.264   0.779 -0.3076 -0.3364  0.1072
13396TIP3    H161603   2.742   1.274   0.859  0.7997  0.2513 -0.6559
13396TIP3    H261604   2.751   1.228   0.716 -1.1435 -0.6873 -0.5167
13397TIP3   OH261605   4.484   1.185   3.765 -0.4570 -0.0141  0.6082
13397TIP3    H161606   4.527   1.190   3.680  0.0612  1.2454  0.9185
13397TIP3    H261607   4.548   1.141   3.821  0.2530  1.3723  0.9340
13398TIP3   OH261608   4.573   0.245  15.096  0.7282 -0.1713  0.2150
13398TIP3    H161609   4.545   0.320  15.149  0.6606 -0.6754  0.9061
13398TIP3    H261610   4.494   0.192  15.087  0.7909 -0.1903 -0.2231
13399TIP3   OH261611   4.301   5.525  15.245  0.0566  0.1262  0.1346
13399TIP3    H161612   4.297   5.446  15.191 -0.6050  0.5057 -0.3861
13399TIP3    H261613   4.318   5.492  15.334 -2.3850 -0.8060  0.3291
13400TIP3   OH261614   2.925   4.098  14.499 -0.5962 -0.2383 -0.0960
13400TIP3    H161615   2.836   4.071  14.475 -0.1987 -1.8932  0.1901
13400TIP3    H261616   2.923   4.107  14.594 -0.7265  0.8562 -0.1846
13401TIP3   OH261617   1.603   6.672   4.975 -0.2658 -0.1122 -0.1670
13401TIP3    H161618   1.546   6.745   5.001  0.0526 -0.0725  0.4537
13401TIP3    H261619   1.662   6.661   5.050 -1.1073 -1.8300  0.2924
13402TIP3   OH261620   4.842   0.845   0.490 -0.4091  0.1800 -0.6919
13402TIP3    H161621   4.756   0.839   0.530  1.0403  1.0460  2.9958
13402TIP3    H261622   4.835   0.917   0.427 -2.1689  0.7874  0.1298
13403TIP3   OH261623   5.067   2.006  11.435 -0.3240 -0.7221 -0.0689
13403TIP3    H161624   5.020   1.943  11.489 -0.7780 -0.4648 -0.1611
13403TIP3    H261625   5.105   1.953  11.365 -3.1491 -0.5959 -1.8712
13404TIP3   OH261626   0.000   5.954   2.215  0.3451  0.7523  0.1666
13404TIP3    H161627  -0.003   5.858   2.205  0.2007  0.7466  0.2597
13404TIP3    H261628  -0.040   5.987   2.134  0.7202  0.7435 -0.0273
13405TIP3   OH261629   5.069   1.382   1.723 -0.0136 -0.2389 -0.2271
13405TIP3    H161630   5.124   1.341   1.790  0.5876 -0.0390 -0.5924
13405TIP3    H261631   5.048   1.311   1.662 -0.1922 -0.3207 -0.0732
13406TIP3   OH261632   0.200   2.796  14.301 -0.3796 -0.1289 -0.4843
13406TIP3    H161633   0.146   2.719  14.321  0.0512 -0.2451  0.2660
13406TIP3    H261634   0.149   2.845  14.237 -1.4698 -0.1351  0.3581
13407TIP3   OH261635   6.300   5.832   3.027 -0.4787 -0.4369 -0.4689
13407TIP3    H161636   6.256   5.837   2.942 -0.9826  0.3330 -0.1699
13407TIP3    H261637   6.376   5.888   3.018 -0.5344 -0.3517 -0.4106
13408TIP3   OH261638   5.063   1.052   4.855 -0.4416  0.5201 -0.2243
13408TIP3    H161639   5.085   1.064   4.947  0.3366 -0.2815 -0.3015
13408TIP3    H261640   5.144   1.072   4.808 -1.0320  1.6710 -0.8039
13409TIP3   OH261641   4.685   1.120   1.483  0.6431  0.8402 -0.0748
13409TIP3    H161642   4.613   1.063   1.455 -0.4895  1.7488  0.8919
13409TIP3    H261643   4.763   1.064   1.480  0.2729  0.3151 -2.9396
13410TIP3   OH261644   2.011   1.107  12.279  0.0404 -0.0750 -0.7553
13410TIP3    H161645   1.995   1.188  12.231  1.7029 -0.5495 -2.2672
13410TIP3    H261646   2.076   1.131  12.346 -1.1986  0.2869  0.3493
13411TIP3   OH261647   5.988   4.493   2.184  0.0759 -0.0020 -0.1107
13411TIP3    H161648   5.903   4.477   2.142  0.2740 -1.1958 -0.0959
13411TIP3    H261649   5.966   4.541   2.264 -0.8064 -1.7667  0.7860
13412TIP3   OH261650   0.068   3.348  13.392  0.2681 -0.0161 -0.3895
13412TIP3    H161651   0.080   3.368  13.485  0.8447  0.3450 -0.5382
13412TIP3    H261652  -0.017   3.304  13.388 -1.5237  3.1504 -0.1364
13413TIP3   OH261653   0.965   6.057  12.757  0.1107  0.1067 -0.2722
13413TIP3    H161654   0.952   6.053  12.852  2.4511 -1.9631  0.0635
13413TIP3    H261655   0.892   6.007  12.721  1.1497 -2.3442  0.7742
13414TIP3   OH261656   2.443   6.229  16.542 -0.1901  0.8342  0.0228
13414TIP3    H161657   2.416   6.304  16.489  0.3679  1.7453  1.0098
13414TIP3    H261658   2.485   6.267  16.618  4.2555 -0.4574 -1.4955
13415TIP3   OH261659   2.234   6.571  17.300 -0.3364 -0.4768  0.8234
13415TIP3    H161660   2.290   6.494  17.301  0.1501 -0.1373  0.0237
13415TIP3    H261661   2.294   6.645  17.312 -0.7492 -0.1936  1.1650
13416TIP3   OH261662   4.800   5.887  11.716 -0.1863 -0.3293  0.5750
13416TIP3    H161663   4.828   5.828  11.646  3.8430 -0.5147  2.0887
13416TIP3    H261664   4.800   5.974  11.675  0.9633 -0.5811 -0.0129
13417TIP3   OH261665   0.572   0.170   3.032 -0.0898  0.1360  0.7324
13417TIP3    H161666   0.626   0.092   3.047 -0.9693 -0.0753  3.2049
13417TIP3    H261667   0.634   0.243   3.036  0.3127 -0.2362  1.5420
13418TIP3   OH261668   3.652   1.394  13.508  0.0839  0.4627 -0.3171
13418TIP3    H161669   3.740   1.427  13.522  1.4247 -2.6944 -0.4850
13418TIP3    H261670   3.653   1.357  13.420 -1.1038 -0.4202 -0.0023
13419TIP3   OH261671   0.167   1.335  16.588 -0.0750  0.2349 -0.0483
13419TIP3    H161672   0.111   1.333  16.665  0.1108  0.9676  0.1218
13419TIP3    H261673   0.136   1.410  16.538  1.3622  1.2780  0.5494
13420TIP3   OH261674   6.746   2.510   1.292 -0.5202 -0.4916  0.7767
13420TIP3    H161675   6.793   2.523   1.375  1.3728 -1.8071 -0.0192
13420TIP3    H261676   6.750   2.595   1.248 -0.3686 -0.1457  1.4461
13421TIP3   OH261677   0.688   5.130  12.632  0.3998 -0.2241  0.0841
13421TIP3    H161678   0.747   5.191  12.676 -1.0749  1.9035 -0.7249
13421TIP3    H261679   0.640   5.088  12.704  0.6707  0.4086  0.6439
13422TIP3   OH261680   6.371   5.958   0.434  0.8074  0.0520  0.3731
13422TIP3    H161681   6.346   6.051   0.441  1.9173  0.3711  0.3269
13422TIP3    H261682   6.343   5.933   0.346 -0.5650 -0.0070  0.8054
13423TIP3   OH261683   2.788   3.177  16.258 -0.1154  0.0131 -0.5736
13423TIP3    H161684   2.832   3.098  16.227  0.7448  0.9293 -1.7690
13423TIP3    H261685   2.818   3.246  16.199 -0.3691  1.3635  0.8269
13424TIP3   OH261686   4.910   2.836   4.684 -0.1182 -0.4490  0.8310
13424TIP3    H161687   4.826   2.792   4.671 -0.3872  0.3179 -0.0497
13424TIP3    H261688   4.959   2.817   4.604  0.5235 -0.8127  1.3021
13425TIP3   OH261689   5.511   3.136  13.382 -0.4965 -0.5086 -0.2409
13425TIP3    H161690   5.575   3.174  13.442 -0.7740 -1.0957  0.4396
13425TIP3    H261691   5.547   3.049  13.361 -1.3181 -1.0589  0.5624
13426TIP3   OH261692   2.173   0.213   0.922  0.2616  0.4958  0.1924
13426TIP3    H161693   2.115   0.266   0.976 -0.3307 -0.6394  0.6987
13426TIP3    H261694   2.159   0.246   0.833 -0.9970  0.3945  0.3347
13427TIP3   OH261695   3.718   0.614   4.332 -0.9875  0.2193  0.0202
13427TIP3    H161696   3.760   0.671   4.268 -0.4628  0.8707  0.9165
13427TIP3    H261697   3.789   0.583   4.387 -1.4998  0.2301  0.7092
13428TIP3   OH261698   4.635   5.267  13.999  0.0205  0.0019  0.2344
13428TIP3    H161699   4.714   5.240  14.046 -0.3419  0.3340  1.0632
13428TIP3    H261700   4.605   5.344  14.047 -1.2118 -0.5461  0.3824
13429TIP3   OH261701   0.315   3.019  14.771 -0.1726 -0.4419 -0.6158
13429TIP3    H161702   0.289   2.988  14.685 -3.1545  0.6922 -0.2425
13429TIP3    H261703   0.325   3.114  14.761  1.0650 -0.4928 -0.0489
13430TIP3   OH261704   0.255   5.103   2.224 -0.2400  0.2003 -0.3042
13430TIP3    H161705   0.330   5.090   2.167  0.5635  1.9789  0.2945
13430TIP3    H261706   0.292   5.122   2.310 -1.3795  0.4987  0.1421
13431TIP3   OH261707   5.913   4.022  13.858  0.8733  0.1650  0.0796
13431TIP3    H161708   5.993   4.025  13.909  1.5730  0.9566 -1.0186
13431TIP3    H261709   5.935   4.066  13.775 -0.2799 -0.8416 -0.8068
13432TIP3   OH261710   0.588   1.480   6.024 -0.5893  0.2123  0.1356
13432TIP3    H161711   0.527   1.453   6.093  0.3057  0.2890  0.9795
13432TIP3    H261712   0.602   1.573   6.039 -0.1014  0.1502  0.0927
13433TIP3   OH261713   2.289   0.871  13.372  0.1944  0.0619  0.7114
13433TIP3    H161714   2.285   0.938  13.441 -1.2526  1.3442 -0.5331
13433TIP3    H261715   2.234   0.800  13.404 -1.8818  1.3531  0.2687
13434TIP3   OH261716   1.295   2.298   0.053  0.1194 -0.8347 -0.5195
13434TIP3    H161717   1.372   2.253   0.020 -0.0235 -1.1089 -0.4770
13434TIP3    H261718   1.310   2.305   0.148 -1.0490 -3.1371 -0.1106
13435TIP3   OH261719   6.252   6.587   1.269 -0.4431  0.8457  0.1407
13435TIP3    H161720   6.183   6.650   1.246 -0.7453  0.8279  0.9731
13435TIP3    H261721   6.233   6.563   1.360  2.1208  2.7481  1.2791
13436TIP3   OH261722   4.872   3.481   1.423  0.3703  0.1670  0.1747
13436TIP3    H161723   4.853   3.407   1.364  0.0144  1.2490 -1.1254
13436TIP3    H261724   4.812   3.469   1.497 -1.0620  0.1647 -0.9334
13437TIP3   OH261725   1.269   1.430   2.647  0.0799  0.3279 -0.5499
13437TIP3    H161726   1.308   1.518   2.651  2.7842 -0.8112  0.8576
13437TIP3    H261727   1.240   1.413   2.736 -0.1556 -0.3161 -0.7507
13438TIP3   OH261728   0.945   6.738  11.339  0.7171 -0.3001 -0.0035
13438TIP3    H161729   1.021   6.695  11.299 -0.1263 -0.6504 -1.2854
13438TIP3    H261730   0.963   6.831  11.328  0.3976 -0.3860 -1.4804
13439TIP3   OH261731   4.403   3.015  13.753  0.3527 -0.4670  0.1555
13439TIP3    H161732   4.360   2.959  13.689 -0.6342 -0.7669  1.0612
13439TIP3    H261733   4.414   2.959  13.830  2.5559 -0.4689 -0.0737
13440TIP3   OH261734   1.608   1.064  11.493 -0.0056 -0.8172 -0.4031
13440TIP3    H161735   1.538   1.103  11.441 -1.2655 -0.1447  1.6806
13440TIP3    H261736   1.658   1.012  11.430 -2.2111 -1.1310 -2.0228
13441TIP3   OH261737   4.225   3.763   0.554 -0.3734 -0.5136  0.4415
13441TIP3    H161738   4.316   3.793   0.548 -0.8969  1.5595  1.7332
13441TIP3    H261739   4.231   3.668   0.562  1.5051 -0.7522 -2.3314
13442TIP3   OH261740   3.887   1.690  14.702 -0.6874 -0.0020 -0.3632
13442TIP3    H161741   3.894   1.785  14.692 -4.5224  0.6003  0.8196
13442TIP3    H261742   3.917   1.673  14.791  0.9416 -0.1280 -0.9017
13443TIP3   OH261743   1.942   2.755  15.408  0.0322  0.3027  0.1063
13443TIP3    H161744   1.987   2.767  15.491 -0.9954  1.8049  0.4713
13443TIP3    H261745   1.849   2.765  15.428 -0.4964 -2.2042 -0.7344
13444TIP3   OH261746   0.482   1.665   1.743 -0.3542  0.0505 -0.0720
13444TIP3    H161747   0.449   1.669   1.833  2.0017  0.3246  0.8581
13444TIP3    H261748   0.575   1.643   1.753  0.4232  1.9487 -2.3302
13445TIP3   OH261749   1.247   4.799  15.641  0.8867 -0.2886 -0.3902
13445TIP3    H161750   1.319   4.773  15.700  0.1554 -1.7930 -0.1174
13445TIP3    H261751   1.275   4.767  15.555  1.8708  1.7504 -0.8983
13446TIP3   OH261752   4.232   4.848  12.815  0.3789  0.1522  0.0430
13446TIP3    H161753   4.311   4.871  12.864 -0.6776  1.0200  1.4103
13446TIP3    H261754   4.164   4.840  12.881 -0.7987 -0.0621 -1.1535
13447TIP3   OH261755   4.569   3.599   3.710 -0.4743  0.5247 -0.0839
13447TIP3    H161756   4.644   3.566   3.662  0.1440  0.0550  1.1518
13447TIP3    H261757   4.607   3.648   3.784 -1.3834  1.5866 -0.2826
13448TIP3   OH261758   4.072   0.125   3.005 -0.5803  0.1991  0.1624
13448TIP3    H161759   4.157   0.152   2.969 -0.0339  0.8147  1.7642
13448TIP3    H261760   4.061   0.035   2.976  1.6839 -0.6477  1.5842
13449TIP3   OH261761   5.216   4.536  15.612  0.3807  0.5040 -0.1601
13449TIP3    H161762   5.241   4.591  15.687  2.2163 -0.8411  0.2780
13449TIP3    H261763   5.173   4.461  15.651  0.2359  0.3844 -0.5507
13450TIP3   OH261764   1.935   2.551  14.194 -0.1132  0.4862  0.2907
13450TIP3    H161765   1.992   2.591  14.258 -2.3472  2.1408  1.3610
13450TIP3    H261766   1.936   2.457  14.215  0.7104  0.7553  1.4683
13451TIP3   OH261767   4.089   3.548  16.102 -0.2834  0.7349 -0.4395
13451TIP3    H161768   4.133   3.626  16.137  0.1926  0.7865 -1.1237
13451TIP3    H261769   4.151   3.512  16.039 -0.2351 -0.5751  0.3248
13452TIP3   OH261770   2.652   4.867   3.197 -0.7467  0.5824  0.1986
13452TIP3    H161771   2.644   4.809   3.122  1.7834  0.7186 -0.2692
13452TIP3    H261772   2.693   4.946   3.162  0.9749  0.4421  1.7508
13453TIP3   OH261773   3.331   3.527   3.839 -0.0106  0.2790 -0.0012
13453TIP3    H161774   3.286   3.560   3.917 -1.4464  0.4693 -0.8700
13453TIP3    H261775   3.293   3.441   3.824  1.4273 -0.4529  0.4112
13454TIP3   OH261776   5.780   5.265   1.271  0.5536  0.6906 -0.2607
13454TIP3    H161777   5.689   5.236   1.262  0.4754  0.8781 -0.0890
13454TIP3    H261778   5.831   5.184   1.277  0.4741  0.5768 -1.0505
13455TIP3   OH261779   3.959   4.676   5.064  0.0666 -0.6309 -0.4456
13455TIP3    H161780   4.019   4.681   5.138 -0.1933  0.0046 -0.2656
13455TIP3    H261781   3.934   4.584   5.059  1.9820 -1.1407 -1.2894
13456TIP3   OH261782   3.686   1.152   2.220  0.2392 -0.1060 -0.3708
13456TIP3    H161783   3.650   1.064   2.232  0.2083 -0.2907 -1.6378
13456TIP3    H261784   3.776   1.146   2.250  0.0775 -0.4297  0.0524
13457TIP3   OH261785   1.713   5.664  13.706 -0.0146  0.1394  0.3902
13457TIP3    H161786   1.627   5.665  13.748  0.1180  0.2808  0.6648
13457TIP3    H261787   1.703   5.607  13.630 -0.2059 -0.2798  0.7276
13458TIP3   OH261788   1.785   0.091   0.774 -0.0947 -0.6750 -0.1665
13458TIP3    H161789   1.761   0.113   0.864 -0.3609 -0.4712 -0.2856
13458TIP3    H261790   1.863   0.036   0.782 -0.0682 -0.5859  0.1844
13459TIP3   OH261791   5.951   0.454  15.493 -0.0626 -0.5695 -0.4332
13459TIP3    H161792   5.867   0.461  15.538  1.1956  0.4606  1.9383
13459TIP3    H261793   6.005   0.401  15.551  1.2011 -0.4556 -1.4612
13460TIP3   OH261794   3.668   3.106  12.168 -0.6314  0.4971  0.2914
13460TIP3    H161795   3.692   3.079  12.080 -1.2841  3.0088 -0.7465
13460TIP3    H261796   3.583   3.066  12.184 -0.3107 -0.3295 -0.0038
13461TIP3   OH261797   6.309   3.128  15.291 -0.3646  0.1005 -0.3348
13461TIP3    H161798   6.294   3.086  15.206 -1.5829  0.1806 -0.1730
13461TIP3    H261799   6.349   3.212  15.269  2.3765 -1.1554 -0.6559
13462TIP3   OH261800   5.666   4.522  11.691  0.0442  0.3882  0.2149
13462TIP3    H161801   5.759   4.503  11.703 -0.0845 -1.3793 -1.1151
13462TIP3    H261802   5.626   4.504  11.776  0.7297 -0.1665  0.4271
13463TIP3   OH261803   5.431   5.027  16.715 -0.2848 -0.6689  0.3932
13463TIP3    H161804   5.359   5.088  16.698 -0.5439 -1.0481  0.1316
13463TIP3    H261805   5.388   4.946  16.741  0.0797 -0.1208  2.9660
13464TIP3   OH261806   3.818   1.667   2.105  0.0313  0.1508  0.3331
13464TIP3    H161807   3.907   1.677   2.138  0.1562  1.2385 -0.2974
13464TIP3    H261808   3.773   1.746   2.134 -0.1484  0.6195 -1.1565
13465TIP3   OH261809   6.168   5.934  15.093  0.4142  0.2112 -0.5674
13465TIP3    H161810   6.081   5.941  15.052  0.9685 -0.0450 -1.8443
13465TIP3    H261811   6.150   5.911  15.184 -0.9133  2.0603 -0.3084
13466TIP3   OH261812   2.243   1.072  13.947  0.1973 -0.3355 -0.2651
13466TIP3    H161813   2.237   1.114  14.033 -0.0921  0.4148 -0.6412
13466TIP3    H261814   2.325   1.023  13.949  0.0931 -0.4840  0.5056
13467TIP3   OH261815   0.540   5.275  15.071  0.4127 -0.2589 -0.1703
13467TIP3    H161816   0.530   5.196  15.125  1.8821 -0.5123 -0.2511
13467TIP3    H261817   0.634   5.283  15.057  0.1512  0.5713 -1.5856
13468TIP3   OH261818   6.118   3.443   4.891  0.1369 -0.0736 -0.1069
13468TIP3    H161819   6.204   3.482   4.907 -0.1463 -0.3637  2.4611
13468TIP3    H261820   6.126   3.353   4.922 -0.4547 -0.8656 -2.0636
13469TIP3   OH261821   1.481   0.270  17.351  0.3425 -0.5868  0.1817
13469TIP3    H161822   1.510   0.340  17.409 -0.3612 -0.4390  0.3671
13469TIP3    H261823   1.396   0.299  17.319  0.7688 -0.6038 -1.0307
13470TIP3   OH261824   3.721   0.197  14.203  0.0971 -0.3296 -0.7761
13470TIP3    H161825   3.760   0.171  14.120  0.6355 -0.1661 -0.5797
13470TIP3    H261826   3.764   0.143  14.268 -0.4780 -0.6115 -0.6205
13471TIP3   OH261827   2.508   6.671   5.649  0.4529 -0.1485  0.0890
13471TIP3    H161828   2.484   6.688   5.558 -1.2775 -3.0564 -0.1372
13471TIP3    H261829   2.596   6.633   5.645  0.1067 -0.9174 -0.4859
13472TIP3   OH261830   3.581   0.322   2.317 -0.5186  0.6498  0.5046
13472TIP3    H161831   3.526   0.374   2.259  0.0036 -0.0442 -0.6519
13472TIP3    H261832   3.577   0.234   2.281  0.5968  0.3980  0.9473
13473TIP3   OH261833   0.029   3.672   2.570  0.4063 -0.0648 -0.6907
13473TIP3    H161834  -0.055   3.700   2.607 -0.0121 -0.3525 -1.3861
13473TIP3    H261835   0.081   3.752   2.566  0.8676 -0.1954  1.4493
13474TIP3   OH261836   3.273   4.195  12.366  0.4779  0.5642 -0.1630
13474TIP3    H161837   3.318   4.141  12.432  0.1951  1.4769  0.8063
13474TIP3    H261838   3.215   4.133  12.321 -0.8133  0.2202  1.8009
13475TIP3   OH261839   2.236   2.522   5.851  0.3686 -0.4525  0.2796
13475TIP3    H161840   2.197   2.473   5.778  0.9942 -0.4516 -0.0635
13475TIP3    H261841   2.228   2.463   5.926  2.9574 -2.0018 -0.5454
13476TIP3   OH261842   5.307   0.583  11.686  0.2143 -0.1830 -0.2634
13476TIP3    H161843   5.249   0.510  11.707 -0.3667  0.4628  0.4508
13476TIP3    H261844   5.395   0.548  11.703  0.1048 -1.3035 -1.7783
13477TIP3   OH261845   6.681   4.201   5.782 -0.1967 -0.3255 -0.5367
13477TIP3    H161846   6.735   4.272   5.818 -0.9312  0.2226 -0.4791
13477TIP3    H261847   6.683   4.133   5.850 -1.3897  0.6123  0.4951
13478TIP3   OH261848   6.408   3.213  15.657 -0.2657 -0.1138  0.1036
13478TIP3    H161849   6.415   3.179  15.746 -0.9467  0.4929  0.3951
13478TIP3    H261850   6.351   3.289  15.664  2.4213  2.1041 -0.2697
13479TIP3   OH261851   3.332   0.593  11.306 -0.0432 -0.1829  0.0399
13479TIP3    H161852   3.290   0.533  11.245 -1.6513 -0.0267  0.9536
13479TIP3    H261853   3.425   0.589  11.282  0.0059 -3.3256  0.3404
13480TIP3   OH261854   6.471   1.602   2.401  0.0093 -0.0218  0.0570
13480TIP3    H161855   6.532   1.675   2.388  1.0403 -0.8288  0.2311
13480TIP3    H261856   6.523   1.535   2.446 -1.1547 -0.5363  0.6802
13481TIP3   OH261857   6.522   4.883  16.992  0.0938  0.1796  0.3615
13481TIP3    H161858   6.615   4.869  16.977  0.2649 -0.5785  1.9563
13481TIP3    H261859   6.494   4.807  17.042 -1.7753 -0.4488 -1.4796
13482TIP3   OH261860   0.830   4.956   6.536 -0.3599 -0.7090 -0.2455
13482TIP3    H161861   0.863   4.934   6.623 -0.0767  2.1009  0.4445
13482TIP3    H261862   0.906   4.948   6.479 -0.7412 -3.4710 -0.5150
13483TIP3   OH261863   0.417   2.451  10.738  0.1317 -0.1142  0.5091
13483TIP3    H161864   0.377   2.482  10.819 -0.2951 -1.2742  0.7537
13483TIP3    H261865   0.468   2.526  10.707 -1.5328  1.1415  0.6254
13484TIP3   OH261866   6.274   2.865   1.144  0.1802 -0.2361 -0.3303
13484TIP3    H161867   6.272   2.956   1.113 -2.4724  0.1584  0.7544
13484TIP3    H261868   6.349   2.861   1.202  0.2826  1.2922 -0.3142
13485TIP3   OH261869   2.830   1.054   0.330  0.3023 -0.1288 -0.0378
13485TIP3    H161870   2.760   1.040   0.395  0.7040  1.1489  0.6954
13485TIP3    H261871   2.811   1.139   0.292  1.7167  0.4603  0.5136
13486TIP3   OH261872   0.008   6.224  17.358  0.6007  0.1159  0.2705
13486TIP3    H161873   0.095   6.188  17.376  0.6260 -0.5678 -1.0466
13486TIP3    H261874  -0.038   6.218  17.442  1.7097  0.1757  0.9085
13487TIP3   OH261875   0.702   4.937  11.934  0.0719  0.0419  0.7331
13487TIP3    H161876   0.632   4.962  11.995  0.2607 -0.3506  1.1207
13487TIP3    H261877   0.724   5.017  11.889 -0.9004  0.0969  0.3271
13488TIP3   OH261878   4.828   4.496  15.529 -0.0358  0.4856  0.0469
13488TIP3    H161879   4.836   4.419  15.586  1.8348 -1.0034 -2.0682
13488TIP3    H261880   4.865   4.568  15.580  1.6122 -0.8070  0.7534
13489TIP3   OH261881   6.521   3.167   4.647  0.6482 -0.7146  0.2536
13489TIP3    H161882   6.435   3.199   4.622  1.8384  1.5042 -1.3358
13489TIP3    H261883   6.503   3.092   4.704 -2.2787 -1.3381 -1.3058
13490TIP3   OH261884   2.074   4.549   5.908  0.1481 -0.0927 -0.3206
13490TIP3    H161885   2.100   4.638   5.886 -1.0549  0.5397  0.7067
13490TIP3    H261886   2.103   4.496   5.833  2.3516  0.8610 -0.2204
13491TIP3   OH261887   5.504   0.484   5.469 -0.0894 -0.1622  0.5687
13491TIP3    H161888   5.563   0.530   5.528 -1.4510 -0.0593  1.9068
13491TIP3    H261889   5.430   0.543   5.457  0.6634  0.3295 -2.2582
13492TIP3   OH261890   5.742   6.257   0.380  0.3940  0.2168  0.6838
13492TIP3    H161891   5.731   6.298   0.466  0.0468 -2.1240  1.8141
13492TIP3    H261892   5.781   6.172   0.398 -0.5350 -0.7225 -1.3949
13493TIP3   OH261893   2.024   4.368   2.207  0.6139  0.4356  0.2385
13493TIP3    H161894   2.060   4.456   2.196  1.8097 -0.2115 -1.3333
13493TIP3    H261895   1.935   4.373   2.172 -0.2498  1.5599  2.3667
13494TIP3   OH261896   1.545   1.653   0.051  0.9365 -0.2992  0.5443
13494TIP3    H161897   1.497   1.726   0.091 -0.4986 -1.5369  1.1680
13494TIP3    H261898   1.554   1.677  -0.041  0.2107  0.5330  0.6792
13495TIP3   OH261899   5.333   0.055   4.072 -0.0244  0.0884 -0.0605
13495TIP3    H161900   5.246   0.059   4.031 -0.7157  1.7276  1.4739
13495TIP3    H261901   5.321   0.090   4.160  2.1695  0.1629  0.2786
13496TIP3   OH261902   3.323   4.514  12.062  0.1250 -0.1764 -0.9602
13496TIP3    H161903   3.384   4.586  12.082 -0.1937 -0.2434  0.3296
13496TIP3    H261904   3.242   4.558  12.035 -0.1233 -0.0297 -0.0110
13497TIP3   OH261905   4.024   1.361   5.819  0.1033 -0.1174 -0.3137
13497TIP3    H161906   4.076   1.282   5.833  0.1407 -0.4808 -2.2732
13497TIP3    H261907   4.059   1.399   5.739 -0.0946  1.7738  0.4399
13498TIP3   OH261908   3.867   1.307  16.866 -0.2692  0.4656 -0.1212
13498TIP3    H161909   3.898   1.320  16.776  0.3350  0.3513  0.0660
13498TIP3    H261910   3.944   1.323  16.920  0.2102 -2.5114  0.2149
13499TIP3   OH261911   2.433   4.879   5.591 -0.4075 -0.6205 -0.2349
13499TIP3    H161912   2.496   4.936   5.636  0.2472 -1.2117 -0.3722
13499TIP3    H261913   2.479   4.795   5.584 -0.2870 -0.4036 -2.4871
13500TIP3   OH261914   1.558   3.340  12.067  0.2529  0.3021  0.0563
13500TIP3    H161915   1.502   3.416  12.082  0.7483  1.2587 -2.3375
13500TIP3    H261916   1.497   3.268  12.049 -0.2302  0.8773 -0.6512
13501TIP3   OH261917   2.176   3.803  15.570 -0.3221 -0.0444  0.5143
13501TIP3    H161918   2.230   3.755  15.508  0.7273  0.9955  0.5887
13501TIP3    H261919   2.125   3.864  15.516  1.3382  1.5838  0.6856
13502TIP3   OH261920   4.540   3.514   0.757 -0.4858 -0.5436 -0.6896
13502TIP3    H161921   4.578   3.540   0.673 -0.4574  1.5222 -0.0887
13502TIP3    H261922   4.446   3.526   0.745 -0.4688 -0.1061 -0.3710
13503TIP3   OH261923   1.406   6.313  15.424  0.0224  0.1206 -0.0143
13503TIP3    H161924   1.479   6.293  15.364  0.5894 -0.4766  0.8538
13503TIP3    H261925   1.368   6.393  15.389  0.2476 -0.2930 -1.2657
13504TIP3   OH261926   0.429   1.383  16.681  0.4355 -0.5535 -0.4907
13504TIP3    H161927   0.343   1.424  16.675 -0.1827 -1.7161  0.1100
13504TIP3    H261928   0.413   1.301  16.727  2.5149  1.1449  3.7891
13505TIP3   OH261929   4.582   6.121  14.804 -0.4532  0.2079 -0.0231
13505TIP3    H161930   4.505   6.170  14.773  0.1745  1.5551  0.4986
13505TIP3    H261931   4.638   6.113  14.727 -1.1022 -0.8425 -0.4262
13506TIP3   OH261932   4.739   5.958   4.611 -0.1082  0.5376  0.1916
13506TIP3    H161933   4.723   5.866   4.588 -0.3524  1.2367 -3.0219
13506TIP3    H261934   4.660   5.984   4.658 -0.1066 -0.8467  1.0161
13507TIP3   OH261935   5.855   1.331  14.330 -0.3032  0.5186 -0.0723
13507TIP3    H161936   5.779   1.319  14.388 -0.3711  1.2048 -0.0124
13507TIP3    H261937   5.930   1.336  14.389  0.0476 -1.9513 -0.2095
13508TIP3   OH261938   6.385   3.893  11.438  0.4527 -0.0969 -0.2173
13508TIP3    H161939   6.351   3.898  11.349  2.1500 -1.6043 -1.0302
13508TIP3    H261940   6.389   3.984  11.468 -1.2720  0.3394 -1.2067
13509TIP3   OH261941   1.756   5.259   1.379  0.2389  0.4722  0.0190
13509TIP3    H161942   1.789   5.244   1.290  0.0777  1.7255 -0.2671
13509TIP3    H261943   1.663   5.279   1.366  0.3066  1.0716  0.4206
13510TIP3   OH261944   1.720   1.201   5.158  0.4936  0.2113 -0.2678
13510TIP3    H161945   1.702   1.253   5.237  2.1402  0.3927  0.0286
13510TIP3    H261946   1.744   1.115   5.192 -0.5179 -0.2420 -0.6770
13511TIP3   OH261947   2.141   1.814   6.674  0.2279 -0.4545  0.1237
13511TIP3    H161948   2.223   1.858   6.651  0.5172 -0.8591  0.3554
13511TIP3    H261949   2.076   1.884   6.678  1.1044  0.3290  2.7192
13512TIP3   OH261950   2.855   1.386  13.446 -0.2877 -0.8133 -0.3235
13512TIP3    H161951   2.829   1.462  13.394 -0.2555 -1.6600 -1.6423
13512TIP3    H261952   2.949   1.397  13.460 -0.5995  0.3234  1.1572
13513TIP3   OH261953   1.589   4.398   4.565  0.1139 -0.0792 -0.4749
13513TIP3    H161954   1.518   4.370   4.622 -0.3575  0.6013 -0.7110
13513TIP3    H261955   1.553   4.473   4.517  0.0759 -1.3788 -2.5895
13514TIP3   OH261956   2.832   4.453  13.273 -0.1301 -0.3212 -0.3995
13514TIP3    H161957   2.822   4.393  13.347  1.0996 -0.7573 -0.5675
13514TIP3    H261958   2.855   4.537  13.313 -2.7092  0.3265 -0.1044
13515TIP3   OH261959   3.977   6.277   4.633  0.1910 -0.0196 -0.1881
13515TIP3    H161960   4.027   6.354   4.605 -1.0050  0.6976 -0.4314
13515TIP3    H261961   4.039   6.205   4.628  1.6210  1.0711  0.9672
13516TIP3   OH261962   6.151   0.155  15.353  0.1929  0.1371  0.5732
13516TIP3    H161963   6.153   0.115  15.440 -0.4533 -0.2931  0.3972
13516TIP3    H261964   6.127   0.084  15.294  2.3067  0.0268 -0.2124
13517TIP3   OH261965   5.440   5.347   2.609 -0.1530 -0.2441 -0.2191
13517TIP3    H161966   5.395   5.264   2.623  0.3413 -0.5425 -0.3843
13517TIP3    H261967   5.390   5.410   2.661  0.6035 -0.9925  1.4752
13518TIP3   OH261968   2.279   3.896  14.284 -0.1657  0.4350  0.8701
13518TIP3    H161969   2.367   3.890  14.247 -1.1269 -1.7202 -1.3704
13518TIP3    H261970   2.293   3.889  14.379  2.2889  4.5783  1.0330
13519TIP3   OH261971   3.447   2.806  15.147 -0.4938  0.1175 -0.3650
13519TIP3    H161972   3.515   2.873  15.140 -0.5486  0.1158 -0.9496
13519TIP3    H261973   3.413   2.816  15.236  0.9859 -0.5796  0.3273
13520TIP3   OH261974   6.579   0.265  12.413  0.0227 -0.1529  0.0144
13520TIP3    H161975   6.572   0.170  12.398 -1.0157 -0.2821  1.1951
13520TIP3    H261976   6.502   0.287  12.465 -0.0275  1.4490 -0.6827
13521TIP3   OH261977   2.935   5.074  14.713 -0.7084  0.6760  0.4042
13521TIP3    H161978   2.974   5.146  14.762  0.6619  0.6294 -0.5602
13521TIP3    H261979   2.950   5.097  14.621 -0.3913 -0.7520  0.0752
13522TIP3   OH261980   2.587   6.383   0.642 -0.5493  0.5867  0.4399
13522TIP3    H161981   2.553   6.446   0.579  0.3934  0.7379  0.0699
13522TIP3    H261982   2.539   6.303   0.624 -1.7189  1.1677  0.8737
13523TIP3   OH261983   1.845   3.764   1.152  0.5432 -0.2106 -0.4888
13523TIP3    H161984   1.927   3.731   1.189  0.8855 -0.3932 -1.3923
13523TIP3    H261985   1.859   3.763   1.058 -1.0912 -1.8266 -0.7725
13524TIP3   OH261986   0.738   1.880   0.176  0.1597 -0.0949 -0.4471
13524TIP3    H161987   0.655   1.845   0.207  1.4102 -1.9129  1.0272
13524TIP3    H261988   0.751   1.840   0.090 -0.4174  0.0936 -0.6228
13525TIP3   OH261989   1.478   5.822   0.128  0.4837 -0.3573 -0.3216
13525TIP3    H161990   1.522   5.823   0.043  1.0024  0.6470 -0.0622
13525TIP3    H261991   1.524   5.754   0.178  2.6498  1.4580  0.3599
13526TIP3   OH261992   5.739   0.957  17.203 -0.0747 -0.0997  0.8862
13526TIP3    H161993   5.826   0.996  17.207 -0.4826  0.8492  0.8484
13526TIP3    H261994   5.684   1.016  17.255 -0.7552 -0.5067  0.6366
13527TIP3   OH261995   6.335   4.858   3.489  0.0067  0.4615  0.6351
13527TIP3    H161996   6.340   4.766   3.465 -0.6746  0.5988 -0.1194
13527TIP3    H261997   6.241   4.875   3.497 -0.0554  1.6625 -1.7102
13528TIP3   OH261998   6.622   3.293  15.473 -0.0497 -0.0768  0.4398
13528TIP3    H161999   6.592   3.221  15.529 -0.1623 -0.2176  0.2010
13528TIP3    H262000   6.559   3.294  15.401 -0.0276  0.2413  0.4266
13529TIP3   OH262001   2.460   1.546   3.547  0.4843  0.6022  0.1575
13529TIP3    H162002   2.469   1.594   3.628  0.2677  0.0435  0.5179
13529TIP3    H262003   2.499   1.460   3.565  0.6945  0.5708 -0.4122
13530TIP3   OH262004   1.453   0.653   3.762 -0.4373 -0.0480  0.1175
13530TIP3    H162005   1.364   0.638   3.795  0.1910  1.8177  3.0236
13530TIP3    H262006   1.458   0.748   3.751 -0.0669 -0.3636 -4.3266
13531TIP3   OH262007   4.294   0.448  14.123 -0.0624  0.2930  0.1559
13531TIP3    H162008   4.318   0.380  14.061  0.4399 -0.9756  1.6763
13531TIP3    H262009   4.206   0.425  14.153 -1.3982  2.3303 -1.9132
13532TIP3   OH262010   1.858   2.323   0.278 -0.0755  0.2626  0.1829
13532TIP3    H162011   1.780   2.377   0.259 -1.3567 -1.0943  1.3636
13532TIP3    H262012   1.832   2.234   0.254  0.9972 -0.2673  0.9128
13533TIP3   OH262013   3.482   2.215  11.854  0.2042 -0.4156 -0.0780
13533TIP3    H162014   3.564   2.186  11.893  1.3016 -0.7038 -2.4282
13533TIP3    H262015   3.452   2.140  11.803 -0.3238  0.4400 -1.0570
13534TIP3   OH262016   4.098   2.212   0.743 -0.3638 -0.5256 -0.0160
13534TIP3    H162017   4.005   2.237   0.744 -0.2813 -0.1929  1.0182
13534TIP3    H262018   4.108   2.154   0.819 -0.0951 -2.0562 -1.1557
13535TIP3   OH262019   5.057   5.434   4.832  0.5251 -0.1667  0.0725
13535TIP3    H162020   4.995   5.419   4.761  0.4498 -2.1791  0.5073
13535TIP3    H262021   5.019   5.390   4.908  2.4511 -1.5097  0.3399
13536TIP3   OH262022   4.911   3.183  14.456 -0.2702 -0.0870  0.0305
13536TIP3    H162023   4.819   3.194  14.435 -0.2453 -0.0813 -0.0741
13536TIP3    H262024   4.954   3.167  14.372 -0.3180 -1.0904  0.1832
13537TIP3   OH262025   0.380   0.619   2.043 -0.1336 -0.0897  0.0901
13537TIP3    H162026   0.447   0.558   2.071 -0.7820 -0.7327  0.2706
13537TIP3    H262027   0.300   0.588   2.086 -1.0651 -0.8022 -2.0294
13538TIP3   OH262028   1.990   0.980  11.736 -0.8855 -0.1363  0.5031
13538TIP3    H162029   1.976   1.056  11.793 -0.8414  0.2909 -0.0406
13538TIP3    H262030   1.903   0.943  11.723 -0.7845 -0.7600  1.5493
13539TIP3   OH262031   3.139   1.279  15.234  0.1418 -0.2872 -0.0917
13539TIP3    H162032   3.116   1.261  15.325  1.5631  1.1237  0.6127
13539TIP3    H262033   3.073   1.342  15.205  0.3871  0.2073  0.3911
13540TIP3   OH262034   4.920   5.618   5.600  0.5465 -0.1199  0.4707
13540TIP3    H162035   4.951   5.529   5.585  4.9069  1.3632 -0.6972
13540TIP3    H262036   4.912   5.625   5.696 -1.8875 -2.2303  0.5010
13541TIP3   OH262037   4.475   2.844   1.649 -0.0863 -0.1191  0.2592
13541TIP3    H162038   4.553   2.862   1.597 -0.3482  1.4116  0.3403
13541TIP3    H262039   4.405   2.891   1.604 -0.3260  1.2573  1.9500
13542TIP3   OH262040   1.395   0.725   1.914  0.2587  1.1460 -0.5462
13542TIP3    H162041   1.459   0.718   1.843  0.6787  0.8438 -0.1446
13542TIP3    H262042   1.341   0.646   1.906  2.3841 -0.6458  1.4538
13543TIP3   OH262043   0.064   4.191  16.404  0.2592  0.1787 -0.4327
13543TIP3    H162044   0.072   4.263  16.341  1.5633  2.0810  1.7344
13543TIP3    H262045   0.150   4.187  16.445 -0.2329 -1.7269  0.5067
13544TIP3   OH262046   3.890   0.158  17.185  0.0909 -0.8334  0.2311
13544TIP3    H162047   3.888   0.246  17.223  1.1644 -0.1540 -1.1917
13544TIP3    H262048   3.979   0.127  17.202  0.8086 -0.2582 -2.1678
13545TIP3   OH262049   5.594   6.197  16.264  0.6636 -0.0970 -0.2939
13545TIP3    H162050   5.558   6.200  16.352  2.7613  0.7989  0.6048
13545TIP3    H262051   5.658   6.268  16.261  1.1853 -0.5656 -2.2942
13546TIP3   OH262052   3.814   5.464  14.726  0.5668  0.4266 -0.6100
13546TIP3    H162053   3.830   5.438  14.817  0.7076  0.9771 -0.4750
13546TIP3    H262054   3.739   5.523  14.731  0.2457  0.0478 -0.9151
13547TIP3   OH262055   6.108   5.589  16.004 -0.3813 -0.1098  0.0159
13547TIP3    H162056   6.069   5.504  15.987  0.6282 -0.6076  0.0960
13547TIP3    H262057   6.064   5.621  16.083 -1.5472 -0.0447 -0.6483
13548TIP3   OH262058   1.383   5.202   4.349  0.0073  0.2668 -0.5023
13548TIP3    H162059   1.434   5.149   4.410  0.3265  1.1995  0.0622
13548TIP3    H262060   1.368   5.284   4.396 -2.7336 -0.2614 -0.3254
13549TIP3   OH262061   3.489   5.955   2.441  0.3304  0.0578 -0.2340
13549TIP3    H162062   3.535   5.943   2.358  2.2287 -1.7587  1.0015
13549TIP3    H262063   3.521   6.039   2.474  2.9909 -1.2049  0.6416
13550TIP3   OH262064   3.039   0.733  11.927  0.3348 -0.4290  0.0782
13550TIP3    H162065   3.036   0.651  11.877 -0.5508 -0.7442  0.6301
13550TIP3    H262066   2.973   0.722  11.995 -0.9645  1.3621 -0.8146
13551TIP3   OH262067   1.587   6.593   2.086 -0.4920 -0.3316 -0.3142
13551TIP3    H162068   1.569   6.630   1.999 -0.1751  2.3166  0.6498
13551TIP3    H262069   1.656   6.529   2.071  0.7217  1.2274 -1.8431
13552TIP3   OH262070   2.260   5.780  14.565 -0.5350  0.7377 -0.0961
13552TIP3    H162071   2.180   5.818  14.601 -1.2625  0.0391 -0.9388
13552TIP3    H262072   2.232   5.698  14.525  0.8383 -0.2288  0.8350
13553TIP3   OH262073   0.089   0.708   2.764  0.5132 -0.1195 -0.2771
13553TIP3    H162074   0.120   0.634   2.712  0.0080  0.0677 -0.8568
13553TIP3    H262075   0.130   0.785   2.725  0.6219 -0.0337 -0.0032
13554TIP3   OH262076   6.281   3.954   1.737 -0.3766  0.6730 -0.5327
13554TIP3    H162077   6.269   3.928   1.646 -0.1122  1.2501 -0.7333
13554TIP3    H262078   6.298   3.871   1.783 -0.3007  0.4031 -1.0401
13555TIP3   OH262079   2.642   2.399   1.628 -0.3254  0.0895 -0.0381
13555TIP3    H162080   2.610   2.309   1.630 -1.1351  0.3762  0.9435
13555TIP3    H262081   2.697   2.404   1.550 -0.1638 -1.2868 -0.0281
13556TIP3   OH262082   1.975   1.719  16.405  0.2422  0.0980  0.1204
13556TIP3    H162083   1.923   1.646  16.439 -0.5592  0.6779  0.1694
13556TIP3    H262084   1.911   1.783  16.374  0.8544  1.4643  1.4832
13557TIP3   OH262085   2.561   0.557   3.994  0.2000  0.8735  0.1585
13557TIP3    H162086   2.533   0.648   3.987  0.3918  0.8568 -0.8688
13557TIP3    H262087   2.640   0.551   3.942 -0.4275 -0.1318 -0.7179
13558TIP3   OH262088   1.713   5.083  16.548 -0.2445 -0.1043  0.2727
13558TIP3    H162089   1.658   5.159  16.566 -1.1580 -0.1956 -1.8557
13558TIP3    H262090   1.790   5.120  16.505 -0.5979 -0.3356 -0.5812
13559TIP3   OH262091   4.116   4.399  11.393  0.4015 -0.4436  0.2760
13559TIP3    H162092   4.113   4.431  11.484  0.7017 -1.0249  0.4987
13559TIP3    H262093   4.182   4.454  11.351 -0.9295  0.9424 -0.0486
13560TIP3   OH262094   5.560   3.547  16.036  0.6923 -0.6184  0.3309
13560TIP3    H162095   5.636   3.555  16.094  2.0725 -0.6652 -1.4022
13560TIP3    H262096   5.592   3.573  15.950 -1.2117 -0.8852 -0.5185
13561TIP3   OH262097   1.993   2.736  16.663  0.3718  0.1363  0.1027
13561TIP3    H162098   2.039   2.726  16.579  0.7209  0.1189  0.2964
13561TIP3    H262099   2.062   2.740  16.728  0.2218  2.4215  0.1916
13562TIP3   OH262100   0.924   5.436   5.125 -0.2048 -0.5466 -0.1527
13562TIP3    H162101   0.995   5.467   5.182 -0.7422  1.1073 -0.3261
13562TIP3    H262102   0.920   5.342   5.141  1.8042 -0.6433  0.0979
13563TIP3   OH262103   5.552   6.646   0.154  0.0765  0.1937  0.0313
13563TIP3    H162104   5.609   6.602   0.217 -0.4075  0.1614  0.4495
13563TIP3    H262105   5.550   6.587   0.078  1.6488  0.8142 -0.5215
13564TIP3   OH262106   0.406   5.709  12.565 -0.9518 -0.2089 -0.0852
13564TIP3    H162107   0.468   5.738  12.632 -2.6082  2.0451  0.6396
13564TIP3    H262108   0.414   5.614  12.563  1.5402 -0.0828  0.8849
13565TIP3   OH262109   5.472   4.199  12.104  0.3545 -0.1660 -0.4777
13565TIP3    H162110   5.401   4.261  12.120 -1.6723 -2.6659  0.8650
13565TIP3    H262111   5.473   4.189  12.009  0.0908  1.1545 -0.6464
13566TIP3   OH262112   2.395   5.863  16.785  0.0809 -0.1387 -0.2980
13566TIP3    H162113   2.362   5.900  16.703 -0.3565 -2.4037 -1.2312
13566TIP3    H262114   2.481   5.828  16.762 -0.4461 -1.6595 -0.1186
13567TIP3   OH262115   0.148   2.678  14.660  0.6888 -0.0765 -0.8146
13567TIP3    H162116   0.068   2.633  14.633  0.9366 -0.1718 -1.4153
13567TIP3    H262117   0.119   2.763  14.693  0.3224 -0.1880 -0.8525
13568TIP3   OH262118   3.790   0.900   0.902  0.0160 -0.3161  0.7280
13568TIP3    H162119   3.703   0.881   0.866  0.6249  0.3870 -1.2001
13568TIP3    H262120   3.788   0.993   0.924  0.2449 -0.3224  0.7804
13569TIP3   OH262121   3.067   2.758  15.774 -0.0800  0.6207  0.0720
13569TIP3    H162122   3.151   2.781  15.735  0.9058  0.3504  1.9570
13569TIP3    H262123   3.063   2.663  15.766 -0.3794  0.6668 -0.3409
13570TIP3   OH262124   0.766   4.362   4.082 -0.1355 -0.4264 -0.1188
13570TIP3    H162125   0.696   4.297   4.077 -2.5027  1.7601  1.6806
13570TIP3    H262126   0.792   4.361   4.175  0.2152  0.7315 -0.1911
13571TIP3   OH262127   1.928   2.864  12.154 -0.1262 -0.1173 -0.4026
13571TIP3    H162128   1.957   2.922  12.084 -0.3304 -1.0273 -1.2699
13571TIP3    H262129   1.995   2.796  12.158  1.0804  1.0688  1.8280
13572TIP3   OH262130   2.511   1.372   2.399  0.6992 -0.1584 -0.2000
13572TIP3    H162131   2.524   1.307   2.468 -0.4558 -0.7314 -0.4980
13572TIP3    H262132   2.478   1.322   2.325  2.9855  0.2575 -1.6130
13573TIP3   OH262133   4.796   2.490  14.590  0.3547 -0.3779  0.1702
13573TIP3    H162134   4.807   2.398  14.568  0.0972 -0.8993  2.1024
13573TIP3    H262135   4.745   2.526  14.517 -0.8425 -2.0990  0.1037
13574TIP3   OH262136   2.776   3.804   5.087 -0.0891  0.3658  0.1871
13574TIP3    H162137   2.791   3.710   5.075  0.5541  0.5002 -0.0858
13574TIP3    H262138   2.855   3.836   5.131  1.5795  1.5151 -3.3403
13575TIP3   OH262139   5.346   6.347   0.533 -0.2070 -0.0804 -0.5862
13575TIP3    H162140   5.290   6.424   0.543  1.1377  0.9281 -0.4673
13575TIP3    H262141   5.285   6.274   0.519 -1.5521  0.8664  0.1041
13576TIP3   OH262142   3.135   3.981  13.400 -0.2589 -0.2209 -0.4641
13576TIP3    H162143   3.221   3.959  13.364  0.4406 -0.7488  1.4343
13576TIP3    H262144   3.092   3.896  13.414 -1.0229  0.0286 -1.1824
13577TIP3   OH262145   6.541   0.296   2.942 -0.4306  0.3293  0.0702
13577TIP3    H162146   6.529   0.216   2.993  0.9185 -0.8195 -1.3070
13577TIP3    H262147   6.459   0.343   2.950 -1.8910 -1.9981 -0.3914
13578TIP3   OH262148   5.529   5.720   0.920  0.4650 -0.5225  0.3138
13578TIP3    H162149   5.516   5.714   1.015  1.4390 -0.5817  0.4455
13578TIP3    H262150   5.619   5.693   0.905 -0.0896 -1.8772 -0.7910
13579TIP3   OH262151   4.057   4.089   6.530 -0.3538  0.4306  0.0398
13579TIP3    H162152   3.993   4.023   6.556 -0.9871  0.8467 -0.4358
13579TIP3    H262153   4.075   4.137   6.611  0.4059 -0.5478  0.4749
13580TIP3   OH262154   5.752   3.438   5.866  0.4631  0.1395  0.1487
13580TIP3    H162155   5.676   3.380   5.864  1.3249 -1.0627  1.0014
13580TIP3    H262156   5.810   3.400   5.931  3.1068 -0.6794 -2.4658
13581TIP3   OH262157   0.656   5.060  14.848  0.1363 -0.3352  0.3315
13581TIP3    H162158   0.699   5.101  14.923 -1.0740 -0.1577  0.9526
13581TIP3    H262159   0.619   4.979  14.882  0.4723 -0.7773 -0.3284
13582TIP3   OH262160   6.007   2.059   5.016  0.5055 -0.3867 -0.4834
13582TIP3    H162161   5.953   2.027   5.089  0.5039  0.2400 -0.1977
13582TIP3    H262162   6.097   2.051   5.047  0.4887  0.2479 -0.2457
13583TIP3   OH262163   1.606   3.364   5.356  0.0205  0.3998 -0.2521
13583TIP3    H162164   1.659   3.327   5.285 -0.5454  1.6913 -1.3969
13583TIP3    H262165   1.578   3.288   5.407  0.6062 -0.5500 -1.2968
13584TIP3   OH262166   2.772   3.892  11.746  0.1655 -0.1473 -0.0410
13584TIP3    H162167   2.710   3.879  11.817 -1.6109  0.6558 -1.3806
13584TIP3    H262168   2.745   3.831  11.678  0.6747  0.4042 -0.7521
13585TIP3   OH262169   1.019   2.552   1.815 -0.3758  0.1429  0.0521
13585TIP3    H162170   1.104   2.569   1.856 -0.8112  1.7354  0.3416
13585TIP3    H262171   1.032   2.577   1.723  0.5745 -3.3361 -0.9114
13586TIP3   OH262172   2.862   0.498   2.753 -0.2728  0.0410 -0.2023
13586TIP3    H162173   2.945   0.510   2.708  0.2294  0.2264  0.7423
13586TIP3    H262174   2.849   0.579   2.802 -1.5471  0.4563 -1.1584
13587TIP3   OH262175   2.896   4.197   4.751 -0.2027 -0.7480  0.5928
13587TIP3    H162176   2.812   4.195   4.798 -0.4777  1.9414  0.3547
13587TIP3    H262177   2.919   4.289   4.746  2.2934 -1.3269 -0.2865
13588TIP3   OH262178   2.364   2.237  17.159  0.0362 -0.1280 -0.4287
13588TIP3    H162179   2.452   2.276  17.155  0.1878 -0.3716  0.3949
13588TIP3    H262180   2.337   2.247  17.250  0.4593 -2.7094  0.0609
13589TIP3   OH262181   2.386   4.593  16.811 -0.3811 -0.3233 -1.0796
13589TIP3    H162182   2.385   4.549  16.897  1.6200 -0.4293 -1.0617
13589TIP3    H262183   2.410   4.683  16.831 -1.9619  0.1898 -1.3673
13590TIP3   OH262184   1.482   2.852   0.790 -0.1746 -0.3027 -0.1266
13590TIP3    H162185   1.556   2.902   0.823 -0.9206  0.1813  0.8773
13590TIP3    H262186   1.421   2.848   0.864 -1.3685 -0.2491 -1.0739
13591TIP3   OH262187   1.172   4.630  14.482 -0.0959 -0.3909  0.0558
13591TIP3    H162188   1.221   4.548  14.489 -1.5917 -1.2794  0.9235
13591TIP3    H262189   1.128   4.624  14.397 -1.1026 -1.0680  0.5970
13592TIP3   OH262190   2.353   0.981   2.335 -0.5402  0.5088 -0.4154
13592TIP3    H162191   2.269   0.965   2.378 -1.9918  3.6595 -1.7402
13592TIP3    H262192   2.392   0.894   2.324 -2.8700 -0.9148  1.6673
13593TIP3   OH262193   1.269   0.361  12.986  0.2394 -0.2919  0.2291
13593TIP3    H162194   1.326   0.393  12.917 -1.0955  0.4594 -0.5786
13593TIP3    H262195   1.271   0.429  13.053  0.5740 -0.4399  0.3694
13594TIP3   OH262196   6.490   6.403   1.820  0.7995 -0.2178 -0.0282
13594TIP3    H162197   6.469   6.490   1.854  0.6158 -0.2391 -0.0826
13594TIP3    H262198   6.515   6.419   1.729  2.3857 -0.0282  0.4184
13595TIP3   OH262199   3.960   3.539   4.444  0.1299 -0.4614  1.1128
13595TIP3    H162200   3.873   3.579   4.433  1.0135  2.0096  2.3397
13595TIP3    H262201   3.994   3.532   4.355 -0.9109 -0.4946  0.6976
13596TIP3   OH262202   5.342   1.424   0.330 -0.8977  0.2326  0.0098
13596TIP3    H162203   5.344   1.443   0.236 -0.1096  3.7869  0.6023
13596TIP3    H262204   5.434   1.416   0.355 -1.0008 -5.6249 -0.1032
13597TIP3   OH262205   2.870   5.089  17.279 -0.6506 -0.3232 -0.1209
13597TIP3    H162206   2.786   5.107  17.238 -0.2449  1.1595 -0.3374
13597TIP3    H262207   2.853   5.092  17.373 -1.0869 -1.3662 -0.1472
13598TIP3   OH262208   0.823   3.643   4.012 -0.1120  0.5648 -0.0982
13598TIP3    H162209   0.817   3.575   4.079  0.3513 -0.9337 -1.4961
13598TIP3    H262210   0.736   3.682   4.008  0.1464  1.5574  2.1693
13599TIP3   OH262211   3.439   5.471  17.091  0.8036  0.0122 -0.3717
13599TIP3    H162212   3.346   5.491  17.081  0.8372  0.0412 -0.6428
13599TIP3    H262213   3.441   5.377  17.109  0.4507  0.6002  3.7337
13600TIP3   OH262214   4.185   3.592  11.332  0.0517  0.4678  0.0708
13600TIP3    H162215   4.211   3.537  11.258  0.7851  0.2025  0.5229
13600TIP3    H262216   4.267   3.623  11.370 -0.3069  0.3620  0.9608
13601TIP3   OH262217   6.117   6.124   1.210  0.6006  0.2237 -0.0519
13601TIP3    H162218   6.032   6.084   1.229 -0.0083  1.4952  0.0024
13601TIP3    H262219   6.114   6.209   1.254  2.1229  0.0838  0.4036
13602TIP3   OH262220   1.949   6.119   3.469 -0.2632  0.2458 -0.2871
13602TIP3    H162221   1.966   6.213   3.472 -0.3426  0.2381  1.9104
13602TIP3    H262222   1.856   6.110   3.492 -0.5362 -0.3454 -1.5084
13603TIP3   OH262223   4.173   3.007  10.974 -0.1894  0.8554  0.6151
13603TIP3    H162224   4.119   3.071  10.928 -0.0399  1.1629  0.8568
13603TIP3    H262225   4.247   2.992  10.916  0.8219  2.4535  1.4063
13604TIP3   OH262226   0.992   0.642  12.354 -0.2916  0.1575 -0.2161
13604TIP3    H162227   1.029   0.619  12.269  1.2902  2.6760 -0.3239
13604TIP3    H262228   1.057   0.612  12.418  0.1115  1.1159 -0.1525
13605TIP3   OH262229   4.534   4.912  11.924  0.1257  0.1574 -0.4665
13605TIP3    H162230   4.447   4.885  11.953 -0.6863  2.1380 -0.8902
13605TIP3    H262231   4.569   4.963  11.997  0.1735  0.8720 -0.9725
13606TIP3   OH262232   2.253   4.684  14.723  0.2775 -0.0305 -0.0386
13606TIP3    H162233   2.203   4.766  14.725  0.6972  0.2241  0.2898
13606TIP3    H262234   2.187   4.615  14.713 -0.0429  0.3822 -0.8783
13607TIP3   OH262235   3.547   1.562  12.808 -0.2384  0.1074 -0.7270
13607TIP3    H162236   3.592   1.480  12.826  1.6557  0.3035 -3.9454
13607TIP3    H262237   3.613   1.619  12.768 -1.8223  2.7616  0.1027
13608TIP3   OH262238   0.847   0.750   6.067 -0.3953 -0.1635  0.2286
13608TIP3    H162239   0.895   0.823   6.027 -0.2045 -0.2261  0.3393
13608TIP3    H262240   0.755   0.771   6.052 -0.3755  0.5338  1.0058
13609TIP3   OH262241   2.988   1.160   4.413  0.4406 -0.7695  0.4473
13609TIP3    H162242   2.987   1.191   4.503 -3.8427  1.4166 -0.1115
13609TIP3    H262243   2.934   1.081   4.414 -0.5948 -0.0971 -0.3129
13610TIP3   OH262244   0.343   5.959   4.993  0.4297 -0.1565 -0.1616
13610TIP3    H162245   0.323   5.867   4.977 -0.5115 -0.2116  1.1561
13610TIP3    H262246   0.258   6.000   5.007  0.8963  0.7125  0.2262
13611TIP3   OH262247   5.875   5.158  17.312 -0.3597 -0.5149 -0.0190
13611TIP3    H162248   5.963   5.126  17.293 -0.0239  1.4513 -2.2241
13611TIP3    H262249   5.878   5.183  17.404  1.4840 -0.2975 -0.0891
13612TIP3   OH262250   2.344   6.062  10.712 -0.1653 -0.4797 -0.1017
13612TIP3    H162251   2.430   6.098  10.733 -0.0949 -0.1959 -0.8551
13612TIP3    H262252   2.361   5.976  10.675 -0.0626  0.2864 -1.9326
13613TIP3   OH262253   1.108   0.296   1.601  0.1496  0.3498  0.6034
13613TIP3    H162254   1.017   0.266   1.604  0.2003  0.2799  1.9450
13613TIP3    H262255   1.104   0.387   1.631  0.2012  1.2630 -1.9135
13614TIP3   OH262256   2.697   5.873  17.307 -0.2124  0.4308  0.0394
13614TIP3    H162257   2.664   5.823  17.382  0.1138  1.6291  1.0236
13614TIP3    H262258   2.694   5.964  17.337 -1.2255  1.0678 -1.8543
13615TIP3   OH262259   1.579   3.384  13.229  0.1569 -0.1312 -0.2440
13615TIP3    H162260   1.511   3.440  13.190 -0.1548 -0.1167  0.3062
13615TIP3    H262261   1.552   3.375  13.320  0.1059 -1.3210 -0.3631
13616TIP3   OH262262   0.087   4.925  16.638 -0.2822 -0.0778 -0.0792
13616TIP3    H162263   0.155   4.886  16.582 -0.5469 -2.0158  0.8938
13616TIP3    H262264   0.125   5.008  16.666  1.2046 -0.5720 -0.5133
13617TIP3   OH262265   3.148   5.557   4.483 -0.2901  0.2637 -0.4561
13617TIP3    H162266   3.090   5.598   4.419 -0.5421  0.7795  0.0951
13617TIP3    H262267   3.236   5.567   4.445 -0.1485  2.6753  0.3218
13618TIP3   OH262268   4.717   3.077   2.820  0.2229 -0.3780  0.2089
13618TIP3    H162269   4.726   2.991   2.780  0.7919 -0.5968  0.7960
13618TIP3    H262270   4.769   3.072   2.901  0.3822  0.5587  0.1768
13619TIP3   OH262271   0.185   4.172   3.004  0.2423  0.2582  0.2672
13619TIP3    H162272   0.132   4.155   2.927  0.0706 -1.9170  0.8064
13619TIP3    H262273   0.269   4.129   2.986  0.2670 -0.1127  1.2078
13620TIP3   OH262274   0.689   4.438  15.225  0.5116 -0.2436  0.0838
13620TIP3    H162275   0.678   4.453  15.319 -2.4489 -0.7378 -0.0910
13620TIP3    H262276   0.652   4.350  15.211 -0.9286  0.5978 -1.7762
13621TIP3   OH262277   6.659   0.566   0.350  0.3934 -0.1062  0.3521
13621TIP3    H162278   6.669   0.540   0.442  1.9283 -0.2936  0.1618
13621TIP3    H262279   6.664   0.661   0.351  1.3903 -0.1537  0.3687
13622TIP3   OH262280   3.251   5.106   3.767 -0.2310  0.4513 -0.6727
13622TIP3    H162281   3.235   5.111   3.861 -0.3041  1.3063 -0.7241
13622TIP3    H262282   3.336   5.063   3.760 -0.0035  0.8118 -0.1951
13623TIP3   OH262283   2.586   0.884  14.443 -0.0033 -0.6149 -0.0346
13623TIP3    H162284   2.589   0.830  14.522  2.6830  1.1331  1.2013
13623TIP3    H262285   2.572   0.973  14.475 -2.6493 -0.2359 -1.8899
13624TIP3   OH262286   0.853   2.386  14.196 -0.1925 -0.3016  0.0744
13624TIP3    H162287   0.765   2.424  14.203  0.3755  1.1581 -0.3429
13624TIP3    H262288   0.868   2.344  14.280 -1.1589 -0.2678  0.2735
13625TIP3   OH262289   3.488   4.082   3.902 -0.6211 -0.3725 -0.2507
13625TIP3    H162290   3.554   4.127   3.848  2.3280 -2.0353  1.6967
13625TIP3    H262291   3.404   4.106   3.862  1.0403  2.6639 -2.3241
13626TIP3   OH262292   1.908   0.372   6.276 -0.2606 -0.2972 -0.2000
13626TIP3    H162293   1.909   0.307   6.346  1.3852 -0.1349 -0.0497
13626TIP3    H262294   1.857   0.445   6.312  0.1129 -0.4373  0.6186
13627TIP3   OH262295   6.706   4.109  14.139 -0.2040 -0.6159  0.8337
13627TIP3    H162296   6.728   4.053  14.213 -1.9185 -1.3420  0.8513
13627TIP3    H262297   6.640   4.059  14.091  1.7106 -0.7116 -1.9020
13628TIP3   OH262298   4.954   3.971   0.011 -0.0400  0.2237  0.1960
13628TIP3    H162299   4.892   3.970   0.085 -0.0358 -0.4133  0.1964
13628TIP3    H262300   4.958   4.062  -0.015 -0.4574  0.3761  0.6436
13629TIP3   OH262301   1.799   4.687  11.107 -0.7289 -0.1850 -0.1561
13629TIP3    H162302   1.711   4.652  11.087 -1.0336  0.9429 -0.8657
13629TIP3    H262303   1.818   4.746  11.035  0.5504 -0.2603  0.1005
13630TIP3   OH262304   2.255   1.203   3.337  0.1414 -0.2258  0.8509
13630TIP3    H162305   2.335   1.152   3.323  0.2739  0.2983 -0.4520
13630TIP3    H262306   2.199   1.147   3.391  0.2039 -1.8384 -0.7025
13631TIP3   OH262307   4.093   1.713   2.095  0.1916 -0.0129 -0.7506
13631TIP3    H162308   4.117   1.679   2.181 -2.1341  0.1450  0.0436
13631TIP3    H262309   4.164   1.773   2.072  1.8865 -1.5988  0.0887
13632TIP3   OH262310   0.770   2.565   4.282 -0.5333  0.0265 -1.0354
13632TIP3    H162311   0.777   2.660   4.276 -1.9926  0.1162 -1.7350
13632TIP3    H262312   0.744   2.548   4.373 -1.8959  0.4388 -1.3268
13633TIP3   OH262313   3.478   3.438  16.825  0.6594 -0.6246  0.1514
13633TIP3    H162314   3.422   3.487  16.764  0.3609 -1.7682 -0.5277
13633TIP3    H262315   3.553   3.495  16.840  0.0093  0.3146 -0.0942
13634TIP3   OH262316   5.987   2.069   2.850  0.1376 -0.4180 -0.4864
13634TIP3    H162317   6.017   1.995   2.903  1.7102 -0.8519 -1.9075
13634TIP3    H262318   6.032   2.059   2.767  1.6254  2.9342 -0.2439
13635TIP3   OH262319   2.541   6.685   4.519 -0.1076 -0.5095 -0.1774
13635TIP3    H162320   2.571   6.712   4.432  0.2023 -1.9278 -0.5334
13635TIP3    H262321   2.447   6.703   4.519  0.0676  0.4895 -0.4017
13636TIP3   OH262322   6.577   5.685   4.013 -0.4975 -0.3176 -0.0711
13636TIP3    H162323   6.668   5.668   3.987 -0.4556 -0.9331  0.4600
13636TIP3    H262324   6.582   5.767   4.063 -0.7841  1.7264 -3.1222
13637TIP3   OH262325   3.550   0.738   0.420 -0.3081 -0.0112  0.3776
13637TIP3    H162326   3.549   0.689   0.502 -0.2509 -1.2906 -0.3600
13637TIP3    H262327   3.468   0.787   0.420 -0.9169 -1.0037  0.6261
13638TIP3   OH262328   3.322   2.792  16.246 -0.2703 -0.7061  0.3150
13638TIP3    H162329   3.386   2.820  16.311  0.8618 -2.2818 -0.0404
13638TIP3    H262330   3.269   2.726  16.291 -0.8439 -0.2996  0.2432
13639TIP3   OH262331   1.708   4.058  16.546  0.3769 -0.0631  0.5217
13639TIP3    H162332   1.773   4.048  16.616 -0.4043 -1.7179  1.0614
13639TIP3    H262333   1.661   4.138  16.568  0.3984 -0.3547  1.6967
13640TIP3   OH262334   4.500   0.467  15.239 -0.4183  0.0181 -0.0175
13640TIP3    H162335   4.486   0.530  15.170 -0.5986  0.2499  0.2291
13640TIP3    H262336   4.458   0.505  15.316 -1.0084 -0.6481  0.0019
13641TIP3   OH262337   4.983   3.511  12.276 -0.4447 -0.4635  0.2897
13641TIP3    H162338   5.020   3.559  12.350 -0.9550 -0.6736  0.6975
13641TIP3    H262339   4.927   3.574  12.231 -0.0019 -0.2896 -0.0156
13642TIP3   OH262340   4.727   3.875   3.105  0.4563 -0.2511  0.3676
13642TIP3    H162341   4.647   3.925   3.091  2.4291  2.7498 -1.3219
13642TIP3    H262342   4.764   3.912   3.186  0.5374 -1.0650  0.7124
13643TIP3   OH262343   0.324   0.635  17.343 -0.0134  0.0297 -0.2906
13643TIP3    H162344   0.326   0.675  17.256  0.1682  0.5581 -0.0522
13643TIP3    H262345   0.313   0.542  17.327 -0.0855  0.1352 -0.8758
13644TIP3   OH262346   1.342   3.301   0.115  0.4637  0.5205  0.3369
13644TIP3    H162347   1.335   3.340   0.028 -0.2673  1.8955  0.9852
13644TIP3    H262348   1.298   3.216   0.107  0.1012  0.7847 -0.5416
13645TIP3   OH262349   0.866   2.975  14.401 -0.0846 -0.2488 -0.5912
13645TIP3    H162350   0.799   2.985  14.332 -0.9468  0.4112  0.3100
13645TIP3    H262351   0.830   3.022  14.476  2.0139  1.3611 -0.4900
13646TIP3   OH262352   3.005   5.665   3.328  0.0806 -0.4703  0.2742
13646TIP3    H162353   3.022   5.754   3.359  0.4978 -0.1747 -0.7747
13646TIP3    H262354   2.930   5.636   3.380  0.7718 -0.0167  1.5853
13647TIP3   OH262355   2.699   3.724   4.098 -0.5901 -0.0973 -0.3115
13647TIP3    H162356   2.696   3.713   4.193 -0.1868 -0.8191 -0.3774
13647TIP3    H262357   2.633   3.791   4.080 -0.9695 -0.2574  0.4320
13648TIP3   OH262358   2.265   5.366   2.941 -0.0063  0.7853  0.0765
13648TIP3    H162359   2.339   5.427   2.949 -0.6888  1.3970  2.4584
13648TIP3    H262360   2.201   5.413   2.889  0.1312  1.4548  0.4987
13649TIP3   OH262361   6.020   3.119  10.934  0.4537  0.1630 -0.6312
13649TIP3    H162362   6.053   3.094  10.848  0.1424  0.6025 -0.8810
13649TIP3    H262363   5.972   3.043  10.965  1.6864 -0.4904 -0.2640
13650TIP3   OH262364   4.401   1.684  15.751 -0.0421  0.3103 -0.3992
13650TIP3    H162365   4.368   1.600  15.781 -0.2418  0.7969  0.8245
13650TIP3    H262366   4.486   1.664  15.711 -0.1587 -0.4828 -0.2629
13651TIP3   OH262367   4.996   4.568   4.366 -0.2603  0.5404 -0.0987
13651TIP3    H162368   5.001   4.605   4.454  1.7079  1.5647 -0.5862
13651TIP3    H262369   5.013   4.642   4.308  3.5708 -0.8869 -1.1292
13652TIP3   OH262370   4.680   1.989  11.067  0.0963 -0.0092 -0.6693
13652TIP3    H162371   4.729   2.006  11.147 -1.2926 -0.8001  0.4028
13652TIP3    H262372   4.653   2.076  11.036  1.0271  0.3291 -0.5432
13653TIP3   OH262373   2.513   5.521   5.570 -0.5593  0.0774 -0.3528
13653TIP3    H162374   2.547   5.589   5.628  0.7328 -1.0872  0.3120
13653TIP3    H262375   2.534   5.551   5.482 -2.1336  1.6471 -0.2525
13654TIP3   OH262376   6.616   2.159   1.288 -0.4762  0.0853  0.1669
13654TIP3    H162377   6.568   2.231   1.330  0.0165 -0.0316  0.9483
13654TIP3    H262378   6.672   2.125   1.357 -0.8015 -1.1469 -0.1624
13655TIP3   OH262379   1.543   1.773  12.627  0.3293 -0.3959 -0.7568
13655TIP3    H162380   1.552   1.765  12.722  1.1986 -0.4166 -0.8351
13655TIP3    H262381   1.492   1.852  12.615  1.7641  0.6448 -0.3069
13656TIP3   OH262382   6.377   6.075   6.443  0.1553  0.6477  0.3751
13656TIP3    H162383   6.459   6.055   6.489  1.7641  4.4638 -0.4727
13656TIP3    H262384   6.331   6.136   6.500 -1.8669 -0.8504  0.4804
13657TIP3   OH262385   6.517   2.537   4.871 -0.2094  0.0152 -0.3996
13657TIP3    H162386   6.531   2.606   4.806 -0.4614 -0.3777 -0.8834
13657TIP3    H262387   6.562   2.461   4.833 -0.0685 -0.1266  0.0512
13658TIP3   OH262388   0.306   3.462   3.721 -0.3445 -0.0456  0.1495
13658TIP3    H162389   0.213   3.484   3.724 -0.0240  1.4163  0.1338
13658TIP3    H262390   0.310   3.370   3.748 -1.8641 -0.3999 -0.7532
13659TIP3   OH262391   2.678   5.009   5.734 -0.4783 -0.5306  0.1510
13659TIP3    H162392   2.751   5.052   5.689 -0.8986  0.3497  0.2713
13659TIP3    H262393   2.718   4.964   5.809  0.3249 -2.5873 -1.4278
13660TIP3   OH262394   2.427   0.003  15.150 -0.4519 -0.4224  0.1442
13660TIP3    H162395   2.345   0.050  15.133  0.2062  0.6683 -0.1067
13660TIP3    H262396   2.455   0.035  15.236  0.5681  0.5092 -0.5091
13661TIP3   OH262397   6.506   5.850  12.344 -0.0775  0.2585  0.2260
13661TIP3    H162398   6.473   5.914  12.281  0.2211  0.6317  0.4432
13661TIP3    H262399   6.490   5.765  12.303 -0.1020  0.4891 -0.2465
13662TIP3   OH262400   0.910   4.914  16.789 -0.7428 -0.3850  0.1524
13662TIP3    H162401   0.895   4.899  16.696  2.1617  0.1422 -0.5201
13662TIP3    H262402   1.006   4.916  16.798 -0.9134 -0.2617  3.1328
13663TIP3   OH262403   6.313   6.701   6.246 -0.4628 -0.1109 -0.0598
13663TIP3    H162404   6.273   6.617   6.227 -0.6158 -0.3866  1.3418
13663TIP3    H262405   6.408   6.686   6.240 -0.5105 -0.0955 -0.8936
13664TIP3   OH262406   6.150   1.617   4.697 -0.3764 -0.5358 -0.6817
13664TIP3    H162407   6.140   1.708   4.724  2.5937  0.0675 -1.3533
13664TIP3    H262408   6.087   1.606   4.626 -1.8991  0.4636  0.4438
13665TIP3   OH262409   5.623   1.284  16.669 -0.0205  0.3862  0.0126
13665TIP3    H162410   5.671   1.236  16.601  0.7923 -0.5905  1.2205
13665TIP3    H262411   5.589   1.361  16.625  1.4862  0.3775 -1.2354
13666TIP3   OH262412   4.545   5.857  14.610  0.1026  0.1546  0.0337
13666TIP3    H162413   4.490   5.835  14.685  0.4506  1.7904  0.8093
13666TIP3    H262414   4.634   5.858  14.645  0.1204  2.5294  0.0357
13667TIP3   OH262415   3.711   0.506   5.455  0.5949 -0.0415 -0.1351
13667TIP3    H162416   3.641   0.510   5.520 -0.9437  2.6560 -1.7958
13667TIP3    H262417   3.786   0.547   5.498 -0.2103  1.1187  0.1895
13668TIP3   OH262418   4.872   0.155  13.501 -0.2538 -0.1130  0.1086
13668TIP3    H162419   4.788   0.160  13.456 -0.3965  1.0067  0.4500
13668TIP3    H262420   4.878   0.238  13.549  1.0808 -0.1424  0.0277
13669TIP3   OH262421   6.277   0.069  17.284 -0.3520 -0.0630 -0.2455
13669TIP3    H162422   6.296   0.154  17.244  1.4899 -0.8711 -1.1969
13669TIP3    H262423   6.181   0.062  17.281 -0.6084  2.3029  0.6275
13670TIP3   OH262424   4.298   2.238   2.278 -0.4293 -0.1175 -0.5842
13670TIP3    H162425   4.245   2.216   2.355 -2.4913 -0.7144 -2.0652
13670TIP3    H262426   4.388   2.218   2.303 -1.2851 -2.4285  0.9409
13671TIP3   OH262427   2.096   3.380  16.741 -0.0516 -0.2046  0.0018
13671TIP3    H162428   2.155   3.377  16.816 -0.9274 -0.7827  0.6824
13671TIP3    H262429   2.145   3.339  16.670  0.6638  0.0569  0.3400
13672TIP3   OH262430   3.300   4.008   2.294 -0.2569  0.3986  0.0689
13672TIP3    H162431   3.279   3.922   2.332  0.3361 -0.6795 -1.9452
13672TIP3    H262432   3.378   4.036   2.341  0.0517 -0.5630  0.1531
13673TIP3   OH262433   6.600   6.727  15.764 -0.0392 -0.2303 -0.5886
13673TIP3    H162434   6.655   6.650  15.781  0.1473  0.1288  0.4629
13673TIP3    H262435   6.642   6.798  15.813  0.6546  0.9344 -2.7231
13674TIP3   OH262436   3.253   0.501  11.646 -0.2693  0.3236 -0.0900
13674TIP3    H162437   3.272   0.466  11.558 -0.1933 -1.8771  0.7373
13674TIP3    H262438   3.339   0.510  11.687 -0.4200 -1.7897  0.8263
13675TIP3   OH262439   2.811   1.184  14.650 -0.2519 -0.4545 -0.1340
13675TIP3    H162440   2.741   1.200  14.713  0.3730  0.1512  0.4182
13675TIP3    H262441   2.884   1.236  14.682  1.4949 -3.4011  1.0499
13676TIP3   OH262442   0.633   3.318   0.658  0.6737 -0.3013  0.4954
13676TIP3    H162443   0.656   3.298   0.567  0.7028  0.1195  0.4080
13676TIP3    H262444   0.546   3.279   0.669 -0.9616  2.6134 -0.8186
13677TIP3   OH262445   2.328   5.791   6.214 -0.1595  0.5105 -0.3716
13677TIP3    H162446   2.278   5.850   6.270  1.3266  0.4746  1.0435
13677TIP3    H262447   2.403   5.765   6.266 -0.4014 -2.1452 -1.1757
13678TIP3   OH262448   4.726   1.848  11.879  0.0636 -0.1519  0.8411
13678TIP3    H162449   4.665   1.920  11.866 -0.4103 -0.7468 -0.3473
13678TIP3    H262450   4.725   1.799  11.797  1.1112 -0.9659  1.2750
13679TIP3   OH262451   4.370   0.338  12.369 -0.1051 -0.3663  0.2579
13679TIP3    H162452   4.288   0.294  12.392  1.1269 -2.5255  0.7601
13679TIP3    H262453   4.376   0.330  12.274 -1.2953  1.4164 -0.0178
13680TIP3   OH262454   6.453   0.961   1.480  0.5406 -0.1015 -0.1500
13680TIP3    H162455   6.542   0.967   1.517 -0.7412 -0.6424  3.4040
13680TIP3    H262456   6.413   1.045   1.502 -0.4411 -0.6449  0.1798
13681TIP3   OH262457   5.340   2.431   1.202 -0.2213  0.1720 -0.3506
13681TIP3    H162458   5.342   2.344   1.161 -0.5451 -0.1369  0.2808
13681TIP3    H262459   5.273   2.479   1.152 -2.4656 -1.0014  1.3496
13682TIP3   OH262460   1.085   2.433   4.631  0.0209 -0.0849 -0.0039
13682TIP3    H162461   1.165   2.471   4.594 -0.5354 -0.4831 -1.6905
13682TIP3    H262462   1.106   2.419   4.723  2.1305 -0.7739 -0.5373
13683TIP3   OH262463   3.854   5.169  15.949  0.4043 -0.2994  0.6919
13683TIP3    H162464   3.886   5.250  15.910 -0.1509 -0.4595 -0.1330
13683TIP3    H262465   3.820   5.194  16.035 -0.0103  0.3961  0.3323
13684TIP3   OH262466   3.635   5.769   3.610  0.4543 -0.4426 -0.2832
13684TIP3    H162467   3.669   5.706   3.673  0.8612 -0.3731 -0.4318
13684TIP3    H262468   3.702   5.773   3.542 -0.6646 -1.6624 -1.5084
13685TIP3   OH262469   5.357   2.013   1.653  0.0027 -0.2192  0.2909
13685TIP3    H162470   5.433   2.062   1.686  0.0038  0.4889 -0.6999
13685TIP3    H262471   5.386   1.980   1.567 -1.1296  0.9199 -0.5577
13686TIP3   OH262472   3.160   3.323  13.618 -0.2241 -0.3166 -0.1124
13686TIP3    H162473   3.126   3.371  13.694  1.6257 -0.4667  0.8605
13686TIP3    H262474   3.244   3.288  13.647 -0.8553 -3.0093 -1.2479
13687TIP3   OH262475   2.901   5.061   1.724 -0.3770  0.2924  0.6526
13687TIP3    H162476   2.862   4.998   1.785 -0.8457  1.0111  1.1140
13687TIP3    H262477   2.876   5.147   1.759 -2.6457  0.7552 -1.7893
13688TIP3   OH262478   5.010   6.195  13.331  0.3048 -0.1490  0.8439
13688TIP3    H162479   4.965   6.190  13.247 -1.3385 -1.1857  1.7406
13688TIP3    H262480   4.996   6.286  13.360 -0.4926 -0.2224  0.7125
13689TIP3   OH262481   4.646   6.009  14.302 -0.1110 -0.5239  0.3158
13689TIP3    H162482   4.734   6.047  14.306  0.2601 -1.3304  0.0131
13689TIP3    H262483   4.648   5.953  14.225 -1.1390  0.0288 -0.1334
13690TIP3   OH262484   2.969   5.028   6.331 -0.2289  0.1041  0.0036
13690TIP3    H162485   2.904   5.089   6.365  0.7718  1.1726  0.0635
13690TIP3    H262486   3.009   5.074   6.258  1.4592  0.0816  0.8613
13691TIP3   OH262487   6.371   3.378  11.775 -0.6766 -0.0160 -0.0446
13691TIP3    H162488   6.289   3.421  11.798  0.3020  0.6283  2.6154
13691TIP3    H262489   6.398   3.333  11.855  1.5851 -0.1636 -0.8105
13692TIP3   OH262490   3.882   4.186   2.525  0.8242 -0.0810 -0.4435
13692TIP3    H162491   3.914   4.152   2.441 -0.1881  1.4342 -1.4925
13692TIP3    H262492   3.827   4.116   2.560  1.0759 -0.6449 -1.1410
13693TIP3   OH262493   6.143   4.500  14.109  0.1257 -0.2298  0.7609
13693TIP3    H162494   6.168   4.417  14.148  0.2455  0.7769  2.9632
13693TIP3    H262495   6.052   4.514  14.136  0.6894  1.2100  2.0925
13694TIP3   OH262496   0.675   3.188  13.713  0.1120  0.1865 -0.2868
13694TIP3    H162497   0.602   3.171  13.772 -0.7942  0.2423 -1.3577
13694TIP3    H262498   0.683   3.283  13.711 -0.6528  0.2425 -1.1717
13695TIP3   OH262499   1.946   5.564   0.974 -0.1262  0.0336  0.1044
13695TIP3    H162500   1.982   5.653   0.983 -1.5281  0.8054 -1.3667
13695TIP3    H262501   1.948   5.548   0.879 -2.1778 -0.4815  0.1100
13696TIP3   OH262502   5.321   1.212   3.826 -0.4185  0.5251  0.3089
13696TIP3    H162503   5.402   1.167   3.851  1.7988  3.7876 -0.3729
13696TIP3    H262504   5.270   1.217   3.907  1.0697  0.3022  1.2897
13697TIP3   OH262505   2.767   4.218   0.999 -0.2384 -0.0263  0.3090
13697TIP3    H162506   2.684   4.200   1.044  0.0612 -1.1887  0.4234
13697TIP3    H262507   2.817   4.137   1.008  1.8660  1.3939  2.2555
13698TIP3   OH262508   1.691   3.789  12.180 -0.0769  0.4449 -0.0043
13698TIP3    H162509   1.762   3.843  12.148 -0.5004  0.7576 -0.4260
13698TIP3    H262510   1.676   3.820  12.270 -0.3124  1.0255 -0.2399
13699TIP3   OH262511   1.516   0.045  11.628 -0.1116  0.4443 -0.1189
13699TIP3    H162512   1.597   0.015  11.585 -0.3240  1.9447 -1.6996
13699TIP3    H262513   1.539   0.131  11.663 -1.0461  0.9755 -0.7681
13700TIP3   OH262514   2.612   0.616   0.108  0.1131  0.1897  0.0373
13700TIP3    H162515   2.589   0.694   0.159  0.8970  0.3662  0.1352
13700TIP3    H262516   2.657   0.652   0.031  0.5938 -0.1652  0.1469
13701TIP3   OH262517   2.242   6.751  11.196  0.3129 -0.1354  0.4819
13701TIP3    H162518   2.159   6.707  11.179  1.0423 -1.7065  0.7258
13701TIP3    H262519   2.270   6.784  11.111  0.6325 -1.8584 -0.1400
13702TIP3   OH262520   2.683   2.080   0.819 -0.1041 -0.1212  0.7080
13702TIP3    H162521   2.729   2.163   0.814 -0.9282  0.4677  2.1259
13702TIP3    H262522   2.715   2.039   0.900  0.6239 -1.4016 -0.2013
13703TIP3   OH262523   3.637   2.446  15.709  0.1603 -0.7654 -0.4664
13703TIP3    H162524   3.679   2.392  15.776 -0.1250  1.0209  1.2427
13703TIP3    H262525   3.708   2.473  15.651  0.6759 -1.0805  0.0176
13704TIP3   OH262526   3.645   5.699   2.385  0.1169 -0.7711  0.4133
13704TIP3    H162527   3.631   5.739   2.470 -1.9788 -1.3278  0.3723
13704TIP3    H262528   3.736   5.721   2.363 -0.6894  3.5623  0.5895
13705TIP3   OH262529   5.220   5.922  12.421  0.5727  0.1290 -0.6490
13705TIP3    H162530   5.235   5.930  12.327  1.4402  2.4782 -0.3664
13705TIP3    H262531   5.148   5.983  12.440 -0.5258 -1.3072  0.0482
13706TIP3   OH262532   2.583   5.536   6.105 -0.3889  0.0640 -0.0110
13706TIP3    H162533   2.620   5.622   6.087 -0.8845  0.5547  1.1774
13706TIP3    H262534   2.645   5.496   6.166 -1.4074  0.6266  1.4649
13707TIP3   OH262535   6.573   3.443  12.817 -0.2276 -0.8411 -0.5308
13707TIP3    H162536   6.601   3.460  12.727  0.8331  0.1612 -0.0415
13707TIP3    H262537   6.568   3.348  12.823  2.1814 -1.0570 -0.9568
13708TIP3   OH262538   6.242   6.613  16.077 -0.1250  0.2234  0.4172
13708TIP3    H162539   6.164   6.568  16.043  1.0392 -1.3547 -0.2548
13708TIP3    H262540   6.315   6.576  16.028  1.0347  2.0815  0.6286
13709TIP3   OH262541   3.120   4.729   5.611 -0.1136  0.4030  0.1962
13709TIP3    H162542   3.066   4.717   5.689 -1.1776  2.8161 -0.0730
13709TIP3    H262543   3.144   4.822   5.612  0.5082  0.3330 -1.9180
13710TIP3   OH262544   1.139   0.421   4.282 -0.4825  0.2802  0.0502
13710TIP3    H162545   1.213   0.410   4.222 -0.1864  0.3152  0.4058
13710TIP3    H262546   1.062   0.406   4.227 -0.3812  3.1930 -1.0496
13711TIP3   OH262547   3.339   4.681   2.482 -0.4822 -0.3575 -0.1304
13711TIP3    H162548   3.402   4.655   2.550 -0.3230 -0.1049 -0.1784
13711TIP3    H262549   3.258   4.697   2.529  0.2068  2.0879  0.3560
13712TIP3   OH262550   2.396   3.434   2.564  0.1125  0.1675  0.2117
13712TIP3    H162551   2.351   3.370   2.620 -1.3157  1.2076  0.3255
13712TIP3    H262552   2.396   3.395   2.477 -1.6916  0.4104  0.0615
13713TIP3   OH262553   2.913   0.683  12.551 -0.1212  0.3871 -0.7107
13713TIP3    H162554   2.819   0.671  12.560 -0.0149  0.7290  1.2945
13713TIP3    H262555   2.950   0.633  12.624  1.2435  0.4760 -1.3172
13714TIP3   OH262556   3.914   0.117  16.591 -0.1544 -0.2741 -0.5218
13714TIP3    H162557   3.891   0.048  16.530 -1.2155 -0.6494  0.2715
13714TIP3    H262558   3.963   0.073  16.661  1.1599  0.1698 -1.1172
13715TIP3   OH262559   0.798   5.576   1.888  0.2053 -0.2443  0.4925
13715TIP3    H162560   0.827   5.633   1.958 -0.4950  0.6882  0.0430
13715TIP3    H262561   0.731   5.626   1.841  2.2402  0.1391 -2.2742
13716TIP3   OH262562   4.177   3.344   3.680 -0.1319 -0.1364  0.3058
13716TIP3    H162563   4.258   3.324   3.728  0.0860  2.1754  0.9902
13716TIP3    H262564   4.181   3.286   3.604  1.8252 -0.5814  0.6653
13717TIP3   OH262565   0.367   6.493  15.932 -0.2509  0.1419 -0.1874
13717TIP3    H162566   0.375   6.436  15.856 -1.1423  0.8662 -0.8597
13717TIP3    H262567   0.457   6.512  15.958  0.0901 -2.0496  0.4685
13718TIP3   OH262568   5.825   0.646  11.993  1.0025  0.9963  0.0540
13718TIP3    H162569   5.842   0.625  11.901  3.2994  2.0401  0.1712
13718TIP3    H262570   5.787   0.734  11.991 -4.3478 -0.9660 -0.1355
13719TIP3   OH262571   1.535   3.097   1.625  0.0367  0.0656 -0.3901
13719TIP3    H162572   1.458   3.110   1.570 -0.1414  0.0389 -0.1482
13719TIP3    H262573   1.508   3.128   1.711  0.1895 -0.2557 -0.2265
13720TIP3   OH262574   3.552   2.508   4.762  0.1146  0.1677 -0.3031
13720TIP3    H162575   3.642   2.537   4.778 -0.7116  2.3078  0.8288
13720TIP3    H262576   3.528   2.550   4.680 -0.0952  0.1939 -0.2272
13721TIP3   OH262577   2.281   1.854  12.545  0.0917  0.5872  0.2296
13721TIP3    H162578   2.243   1.801  12.475  1.2880  0.1376 -0.1036
13721TIP3    H262579   2.277   1.798  12.622 -0.5175  0.7947  0.3562
13722TIP3   OH262580   2.520   1.846  13.064 -0.1643 -0.2129 -0.4321
13722TIP3    H162581   2.615   1.849  13.055  0.0011  0.7324  1.2952
13722TIP3    H262582   2.504   1.850  13.158 -1.9494  2.0032 -0.7365
13723TIP3   OH262583   3.798   4.447  16.472 -0.6173  0.5451 -0.0998
13723TIP3    H162584   3.725   4.446  16.409 -0.5662 -0.9997 -0.1897
13723TIP3    H262585   3.757   4.463  16.557 -1.1411 -0.6203 -0.1062
13724TIP3   OH262586   2.729   2.133   3.186 -0.2505 -0.0144 -0.4553
13724TIP3    H162587   2.713   2.065   3.250 -1.3011  2.2946  1.9393
13724TIP3    H262588   2.810   2.175   3.213 -1.2678  1.6966  0.1543
13725TIP3   OH262589   5.671   1.825  14.051  0.6151  0.3025 -0.4802
13725TIP3    H162590   5.709   1.827  13.963 -2.1689  1.6800 -1.8120
13725TIP3    H262591   5.649   1.733  14.066  1.5906 -0.0243 -0.9980
13726TIP3   OH262592   1.416   0.475  16.968  0.2369  0.3641 -0.2968
13726TIP3    H162593   1.345   0.487  17.031 -0.4567 -2.3659 -0.4462
13726TIP3    H262594   1.492   0.454  17.022  0.8316  2.5538 -0.1824
13727TIP3   OH262595   0.580   2.417   6.856 -0.1789 -0.3432 -0.0241
13727TIP3    H162596   0.614   2.471   6.785 -0.4673 -1.2639 -0.8728
13727TIP3    H262597   0.579   2.476   6.932 -1.2499  1.0891 -1.0875
13728TIP3   OH262598   0.282   5.732   1.774  0.4348  0.8134  0.3156
13728TIP3    H162599   0.310   5.813   1.732 -1.7343  0.8848 -1.1616
13728TIP3    H262600   0.186   5.738   1.776  0.1530 -2.0917 -0.6512
13729TIP3   OH262601   3.918   1.072   0.263  0.1280 -0.2848 -0.0917
13729TIP3    H162602   3.917   1.025   0.179  1.7982  0.7367 -0.7198
13729TIP3    H262603   4.008   1.065   0.293 -0.5893 -1.3008  2.0659
13730TIP3   OH262604   5.327   2.622  11.630 -0.1402  0.3179 -0.4206
13730TIP3    H162605   5.264   2.618  11.559  0.9343 -0.7898 -1.3493
13730TIP3    H262606   5.274   2.631  11.709 -1.5051 -1.1928 -1.1200
13731TIP3   OH262607   1.483   1.823  11.674  0.0130  0.0999 -0.1095
13731TIP3    H162608   1.530   1.787  11.598  1.2675 -0.0938  0.7225
13731TIP3    H262609   1.498   1.759  11.744 -0.7357  0.5033  0.4255
13732TIP3   OH262610   2.529   4.633   1.084 -0.3894  0.5457 -0.8286
13732TIP3    H162611   2.526   4.606   1.176 -0.3170 -3.5669 -1.8419
13732TIP3    H262612   2.439   4.657   1.063 -0.2280  2.5037  0.4615
13733TIP3   OH262613   1.616   3.764   4.764 -0.6135 -0.1889 -0.4721
13733TIP3    H162614   1.628   3.715   4.682 -0.0416 -0.3479 -0.3017
13733TIP3    H262615   1.540   3.723   4.806 -0.7880 -0.2356 -0.8314
13734TIP3   OH262616   0.008   6.130   2.725 -0.0512 -0.6197 -0.4158
13734TIP3    H162617   0.052   6.212   2.703 -0.9156 -0.1075 -0.2728
13734TIP3    H262618   0.012   6.125   2.820 -0.6859 -0.3423 -0.3689
13735TIP3   OH262619   5.730   2.462   0.047 -0.0357 -0.3585 -0.3153
13735TIP3    H162620   5.756   2.380   0.005 -1.4616 -1.2151  0.4159
13735TIP3    H262621   5.640   2.448   0.076 -0.9859  2.0884 -1.7396
13736TIP3   OH262622   3.438   2.522   6.185  0.2762 -0.3748  0.7321
13736TIP3    H162623   3.416   2.515   6.278 -3.2795 -0.0363  0.0543
13736TIP3    H262624   3.387   2.453   6.143  2.0563 -0.7183 -1.0007
13737TIP3   OH262625   4.272   2.404  11.689  0.4590 -0.1645 -0.1939
13737TIP3    H162626   4.196   2.460  11.671  0.9544  1.2212  1.7034
13737TIP3    H262627   4.322   2.405  11.607 -0.1887  1.1603 -0.6085
13738TIP3   OH262628   6.726   6.627   1.611  0.5845  0.2083  0.4527
13738TIP3    H162629   6.758   6.713   1.583  1.4357  0.1986  1.3305
13738TIP3    H262630   6.752   6.621   1.703  2.3127 -1.8138 -0.0958
13739TIP3   OH262631   2.157   2.897  14.475 -0.0997  0.4617 -0.4237
13739TIP3    H162632   2.223   2.851  14.526 -0.8382  0.9735  1.0496
13739TIP3    H262633   2.081   2.903  14.533 -0.2478  2.9966 -0.7538
13740TIP3   OH262634   0.772   2.959  11.778  0.6031  0.1505  0.1483
13740TIP3    H162635   0.795   2.866  11.780 -1.0985 -0.3070  0.0359
13740TIP3    H262636   0.837   2.999  11.721 -0.4901 -1.5742 -2.5107
13741TIP3   OH262637   5.449   1.591   4.306  0.3597  0.3174 -0.0910
13741TIP3    H162638   5.411   1.522   4.361 -0.2452  0.3643 -0.4363
13741TIP3    H262639   5.543   1.578   4.311  0.3495  0.6253  1.3652
13742TIP3   OH262640   2.067   5.640   5.450  0.5767 -0.4891 -0.3252
13742TIP3    H162641   2.150   5.620   5.492 -0.4950 -1.6262  1.3310
13742TIP3    H262642   2.000   5.613   5.512 -1.0685  0.3406 -1.6294
13743TIP3   OH262643   6.698   3.019   3.780 -0.1691  0.3478 -0.2771
13743TIP3    H162644   6.735   2.931   3.773  0.2874  0.5010  0.0849
13743TIP3    H262645   6.695   3.036   3.875  0.3724  0.9736 -0.3634
13744TIP3   OH262646   1.473   3.347  13.491  0.4195 -0.5341  0.2173
13744TIP3    H162647   1.383   3.372  13.510  1.0312  0.4784  2.0607
13744TIP3    H262648   1.526   3.407  13.544  2.1702 -1.2730 -0.6218
13745TIP3   OH262649   3.674   4.233  15.760 -0.0705  0.3181  0.0937
13745TIP3    H162650   3.673   4.234  15.855  1.1999  0.2243  0.1249
13745TIP3    H262651   3.596   4.183  15.735  0.6236 -1.3332  1.1281
13746TIP3   OH262652   4.201   1.180   3.777  0.4189 -0.0806 -0.1718
13746TIP3    H162653   4.184   1.164   3.870  0.6104 -1.1374 -0.3018
13746TIP3    H262654   4.295   1.163   3.766  0.0503 -1.9383 -0.9055
13747TIP3   OH262655   4.874   2.855   1.828 -0.4849  0.2073 -0.5455
13747TIP3    H162656   4.856   2.762   1.847 -0.1295  0.4152  0.9546
13747TIP3    H262657   4.876   2.860   1.733  0.5338 -1.5426 -0.6575
13748TIP3   OH262658   4.294   3.458  14.762  0.1066  0.4243 -0.4114
13748TIP3    H162659   4.363   3.406  14.803 -0.5554 -0.0004  0.1934
13748TIP3    H262660   4.218   3.445  14.818 -0.5122  0.7527 -1.1565
13749TIP3   OH262661   0.645   6.386  12.288 -0.1049  0.3509  0.2907
13749TIP3    H162662   0.731   6.382  12.245 -0.1294 -0.7631  0.3149
13749TIP3    H262663   0.636   6.477  12.315  0.9768  0.5361  0.0831
13750TIP3   OH262664   1.908   4.223  14.608 -0.2891 -0.6829 -0.8647
13750TIP3    H162665   1.948   4.250  14.690  1.2839 -0.6615 -1.5914
13750TIP3    H262666   1.879   4.304  14.567 -0.4388 -0.6278 -0.6508
13751TIP3   OH262667   4.157   2.572  16.441  0.0899 -0.0218  0.4063
13751TIP3    H162668   4.246   2.567  16.476  0.1861 -2.2967 -0.0420
13751TIP3    H262669   4.114   2.638  16.495  1.0908 -1.2370  2.8173
13752TIP3   OH262670   2.813   6.684  12.432 -0.6839  0.1479 -0.0101
13752TIP3    H162671   2.847   6.751  12.492  0.0357  0.5632 -0.8652
13752TIP3    H262672   2.718   6.693  12.438 -0.6226  0.4100  0.8095
13753TIP3   OH262673   2.145   4.608   3.188 -0.2327  0.1241  0.0661
13753TIP3    H162674   2.121   4.666   3.115 -0.0854 -1.3187 -1.1741
13753TIP3    H262675   2.241   4.616   3.194 -0.0733 -0.8066 -0.8671
13754TIP3   OH262676   1.091   6.377  16.023  0.1020 -0.3876 -0.5843
13754TIP3    H162677   1.185   6.359  16.027 -0.0275 -0.9212  1.0482
13754TIP3    H262678   1.079   6.455  16.077 -0.3738 -0.1963 -0.9604
13755TIP3   OH262679   6.489   6.270  14.633  0.2888  0.3874 -0.2325
13755TIP3    H162680   6.443   6.314  14.704  1.5819  1.1796  0.1478
13755TIP3    H262681   6.548   6.336  14.597  2.4290 -1.0136  0.4570
13756TIP3   OH262682   1.539   6.365  12.222 -0.4101 -0.1042  0.4209
13756TIP3    H162683   1.485   6.315  12.283 -0.1739  0.3156  0.9840
13756TIP3    H262684   1.566   6.442  12.272  1.6703 -0.8609  0.5726
13757TIP3   OH262685   2.786   6.222  11.414  0.1081 -0.2432  1.0342
13757TIP3    H162686   2.829   6.307  11.408 -1.3686  0.5393  0.9839
13757TIP3    H262687   2.694   6.243  11.432 -1.0072 -1.6727 -2.3347
13758TIP3   OH262688   0.410   0.546  11.838  0.2422  0.2914 -0.0362
13758TIP3    H162689   0.374   0.635  11.832  0.7591  0.5029 -0.0089
13758TIP3    H262690   0.336   0.493  11.866 -0.0641  0.7191 -0.0166
13759TIP3   OH262691   6.212   0.142  13.431  0.2288  0.2168  0.1569
13759TIP3    H162692   6.205   0.052  13.463  0.0620  0.0594 -0.3134
13759TIP3    H262693   6.146   0.191  13.480 -0.7965 -0.2479 -0.7366
13760TIP3   OH262694   5.199   2.030   2.446  0.2725 -0.0914 -0.3042
13760TIP3    H162695   5.162   2.109   2.485 -2.5739 -0.2359 -2.4403
13760TIP3    H262696   5.125   1.971   2.435  1.8202 -1.9621 -1.3950
13761TIP3   OH262697   6.274   2.718  11.827  0.2854 -0.0795 -0.7454
13761TIP3    H162698   6.240   2.805  11.849 -0.9252 -0.1805 -2.0592
13761TIP3    H262699   6.216   2.686  11.758  1.0454 -1.7124 -0.6872
13762TIP3   OH262700   3.334   0.765  11.904 -0.0203 -0.1348  0.3258
13762TIP3    H162701   3.299   0.851  11.880 -0.0622 -0.0752  0.5904
13762TIP3    H262702   3.256   0.713  11.924  0.0303 -0.0635  0.7179
13763TIP3   OH262703   4.269   5.948  11.351 -0.2544  0.3326 -0.1465
13763TIP3    H162704   4.193   5.944  11.409 -0.8177  3.4917 -0.5139
13763TIP3    H262705   4.344   5.928  11.407 -1.0990 -0.1067  0.8501
13764TIP3   OH262706   5.456   5.474   2.379  0.9879  0.3108  0.2613
13764TIP3    H162707   5.450   5.448   2.471  0.8460 -0.7940 -0.0525
13764TIP3    H262708   5.465   5.392   2.331  0.9716  0.8710 -0.7236
13765TIP3   OH262709   1.517   2.159   0.010 -0.1471 -0.2282 -0.2181
13765TIP3    H162710   1.577   2.131   0.079 -0.7354  0.5418  0.6444
13765TIP3    H262711   1.563   2.231  -0.033 -0.4969  0.5058  0.5820
13766TIP3   OH262712   1.140   5.635  13.884  0.0881 -0.0763 -0.9357
13766TIP3    H162713   1.118   5.714  13.834  0.3589  0.4025 -0.3076
13766TIP3    H262714   1.060   5.582  13.881 -1.1922  1.5612  1.1841
13767TIP3   OH262715   1.127   5.583   4.889  0.0549  0.1432 -0.0234
13767TIP3    H162716   1.115   5.678   4.898  0.8804  0.2661 -0.1134
13767TIP3    H262717   1.100   5.565   4.799  0.8472  0.4746 -0.3466
13768TIP3   OH262718   4.961   5.038   6.187 -0.2686  0.7728 -0.1551
13768TIP3    H162719   4.878   5.083   6.174 -0.8576  0.5844  2.4518
13768TIP3    H262720   4.937   4.951   6.220  0.8974  1.1195  1.8049
13769TIP3   OH262721   6.224   1.942  15.864  0.8020  0.0804 -0.0809
13769TIP3    H162722   6.288   1.919  15.932  2.3606 -0.7236 -1.7201
13769TIP3    H262723   6.278   1.974  15.792 -0.7407  0.2385 -1.1968
13770TIP3   OH262724   1.748   2.570   0.878 -0.7415  0.0578 -0.3973
13770TIP3    H162725   1.723   2.478   0.868 -0.5084  0.0751 -1.1564
13770TIP3    H262726   1.729   2.590   0.970  1.9071 -1.5688  0.6119
13771TIP3   OH262727   0.975   0.279  14.500 -0.7153  0.3765 -0.7147
13771TIP3    H162728   1.000   0.298  14.410  2.2797  2.0318  0.3413
13771TIP3    H262729   0.980   0.363  14.546 -1.1685 -0.5764  1.2044
13772TIP3   OH262730   3.749   4.946  16.189 -0.0086  0.3582 -0.3891
13772TIP3    H162731   3.729   4.881  16.122  0.2912 -0.0713 -0.0753
13772TIP3    H262732   3.838   4.975  16.169  0.3571 -0.2970  0.2205
13773TIP3   OH262733   4.752   6.242   0.948 -0.0660 -0.4580  0.0773
13773TIP3    H162734   4.717   6.176   0.888  0.8300  0.7126 -1.8106
13773TIP3    H262735   4.820   6.196   0.997 -0.9244 -1.4823  0.3525
13774TIP3   OH262736   6.170   0.005  14.095  0.0005  0.1158 -0.6743
13774TIP3    H162737   6.203   0.072  14.035  2.4828  0.0705  0.5172
13774TIP3    H262738   6.212  -0.076  14.065  1.5151  0.1357  1.2071
13775TIP3   OH262739   5.313   4.933   4.835  0.4823  0.3571  0.1922
13775TIP3    H162740   5.357   4.902   4.914 -0.7233  1.1566  1.2394
13775TIP3    H262741   5.242   4.870   4.821 -0.7401  1.4440  1.1612
13776TIP3   OH262742   1.549   6.602   0.363 -0.7097  0.2220 -0.2354
13776TIP3    H162743   1.547   6.660   0.439  0.6191  2.6100 -1.9075
13776TIP3    H262744   1.457   6.583   0.345 -1.2695  2.4565 -0.0347
13777TIP3   OH262745   0.972   2.809  15.583  0.5095  0.0452 -0.3915
13777TIP3    H162746   1.011   2.729  15.619 -0.9012 -0.5929 -0.2045
13777TIP3    H262747   0.893   2.779  15.539  0.3500  1.2596 -0.9692
13778TIP3   OH262748   2.145   1.064   5.864  0.8103 -0.3444 -0.2821
13778TIP3    H162749   2.213   1.006   5.831 -0.0886 -0.9904 -1.0580
13778TIP3    H262750   2.192   1.142   5.893  2.0821 -1.5814  1.1259
13779TIP3   OH262751   2.532   3.943   4.013  0.2770  0.1191 -0.1609
13779TIP3    H162752   2.518   4.026   4.057 -3.8569 -1.2454  1.5894
13779TIP3    H262753   2.455   3.931   3.958  1.0464 -2.2452 -0.8698
13780TIP3   OH262754   5.843   2.286  12.584 -1.1843 -0.5004  0.5505
13780TIP3    H162755   5.938   2.294  12.585 -1.1960 -0.3645  1.1286
13780TIP3    H262756   5.826   2.192  12.584 -1.0480 -0.5240  0.1473
13781TIP3   OH262757   2.969   4.379  16.412 -0.2062  0.3663 -0.4957
13781TIP3    H162758   3.062   4.395  16.427 -1.0992  5.4097  1.3846
13781TIP3    H262759   2.954   4.409  16.323 -0.2702  1.1644 -0.2237
13782TIP3   OH262760   4.346   0.995   6.219 -0.2234 -0.6186 -0.4994
13782TIP3    H162761   4.372   0.988   6.311  0.0487 -0.0886 -0.5337
13782TIP3    H262762   4.319   0.906   6.195  0.9346 -1.0434 -0.2804
13783TIP3   OH262763   6.160   5.603  10.566  0.4799  0.2094 -0.1872
13783TIP3    H162764   6.174   5.509  10.576 -0.2755  0.0617 -0.3839
13783TIP3    H262765   6.065   5.614  10.574  0.5368  0.9282 -0.3757
13784TIP3   OH262766   2.010   2.522   3.856 -0.0657  0.5353  0.4160
13784TIP3    H162767   1.967   2.573   3.787 -0.6387 -0.0709  0.3088
13784TIP3    H262768   2.103   2.535   3.841 -0.0689 -1.4280 -1.9459
13785TIP3   OH262769   3.578   5.115   3.125 -0.3963  0.1878 -0.0557
13785TIP3    H162770   3.614   5.110   3.213  1.5652  1.2012 -0.7527
13785TIP3    H262771   3.536   5.200   3.121  0.9843  0.8719 -0.5852
13786TIP3   OH262772   4.948   2.416   0.926  0.1750  0.2252 -0.2027
13786TIP3    H162773   4.886   2.391   0.857  0.9389  2.2279 -1.6875
13786TIP3    H262774   4.936   2.348   0.993 -2.4899 -0.3292 -1.0943
13787TIP3   OH262775   1.632   6.358   0.233 -0.0806 -0.2922 -0.5750
13787TIP3    H162776   1.598   6.432   0.283 -0.0853 -1.6146  1.5065
13787TIP3    H262777   1.586   6.282   0.268  0.0846 -1.3273 -2.4921
13788TIP3   OH262778   5.040   4.886  11.641  0.5291  0.1025  0.2939
13788TIP3    H162779   4.987   4.870  11.719 -0.1072  0.7388  0.0094
13788TIP3    H262780   5.111   4.943  11.670 -0.8328  2.0171  0.0434
13789TIP3   OH262781   3.869   6.328  16.193  0.0047 -0.4614 -0.3920
13789TIP3    H162782   3.781   6.323  16.231  0.4610 -1.1009  0.6484
13789TIP3    H262783   3.863   6.396  16.126 -1.3620 -0.7268 -0.5754
13790TIP3   OH262784   2.323   1.425  12.951 -0.1173  0.5374 -0.3859
13790TIP3    H162785   2.363   1.419  12.865 -0.9991  1.7466 -0.8957
13790TIP3    H262786   2.252   1.361  12.949 -1.2841  1.7996 -1.2289
13791TIP3   OH262787   3.866   0.317  14.500 -0.3946  0.1011  0.0409
13791TIP3    H162788   3.868   0.328  14.595  2.7378 -0.2502  0.0925
13791TIP3    H262789   3.846   0.405  14.467 -3.0385 -0.0595  0.9508
13792TIP3   OH262790   1.993   0.048  13.298  0.1507 -0.7646  0.1693
13792TIP3    H162791   1.922   0.023  13.357 -1.5464 -0.9519 -1.8083
13792TIP3    H262792   2.021   0.134  13.329  0.6823 -1.6807  2.3684
13793TIP3   OH262793   3.590   3.808  15.806 -0.6051 -0.1910 -0.0984
13793TIP3    H162794   3.572   3.886  15.754 -0.1615 -0.9815 -1.4787
13793TIP3    H262795   3.505   3.765  15.815 -0.2970 -1.4647 -2.5653
13794TIP3   OH262796   1.284   3.995   0.944 -0.3302 -0.0375  0.3299
13794TIP3    H162797   1.358   3.950   0.986 -0.8193 -2.1467 -0.9271
13794TIP3    H262798   1.208   3.967   0.994 -0.6198 -0.4491 -0.3303
13795TIP3   OH262799   0.301   2.146   0.542  0.0072  0.9296  0.4706
13795TIP3    H162800   0.211   2.141   0.510  0.5644  0.0942 -1.0565
13795TIP3    H262801   0.344   2.208   0.484  1.7557 -2.6237 -2.4558
13796TIP3   OH262802   0.663   5.254  12.387 -0.3029 -0.3854 -0.6528
13796TIP3    H162803   0.736   5.314  12.403 -0.8269 -0.2177  1.4459
13796TIP3    H262804   0.648   5.213  12.472 -3.0122  0.0002 -0.8781
13797TIP3   OH262805   4.999   6.690   1.707  0.5100 -0.7507  0.1943
13797TIP3    H162806   4.962   6.676   1.620  1.0388 -2.6446  0.2153
13797TIP3    H262807   5.024   6.782   1.708  0.0974 -0.5794 -1.5058
13798TIP3   OH262808   5.452   4.264   2.102 -0.1556  0.1273 -0.2371
13798TIP3    H162809   5.530   4.306   2.065  0.2442 -1.2739 -1.0508
13798TIP3    H262810   5.454   4.175   2.068 -1.5514 -0.2545  0.5941
13799TIP3   OH262811   6.395   2.297   5.309 -0.4338  0.1460 -0.4589
13799TIP3    H162812   6.411   2.303   5.215 -0.2527  1.2347 -0.3750
13799TIP3    H262813   6.406   2.387   5.341  0.5508 -0.3742  0.7660
13800TIP3   OH262814   5.642   6.149  15.263  0.0747  0.2382  0.3132
13800TIP3    H162815   5.607   6.198  15.337 -0.4670  1.4595 -0.7234
13800TIP3    H262816   5.566   6.110  15.220  0.2779  0.3875 -0.1940
13801TIP3   OH262817   3.773   3.676   3.960 -0.3449  0.1901  0.6533
13801TIP3    H162818   3.859   3.636   3.946 -0.2604  0.2282  1.0531
13801TIP3    H262819   3.736   3.685   3.872  0.9261  2.1390  0.2629
13802TIP3   OH262820   3.553   1.134   4.139 -0.6241  0.1766  0.5898
13802TIP3    H162821   3.642   1.097   4.139 -0.8761 -0.5927  2.7270
13802TIP3    H262822   3.526   1.128   4.231 -2.2845  1.8918  0.2467
13803TIP3   OH262823   1.368   3.759  15.777  0.2010  0.0243 -0.3180
13803TIP3    H162824   1.349   3.806  15.858  0.2508  1.8271 -1.2940
13803TIP3    H262825   1.291   3.705  15.761 -0.5593  0.9778  0.0493
13804TIP3   OH262826   0.832   1.208   0.621  0.1208 -1.1632 -0.9392
13804TIP3    H162827   0.749   1.240   0.656  1.5990  2.7531 -0.4907
13804TIP3    H262828   0.823   1.213   0.526 -0.7023 -2.5553 -0.9585
13805TIP3   OH262829   2.705   3.391   2.347  0.0695  0.0573  0.1181
13805TIP3    H162830   2.784   3.345   2.320  0.0972  0.9693 -1.4310
13805TIP3    H262831   2.661   3.416   2.266 -1.8612 -0.4534  0.9246
13806TIP3   OH262832   1.140   4.422  11.855  0.4820  0.0091 -0.0917
13806TIP3    H162833   1.140   4.478  11.777  1.7532  1.7080  1.0546
13806TIP3    H262834   1.227   4.383  11.857  0.0301 -1.0305 -0.1844
13807TIP3   OH262835   0.636   3.496   3.049  0.1356  0.2364  0.0955
13807TIP3    H162836   0.686   3.574   3.072  0.7540  0.1535 -0.9056
13807TIP3    H262837   0.634   3.496   2.954 -3.3669  1.1966  0.0680
13808TIP3   OH262838   6.403   1.951  17.242  0.3398  0.0199  0.4750
13808TIP3    H162839   6.366   2.009  17.177 -1.1166  0.2255  1.4385
13808TIP3    H262840   6.420   2.007  17.318  2.9265 -0.0197 -0.0042
13809TIP3   OH262841   1.067   4.230  16.900 -0.4512 -0.5001 -0.2686
13809TIP3    H162842   1.024   4.151  16.933  1.1201 -0.5830  1.7282
13809TIP3    H262843   1.150   4.234  16.947  0.6247  1.0182 -2.1563
13810TIP3   OH262844   6.123   3.306  14.313 -0.3187  0.2585  0.0630
13810TIP3    H162845   6.033   3.285  14.337 -0.8231 -1.4792 -2.8327
13810TIP3    H262846   6.174   3.232  14.344 -0.0692  0.6763  0.6576
13811TIP3   OH262847   4.945   2.395  12.214 -0.2217 -0.4968 -0.2332
13811TIP3    H162848   4.885   2.321  12.225 -0.3588 -0.2679  0.6308
13811TIP3    H262849   4.888   2.469  12.192 -0.3291 -0.1952  0.9504
13812TIP3   OH262850   2.513   5.250   5.249  0.1835 -0.1770 -0.7999
13812TIP3    H162851   2.533   5.207   5.166  0.2155 -2.4747  0.3235
13812TIP3    H262852   2.461   5.186   5.297  1.0082  0.6726  1.3483
13813TIP3   OH262853   4.402   5.053  12.727  0.5872 -0.2995 -0.7172
13813TIP3    H162854   4.447   5.053  12.643 -0.6614  0.9143 -1.4032
13813TIP3    H262855   4.322   5.002  12.712  0.3134  0.0002 -0.2960
13814TIP3   OH262856   5.870   0.500  14.026 -0.6175 -0.0364  0.1987
13814TIP3    H162857   5.906   0.549  14.101  0.2755  1.3162 -1.0437
13814TIP3    H262858   5.946   0.455  13.989 -0.7842  0.3456 -0.6317
13815TIP3   OH262859   0.433   6.386  12.457  0.1025  0.4592 -0.3834
13815TIP3    H162860   0.508   6.377  12.398  0.6823 -0.8881  0.5057
13815TIP3    H262861   0.460   6.340  12.536 -2.2186 -1.4492 -0.5784
13816TIP3   OH262862   5.921   2.551  14.310 -0.7093 -0.2719 -0.3120
13816TIP3    H162863   5.887   2.525  14.224 -3.0585  0.0273  0.4759
13816TIP3    H262864   5.895   2.480  14.369 -1.9112  0.9674  0.7155
13817TIP3   OH262865   5.530   2.577  14.068 -0.2573 -0.6551  0.2422
13817TIP3    H162866   5.481   2.496  14.089 -3.8467  1.0920 -0.6100
13817TIP3    H262867   5.553   2.613  14.154  0.0581 -1.8072  0.6662
13818TIP3   OH262868   2.932   2.082   5.234  0.7524  0.5192 -0.3536
13818TIP3    H162869   2.966   2.125   5.156  0.1735  0.3097 -0.7281
13818TIP3    H262870   2.992   2.109   5.304  2.0670 -0.3276 -1.0981
13819TIP3   OH262871   3.571   2.756   1.362 -0.0241  0.3737  0.0375
13819TIP3    H162872   3.530   2.684   1.314  0.7497 -0.3271  0.3974
13819TIP3    H262873   3.659   2.762   1.324  0.1300  0.7095  0.4488
13820TIP3   OH262874   1.239   4.817  14.862  0.1165 -0.2921 -0.3620
13820TIP3    H162875   1.222   4.884  14.796  0.4420  1.4537  1.2411
13820TIP3    H262876   1.177   4.836  14.933  1.5629 -0.3861  0.9988
13821TIP3   OH262877   3.919   6.571   4.690  0.0417 -0.2236 -0.5169
13821TIP3    H162878   3.932   6.519   4.770  0.0039 -3.3970 -2.3935
13821TIP3    H262879   3.825   6.590   4.689  0.1832  0.6343  0.5837
13822TIP3   OH262880   4.381   0.936  10.815 -0.2010  0.6243 -0.1137
13822TIP3    H162881   4.291   0.959  10.790 -0.1109  0.8900 -0.1995
13822TIP3    H262882   4.379   0.841  10.829 -0.3119  0.5103 -0.8743
13823TIP3   OH262883   5.070   1.865  12.986  0.4605 -0.3498  0.6171
13823TIP3    H162884   5.056   1.861  12.892 -1.8674 -0.0617  0.8786
13823TIP3    H262885   5.036   1.950  13.012  2.1693  0.0661  1.5915
13824TIP3   OH262886   3.406   2.159   1.401  0.8174  0.7824  0.6711
13824TIP3    H162887   3.375   2.223   1.466  2.0174  1.4721  0.5950
13824TIP3    H262888   3.501   2.168   1.403  0.8763  1.2995 -1.6639
13825TIP3   OH262889   5.143   0.347  11.803 -0.9248  0.0882 -0.1933
13825TIP3    H162890   5.077   0.345  11.734 -0.3803  0.8264 -0.7610
13825TIP3    H262891   5.196   0.269  11.787 -1.6145 -0.4690  0.2227
13826TIP3   OH262892   2.913   4.972   5.387 -0.0751 -0.4943 -0.1926
13826TIP3    H162893   3.008   4.968   5.376  0.1006  2.1863 -0.2196
13826TIP3    H262894   2.899   5.036   5.456 -1.8997  0.9197 -1.7582
13827TIP3   OH262895   4.512   2.628   3.296  0.1305 -0.3541 -0.1677
13827TIP3    H162896   4.428   2.671   3.283 -0.1293 -0.8769 -0.2418
13827TIP3    H262897   4.527   2.631   3.390  0.2067  0.0590 -0.1893
13828TIP3   OH262898   6.362   4.823   2.332  0.6988 -0.5376  0.0947
13828TIP3    H162899   6.426   4.785   2.272  0.6246  0.2065 -0.4651
13828TIP3    H262900   6.339   4.751   2.391  1.0176 -1.1926 -0.5634
13829TIP3   OH262901   1.676   3.522  16.798 -0.2568  0.1060 -0.4755
13829TIP3    H162902   1.672   3.502  16.891  0.9497  0.4132 -0.3354
13829TIP3    H262903   1.628   3.604  16.788 -0.3093  0.1201 -0.1098
13830TIP3   OH262904   1.960   1.091  11.280 -0.5147  0.1040  0.1632
13830TIP3    H162905   1.884   1.033  11.277  0.2761 -0.9275 -0.4130
13830TIP3    H262906   1.977   1.114  11.189 -0.4346  0.7266  0.3348
13831TIP3   OH262907   6.578   0.219   0.047 -0.3889 -0.0439 -0.1177
13831TIP3    H162908   6.511   0.254  -0.012  1.7205  0.5170 -2.3401
13831TIP3    H262909   6.584   0.126   0.026 -0.8202 -0.2129  0.4753
13832TIP3   OH262910   6.593   5.106   5.877 -0.0706 -0.1647  0.1345
13832TIP3    H162911   6.668   5.156   5.844 -1.2148  1.1304 -0.6091
13832TIP3    H262912   6.527   5.172   5.897 -0.7570 -1.2090  1.5519
13833TIP3   OH262913   1.501   5.279   1.327  0.0281  0.1187 -0.1218
13833TIP3    H162914   1.478   5.199   1.375 -0.0814  0.4262  0.3468
13833TIP3    H262915   1.437   5.282   1.256 -0.9832  0.6045  0.7784
13834TIP3   OH262916   0.849   3.066   0.818  0.1097 -0.3342  0.1906
13834TIP3    H162917   0.894   2.989   0.784  0.9689 -0.0257  0.5939
13834TIP3    H262918   0.871   3.137   0.757  0.5031 -0.0934  0.6051
13835TIP3   OH262919   6.240   3.482  16.116 -0.4797  0.0687  0.3124
13835TIP3    H162920   6.260   3.520  16.202  1.6755  0.0813 -0.1365
13835TIP3    H262921   6.163   3.530  16.085  0.5342  2.2103  0.9339
13836TIP3   OH262922   4.601   4.533  13.407  0.0389  0.1258  0.0669
13836TIP3    H162923   4.650   4.461  13.368 -0.7650 -1.3035  1.5743
13836TIP3    H262924   4.509   4.511  13.392 -0.2270  0.8984  0.4739
13837TIP3   OH262925   1.392   1.051  16.734 -0.6188  0.2892  0.3754
13837TIP3    H162926   1.362   1.125  16.786  1.5894  0.2695  1.8131
13837TIP3    H262927   1.406   1.087  16.646 -1.4673  1.0807  0.5537
13838TIP3   OH262928   6.315   0.464   1.245  0.9024  0.2568 -0.2213
13838TIP3    H162929   6.243   0.468   1.183  1.1201  1.5813 -0.4240
13838TIP3    H262930   6.342   0.373   1.245 -0.6751 -0.2349 -0.2347
13839TIP3   OH262931   4.030   1.995  14.725  0.0429  0.3166 -0.4183
13839TIP3    H162932   3.975   1.969  14.799 -0.4119  0.5042 -0.6873
13839TIP3    H262933   4.117   2.011  14.764 -0.1108  0.1036  0.0202
13840TIP3   OH262934   1.419   4.031  11.425  0.3427 -0.0532 -1.2456
13840TIP3    H162935   1.493   4.056  11.369  0.4465  1.5761 -0.4593
13840TIP3    H262936   1.419   4.097  11.495 -0.5863 -1.2562 -0.0655
13841TIP3   OH262937   2.233   6.303   0.395  0.0405  0.3516 -0.4457
13841TIP3    H162938   2.254   6.329   0.305  1.0295  0.2522 -0.2559
13841TIP3    H262939   2.210   6.385   0.439  0.2929  0.5014 -0.5942
13842TIP3   OH262940   5.278   3.665  14.260 -0.0367  0.1958  0.1525
13842TIP3    H162941   5.249   3.575  14.273 -2.6312  0.9283 -0.1402
13842TIP3    H262942   5.250   3.688  14.171  0.3971  1.3648  0.2910
13843TIP3   OH262943   4.845   4.041  13.929 -0.0329  0.1208 -0.0859
13843TIP3    H162944   4.910   4.048  13.999  0.6382 -2.3496 -0.3545
13843TIP3    H262945   4.790   3.967  13.955 -2.3695  1.7224 -0.2158
13844TIP3   OH262946   5.076   2.402   2.997  0.1761  0.8072  0.1896
13844TIP3    H162947   5.031   2.466   2.942  0.2873 -0.1845 -1.0745
13844TIP3    H262948   5.154   2.378   2.948  1.2422  1.2419  1.6061
13845TIP3   OH262949   1.944   0.991   1.892 -0.2721  0.4644 -0.0073
13845TIP3    H162950   1.872   0.979   1.831  1.1848 -0.8302 -1.5762
13845TIP3    H262951   2.023   0.988   1.837  1.1617 -1.4335  1.9742
13846TIP3   OH262952   6.483   5.930  14.843 -0.2186  0.2518 -0.2097
13846TIP3    H162953   6.409   5.991  14.839 -1.0052 -0.3856  2.5088
13846TIP3    H262954   6.529   5.955  14.923  0.1326 -1.9376  0.3125
13847TIP3   OH262955   3.748   4.842  13.111 -0.5946 -0.4999  0.3109
13847TIP3    H162956   3.660   4.872  13.133 -0.2024  0.9353  0.0294
13847TIP3    H262957   3.797   4.847  13.193 -0.7374 -1.2043  0.4467
13848TIP3   OH262958   2.203   0.940   2.055 -0.7042 -0.4667  0.4840
13848TIP3    H162959   2.298   0.930   2.044 -0.3342  0.8513  2.1081
13848TIP3    H262960   2.175   0.858   2.097 -0.7987 -2.0056 -2.3240
13849TIP3   OH262961   4.481   2.625   5.675 -0.1160  0.3375 -0.2236
13849TIP3    H162962   4.444   2.545   5.711  1.5235 -0.4245 -0.1545
13849TIP3    H262963   4.484   2.610   5.580  1.3752 -0.2441 -0.1109
13850TIP3   OH262964   3.593   6.311   4.196  0.1792 -0.9546  0.1097
13850TIP3    H162965   3.580   6.375   4.266 -1.2840 -0.9160 -0.1652
13850TIP3    H262966   3.688   6.303   4.189  0.4695  1.7668 -0.3612
13851TIP3   OH262967   3.363   5.433   6.116  0.8421 -0.0604 -0.3813
13851TIP3    H162968   3.270   5.449   6.099  0.2934 -0.2784  2.1282
13851TIP3    H262969   3.394   5.516   6.153  1.9843  0.3866 -2.1848
13852TIP3   OH262970   2.481   3.612   1.133  0.1638 -0.1907  0.0170
13852TIP3    H162971   2.450   3.661   1.208  3.0549 -2.2381  2.8280
13852TIP3    H262972   2.411   3.549   1.114 -1.7636  2.0909 -0.9646
13853TIP3   OH262973   3.706   5.791   0.458 -0.3667 -0.0748  0.2661
13853TIP3    H162974   3.760   5.752   0.526 -1.3132 -1.4886  0.2601
13853TIP3    H262975   3.724   5.738   0.380 -0.1639  0.7887 -0.2837
13854TIP3   OH262976   6.734   3.517   5.882 -0.2399 -0.3196 -0.0328
13854TIP3    H162977   6.697   3.516   5.970 -0.2426  0.2933 -0.0237
13854TIP3    H262978   6.674   3.573   5.832  0.2941  0.1218 -0.1867
13855TIP3   OH262979   4.879   3.577   6.397 -0.5437 -0.9244 -0.1770
13855TIP3    H162980   4.787   3.589   6.420 -0.9005  1.2818 -2.3565
13855TIP3    H262981   4.927   3.629   6.461 -1.0992  0.6391 -0.9919
13856TIP3   OH262982   4.435   3.710   5.829 -0.4299 -0.3134 -0.3737
13856TIP3    H162983   4.453   3.616   5.835  3.2756  0.2317 -1.0149
13856TIP3    H262984   4.464   3.734   5.741 -2.0686  1.3498 -0.5196
13857TIP3   OH262985   5.423   1.075  12.459  0.1686 -0.3162 -0.2338
13857TIP3    H162986   5.433   0.980  12.460  0.9293 -0.2637 -1.0971
13857TIP3    H262987   5.483   1.104  12.390  1.8525  1.0096  1.6642
13858TIP3   OH262988   5.030   5.881  13.774  0.3511 -0.2786 -0.5241
13858TIP3    H162989   5.023   5.965  13.818 -0.4191 -0.5114 -0.1769
13858TIP3    H262990   4.987   5.895  13.689  1.1996 -0.0262 -0.9175
13859TIP3   OH262991   1.122   5.605   2.238 -0.2504  0.7343  0.3519
13859TIP3    H162992   1.203   5.639   2.276  0.8630 -0.9492 -0.4171
13859TIP3    H262993   1.106   5.660   2.161  1.5205 -0.3772 -0.8810
13860TIP3   OH262994   3.378   2.347   2.630  0.3894  0.1394  0.1850
13860TIP3    H162995   3.323   2.424   2.646  0.4614  0.4258 -0.8783
13860TIP3    H262996   3.448   2.379   2.574  0.1503 -0.8034 -0.6746
13861TIP3   OH262997   5.970   3.740  12.703 -0.2746 -0.4052  0.1496
13861TIP3    H162998   6.049   3.709  12.747  1.2862  1.7010 -0.9906
13861TIP3    H262999   5.987   3.726  12.610  0.1559  2.7277 -0.3764
13862TIP3   OH263000   3.446   4.374  13.864 -0.2562 -0.5330  0.1940
13862TIP3    H163001   3.424   4.402  13.953 -1.1352  0.3589 -0.2804
13862TIP3    H263002   3.364   4.383  13.815  0.3324 -0.5139 -0.8211
13863TIP3   OH263003   4.618   5.490  16.234  0.5556  0.1697 -0.4169
13863TIP3    H163004   4.615   5.586  16.236 -0.5070  0.1470 -0.6783
13863TIP3    H263005   4.669   5.470  16.155  0.8880  0.5168 -0.2939
13864TIP3   OH263006   1.497   4.264  14.459  0.3709 -0.1869  0.6074
13864TIP3    H163007   1.569   4.217  14.416  0.8633  0.3884  0.7922
13864TIP3    H263008   1.459   4.199  14.518 -0.4389 -1.0512 -0.8173
13865TIP3   OH263009   1.401   0.177   4.338  0.0114 -0.1310  0.5816
13865TIP3    H163010   1.394   0.225   4.421 -0.7484 -1.5296  1.3507
13865TIP3    H263011   1.488   0.137   4.342 -0.1360 -0.4297  0.8391
13866TIP3   OH263012   3.993   4.147   5.699  0.5160 -0.3981  0.0186
13866TIP3    H163013   4.015   4.125   5.789  1.2223  1.6797  0.4156
13866TIP3    H263014   3.898   4.139   5.694  0.4271 -0.1139  1.0748
13867TIP3   OH263015   4.893   0.175   3.378  0.3800 -0.6600 -0.3403
13867TIP3    H163016   4.835   0.224   3.320  1.4002  0.3658 -0.5165
13867TIP3    H263017   4.854   0.087   3.381 -0.9573 -0.1082 -0.7476
13868TIP3   OH263018   6.348   5.056  12.086 -0.0135 -0.1117 -0.0915
13868TIP3    H163019   6.261   5.023  12.064  0.2465 -0.3884 -0.7483
13868TIP3    H263020   6.354   5.048  12.181 -0.0831 -1.6661 -0.1933
13869TIP3   OH263021   0.306   0.481   0.441 -1.0099 -0.3864  0.0808
13869TIP3    H163022   0.311   0.419   0.514 -1.7532  0.7977  1.1745
13869TIP3    H263023   0.385   0.534   0.448 -1.0636 -0.2954  0.0030
13870TIP3   OH263024   6.008   1.720  16.350 -0.3248 -0.4987  0.2852
13870TIP3    H163025   6.089   1.687  16.310  0.7844  1.6634  0.5755
13870TIP3    H263026   5.938   1.675  16.303  1.0220 -1.8205 -0.5569
13871TIP3   OH263027   4.790   1.518   0.862  0.2938 -0.1181  0.1976
13871TIP3    H163028   4.812   1.501   0.954  1.3298  0.1232  0.0042
13871TIP3    H263029   4.875   1.526   0.818 -0.1937 -0.2876 -0.7931
13872TIP3   OH263030   4.938   5.318   3.567  0.5113  0.4117 -0.0692
13872TIP3    H163031   4.880   5.393   3.583  0.7236  0.5324  0.1391
13872TIP3    H263032   4.878   5.248   3.540  0.2485  0.4985  0.2694
13873TIP3   OH263033   1.575   0.913  13.756 -0.0912  0.0289 -0.2402
13873TIP3    H163034   1.595   0.923  13.849  1.7404 -0.4334 -0.5478
13873TIP3    H263035   1.633   0.975  13.712 -1.9430  1.2778 -1.0232
13874TIP3   OH263036   2.471   3.110   5.651 -0.2379  0.1738 -0.4299
13874TIP3    H163037   2.434   3.174   5.591  0.5755 -0.9359 -2.1853
13874TIP3    H263038   2.396   3.057   5.680 -0.8293  1.5143  0.6223
13875TIP3   OH263039   0.662   0.651   2.181  0.2897 -0.4932  0.0324
13875TIP3    H163040   0.701   0.689   2.260  0.8855 -1.9058  0.4584
13875TIP3    H263041   0.592   0.712   2.157  1.6947  1.2648  0.1955
13876TIP3   OH263042   0.084   3.421   4.992 -0.1255  0.0457  0.4422
13876TIP3    H163043   0.100   3.343   4.939  0.6685 -2.2715  3.7530
13876TIP3    H263044   0.170   3.449   5.021 -0.6116 -0.6851  2.8675
13877TIP3   OH263045   5.230   1.371  17.168 -0.2268 -0.2499  0.4267
13877TIP3    H163046   5.317   1.413  17.164  0.4003 -1.4536  1.0442
13877TIP3    H263047   5.209   1.352  17.076  0.8160 -1.2179  0.3660
13878TIP3   OH263048   1.897   5.598   1.764  0.9620 -0.5349  0.4019
13878TIP3    H163049   1.960   5.669   1.751 -0.8362  1.3269  1.2994
13878TIP3    H263050   1.931   5.549   1.838  2.8380 -1.3822 -0.9509
13879TIP3   OH263051   1.789   3.147   1.496 -0.0046  0.3067  0.3765
13879TIP3    H163052   1.751   3.159   1.409 -1.9281  3.2604  1.4321
13879TIP3    H263053   1.717   3.111   1.548  1.1915 -1.6522  0.7392
13880TIP3   OH263054   0.263   4.472   2.591  0.6680 -0.4987 -0.2743
13880TIP3    H163055   0.279   4.553   2.640  0.1795 -0.6954  0.2206
13880TIP3    H263056   0.195   4.427   2.641 -0.4260 -0.3349 -1.5669
13881TIP3   OH263057   6.012   6.621  12.475  0.6807  0.4227 -0.7504
13881TIP3    H163058   5.926   6.646  12.440 -0.2657 -1.2834  0.2381
13881TIP3    H263059   6.006   6.637  12.569  0.9752 -0.8850 -0.4836
13882TIP3   OH263060   0.044   3.630  15.366  0.3732 -0.6401 -0.3056
13882TIP3    H163061   0.037   3.602  15.457  0.0965 -0.5931 -0.3109
13882TIP3    H263062   0.040   3.726  15.370  2.5850 -0.5088 -0.1711
13883TIP3   OH263063   3.205   1.073  12.370  0.4754 -0.1927 -0.0550
13883TIP3    H163064   3.217   1.149  12.313 -0.4828  1.0223  1.2951
13883TIP3    H263065   3.114   1.047  12.356  0.4140 -0.2613  0.4819
13884TIP3   OH263066   4.224   3.059  12.942  0.2996 -0.1773  0.3693
13884TIP3    H163067   4.286   3.132  12.930  0.1597  0.2477  2.0456
13884TIP3    H263068   4.279   2.983  12.957  0.4282 -0.2328 -0.3300
13885TIP3   OH263069   3.880   3.357   3.749 -0.1073 -0.2449  0.1138
13885TIP3    H163070   3.971   3.352   3.721  0.0672 -0.2826  0.6856
13885TIP3    H263071   3.850   3.443   3.720  1.0628  1.1718  2.7244
13886TIP3   OH263072   3.931   5.757  15.476 -0.1727 -0.2479  0.1214
13886TIP3    H163073   3.922   5.729  15.567  2.5933 -1.7105  0.0661
13886TIP3    H263074   3.961   5.848  15.481 -1.6249  0.2203  0.5841
13887TIP3   OH263075   2.419   2.143   0.370  0.4941 -0.7344  0.2351
13887TIP3    H163076   2.514   2.135   0.356  0.7086  2.0083 -0.4432
13887TIP3    H263077   2.387   2.187   0.292 -1.0746 -0.1228  1.1782
13888TIP3   OH263078   1.648   4.835  16.626  0.5350 -0.2134 -0.4146
13888TIP3    H163079   1.660   4.904  16.560  1.5946 -0.0189 -0.0307
13888TIP3    H263080   1.663   4.879  16.710 -2.4115 -0.0621  0.1461
13889TIP3   OH263081   6.261   5.582   5.964  0.3302 -0.1425 -0.1385
13889TIP3    H163082   6.217   5.499   5.986 -1.3489 -0.3551 -3.6326
13889TIP3    H263083   6.200   5.649   5.993 -0.1731 -0.2933 -0.8215
13890TIP3   OH263084   0.596   6.005  16.469 -0.0735 -0.0724  0.7836
13890TIP3    H163085   0.652   6.009  16.546  1.8527 -0.5872 -0.5371
13890TIP3    H263086   0.636   6.065  16.407  0.5146 -2.2845 -1.1122
13891TIP3   OH263087   1.295   5.444  15.086 -0.8136  0.3524 -0.0713
13891TIP3    H163088   1.256   5.431  15.173 -0.5523 -2.0292 -0.2432
13891TIP3    H263089   1.387   5.463  15.103 -0.1494 -2.6298  0.2246
13892TIP3   OH263090   4.636   0.106  14.523  0.3038  0.3965 -0.1076
13892TIP3    H163091   4.563   0.089  14.464  1.2744 -0.6953 -1.0582
13892TIP3    H263092   4.600   0.162  14.592 -1.2803  0.2923 -0.8231
13893TIP3   OH263093   2.913   0.700   1.395  0.4119 -0.4065  0.0069
13893TIP3    H163094   2.892   0.726   1.485  1.9340 -4.0363  1.6158
13893TIP3    H263095   3.008   0.711   1.388  0.4369 -1.0136 -0.7844
13894TIP3   OH263096   6.010   4.715   3.833  0.2910  0.2556  0.6567
13894TIP3    H163097   6.027   4.641   3.891  3.8698 -0.4315 -1.0331
13894TIP3    H263098   6.029   4.792   3.886  0.3725 -0.2023  1.3087
13895TIP3   OH263099   3.617   5.337   1.719 -0.1835  0.3468 -0.1047
13895TIP3    H163100   3.606   5.395   1.644 -0.6151  3.0626  1.8847
13895TIP3    H263101   3.712   5.336   1.735  0.1443 -1.8574 -1.7615
13896TIP3   OH263102   5.716   6.489  15.745  1.1368  0.6811  0.8514
13896TIP3    H163103   5.710   6.400  15.781  0.4141  0.0395 -0.7697
13896TIP3    H263104   5.635   6.532  15.772  1.1253  0.5902  0.9629
13897TIP3   OH263105   6.439   3.276  14.130  0.0102  0.6527  0.5741
13897TIP3    H163106   6.464   3.368  14.126 -0.9234  0.9754  1.6216
13897TIP3    H263107   6.366   3.267  14.069 -1.2367  1.0937  1.9485
13898TIP3   OH263108   4.152   5.154   3.674  0.3489  0.1684 -0.2062
13898TIP3    H163109   4.090   5.193   3.736 -0.3157 -0.2281 -0.6081
13898TIP3    H263110   4.188   5.078   3.721  1.4360  1.0621  0.4708
13899TIP3   OH263111   4.887   6.691   3.982  0.0349 -0.0685  0.1883
13899TIP3    H163112   4.858   6.721   4.069 -0.8060  3.1059 -1.0609
13899TIP3    H263113   4.806   6.674   3.934  0.4681 -0.4764 -0.4161
13900TIP3   OH263114   4.164   6.635   0.412  0.6771  0.5619 -0.3530
13900TIP3    H163115   4.147   6.706   0.474  0.0093 -0.1893  0.3496
13900TIP3    H263116   4.188   6.679   0.331 -0.8975  1.6158 -0.2805
13901TIP3   OH263117   1.656   6.051   2.338  0.0832  0.3096 -0.2570
13901TIP3    H163118   1.640   6.049   2.432  2.2370  0.5998  0.1791
13901TIP3    H263119   1.669   6.144   2.318  0.2020  0.1990 -0.7129
13902TIP3   OH263120   2.618   2.026  11.676 -0.1045  0.2308  0.5504
13902TIP3    H163121   2.613   1.935  11.648 -0.6817  0.0218  1.3050
13902TIP3    H263122   2.625   2.023  11.771  0.8247  0.9578  0.5192
13903TIP3   OH263123   4.810   3.704  12.159  0.3631  0.4470 -0.6091
13903TIP3    H163124   4.752   3.774  12.189  1.0178  0.6546  0.2095
13903TIP3    H263125   4.753   3.646  12.108 -0.1551  1.6426 -1.4249
13904TIP3   OH263126   6.256   5.885  13.269 -0.3080 -0.1368  0.2081
13904TIP3    H163127   6.191   5.821  13.241 -0.7242  0.7928 -1.0105
13904TIP3    H263128   6.222   5.970  13.241  1.3548  0.3921 -0.3674
13905TIP3   OH263129   3.819   6.001   1.972  0.1185 -0.0173 -0.5201
13905TIP3    H163130   3.763   5.989   2.049  1.1327 -1.6324  0.0157
13905TIP3    H263131   3.845   6.093   1.975 -1.9316  0.6057 -0.4057
13906TIP3   OH263132   4.750   6.333  13.316  0.3248  0.4682  0.1276
13906TIP3    H163133   4.733   6.373  13.401  0.5166 -0.2203  0.4874
13906TIP3    H263134   4.677   6.272  13.303  1.6833 -1.4263  1.0195
13907TIP3   OH263135   6.273   3.860   4.134 -0.1346 -0.1283  0.2431
13907TIP3    H163136   6.349   3.905   4.097 -0.8519  0.3040 -0.7818
13907TIP3    H263137   6.212   3.854   4.060 -1.3102  0.0317  1.1830
13908TIP3   OH263138   5.449   5.532   1.100 -0.1181  0.2628 -0.2731
13908TIP3    H163139   5.356   5.540   1.075 -0.6829 -2.2123  0.7052
13908TIP3    H263140   5.457   5.441   1.130  2.7568  0.2673 -0.7826
13909TIP3   OH263141   2.601   0.391   3.670 -0.0761 -0.8884 -0.1620
13909TIP3    H163142   2.611   0.482   3.643 -1.1641 -0.4997  0.6606
13909TIP3    H263143   2.682   0.371   3.717 -0.6062  0.3055  1.3558
13910TIP3   OH263144   2.105   1.195   6.327  0.7683  0.3912 -0.4197
13910TIP3    H163145   2.156   1.271   6.356  0.7020  0.5384 -0.6935
13910TIP3    H263146   2.014   1.221   6.338  0.6909  1.1222 -2.4511
13911TIP3   OH263147   5.190   0.001  15.070  0.0551  0.2075 -0.2312
13911TIP3    H163148   5.107  -0.034  15.039  0.3037 -0.9532  0.3547
13911TIP3    H263149   5.183   0.095  15.056 -1.6192  0.2123  0.4113
13912TIP3   OH263150   5.435   2.226   6.848 -0.0985 -0.6924 -0.2297
13912TIP3    H163151   5.440   2.313   6.810 -2.7898 -0.1034  0.5518
13912TIP3    H263152   5.526   2.195   6.850  0.8816  1.9172 -0.8660
13913TIP3   OH263153   0.880   2.991  15.278 -0.1143  0.1830  0.4136
13913TIP3    H163154   0.792   2.994  15.315 -0.2215 -0.7662  0.2753
13913TIP3    H263155   0.876   3.050  15.203 -1.2188 -1.2374 -0.7296
13914TIP3   OH263156   2.575   2.169  12.665 -0.7927 -0.4653 -0.2575
13914TIP3    H163157   2.528   2.138  12.743 -2.0324  0.0424 -0.7784
13914TIP3    H263158   2.551   2.262  12.658  2.2607  0.5290  0.8501
13915TIP3   OH263159   3.823   4.405   5.589 -0.7002 -0.4988 -0.1685
13915TIP3    H163160   3.905   4.371   5.552  0.5641  0.3020  1.7311
13915TIP3    H263161   3.767   4.328   5.597  0.5237 -1.3987  0.1195
13916TIP3   OH263162   6.320   6.024   4.047  0.0802 -0.1986  0.4496
13916TIP3    H163163   6.403   5.978   4.035  0.0362 -0.1127 -0.1987
13916TIP3    H263164   6.260   5.983   3.984  0.3157  1.4025 -0.8716
13917TIP3   OH263165   3.429   4.031  15.684 -0.0502  0.0763  0.1373
13917TIP3    H163166   3.450   4.000  15.596 -1.1019  0.3098 -0.2126
13917TIP3    H263167   3.352   3.980  15.709  0.5805 -0.3999  1.1642
13918TIP3   OH263168   5.224   4.424   2.977  0.1713 -0.9932 -0.3952
13918TIP3    H163169   5.277   4.500   2.954  0.9230 -0.9292  1.4133
13918TIP3    H263170   5.183   4.398   2.894  1.4686  0.1522 -1.4518
13919TIP3   OH263171   4.884   4.285  12.432  0.0226  0.5364 -0.3640
13919TIP3    H163172   4.914   4.375  12.423 -1.6694  1.1383 -0.1586
13919TIP3    H263173   4.937   4.249  12.504  0.8408  1.2799 -0.5756
13920TIP3   OH263174   1.224   3.541  14.199  0.3228 -0.0369 -0.1167
13920TIP3    H163175   1.317   3.563  14.195  0.1404  0.7144 -0.4104
13920TIP3    H263176   1.206   3.501  14.114  0.6897 -1.4953  0.4753
13921TIP3   OH263177   4.295   5.586   4.419  0.0578  0.2276 -0.6759
13921TIP3    H163178   4.244   5.523   4.471  0.0205  0.1732 -0.7791
13921TIP3    H263179   4.378   5.541   4.402  0.4410  0.6062  0.1424
13922TIP3   OH263180   5.241   4.923  16.266  0.5190 -0.1484  0.2426
13922TIP3    H163181   5.290   4.938  16.185 -1.4357 -0.2396 -1.0064
13922TIP3    H263182   5.250   4.829  16.282 -0.3620 -0.4165 -0.7500
13923TIP3   OH263183   2.386   2.092  16.055 -0.0640 -0.2752  0.3430
13923TIP3    H163184   2.292   2.105  16.045 -0.0903 -1.1354 -0.7073
13923TIP3    H263185   2.422   2.108  15.968  0.9039  1.0319  0.9503
13924TIP3   OH263186   0.396   4.664  11.354  0.3134 -0.0704  0.1878
13924TIP3    H163187   0.348   4.582  11.341 -2.1719  1.6209 -2.6345
13924TIP3    H263188   0.387   4.684  11.447 -0.2997 -2.2164  0.6320
13925TIP3   OH263189   5.211   2.873   2.802  0.2112  0.2843 -0.1270
13925TIP3    H163190   5.204   2.969   2.808 -0.4126  0.1718  1.3320
13925TIP3    H263191   5.296   2.858   2.762  1.2202  1.4315  1.4673
13926TIP3   OH263192   4.951   0.890  13.751  0.3300  0.4585 -0.1552
13926TIP3    H163193   4.871   0.843  13.725  0.6878  0.5562 -1.4490
13926TIP3    H263194   5.008   0.885  13.675  0.7581  2.1986  0.0236
13927TIP3   OH263195   1.446   4.737   2.121  0.2736  0.2087 -0.0342
13927TIP3    H163196   1.374   4.792   2.090 -0.5712  0.6886  2.5832
13927TIP3    H263197   1.467   4.681   2.046 -1.2219  1.6634 -1.6221
13928TIP3   OH263198   0.919   1.666  16.397 -0.3385  0.4403 -0.4283
13928TIP3    H163199   0.991   1.729  16.387 -1.2430  1.6134  0.2649
13928TIP3    H263200   0.875   1.667  16.312 -0.0982  0.4094 -0.5567
13929TIP3   OH263201   4.653   3.563  14.235 -0.0895  0.4121  0.2683
13929TIP3    H163202   4.715   3.601  14.298 -0.9043  2.9150 -0.3224
13929TIP3    H263203   4.656   3.622  14.160  0.0330 -1.8716 -1.6554
13930TIP3   OH263204   3.662   4.831   5.305  0.4859  0.0944  0.1181
13930TIP3    H163205   3.665   4.741   5.337 -0.0188 -0.4976 -1.3853
13930TIP3    H263206   3.644   4.884   5.383 -0.9506 -1.2738  0.7638
13931TIP3   OH263207   3.872   0.133   3.341  0.4060 -0.5340 -0.5566
13931TIP3    H163208   3.959   0.165   3.314 -0.2431  1.6031 -0.3281
13931TIP3    H263209   3.883   0.109   3.433  0.8519 -0.6170 -0.6300
13932TIP3   OH263210   3.482   6.618   1.890  0.5692  0.3609  0.9095
13932TIP3    H163211   3.400   6.619   1.841  0.5706 -1.2679  0.8342
13932TIP3    H263212   3.455   6.618   1.982  0.4711 -0.4342  0.8839
13933TIP3   OH263213   3.447   5.659   1.822  0.2103  0.1841 -0.2432
13933TIP3    H163214   3.421   5.569   1.801 -2.3486  1.0489 -1.1874
13933TIP3    H263215   3.381   5.714   1.779  0.5798  2.4600  1.8569
13934TIP3   OH263216   4.850   3.568  14.447  0.0418 -0.2892  0.1129
13934TIP3    H163217   4.903   3.605  14.377  0.1834  0.7952  0.7718
13934TIP3    H263218   4.879   3.615  14.526 -1.5897  0.0047  0.5612
13935TIP3   OH263219   4.127   1.939  11.491 -0.5974  0.1592  0.2625
13935TIP3    H163220   4.088   1.979  11.568  0.3499 -0.8922  1.3248
13935TIP3    H263221   4.124   2.008  11.424 -0.4675  1.4600  1.5456
13936TIP3   OH263222   1.632   3.653   2.034 -0.7105 -0.0287  0.6328
13936TIP3    H163223   1.697   3.585   2.020  1.7014  1.7527  2.3885
13936TIP3    H263224   1.593   3.666   1.947  0.8095 -1.6178 -0.3563
13937TIP3   OH263225   3.124   4.491   5.183  0.1667  0.1108 -0.3827
13937TIP3    H163226   3.112   4.583   5.158 -0.0572  0.0147 -0.6420
13937TIP3    H263227   3.127   4.444   5.100 -2.3328 -0.4322 -0.2472
13938TIP3   OH263228   3.955   5.194  16.533  0.2042 -0.2081  0.1722
13938TIP3    H163229   3.960   5.224  16.623 -0.0268 -0.3642  0.2397
13938TIP3    H263230   3.879   5.136  16.531  1.4671 -1.9545  0.4037
13939TIP3   OH263231   5.432   5.508   5.741 -0.2028 -0.0507 -0.1931
13939TIP3    H163232   5.485   5.476   5.667 -1.6143 -0.5799 -1.0359
13939TIP3    H263233   5.388   5.429   5.774  0.3187  0.2011  1.1687
13940TIP3   OH263234   3.459   3.967   3.233  0.1534 -0.2565  0.0865
13940TIP3    H163235   3.399   3.914   3.181 -1.7161  1.4783  0.3454
13940TIP3    H263236   3.455   3.929   3.321  0.7125 -1.1212 -0.2456
13941TIP3   OH263237   5.881   0.551  13.567 -0.0606  0.3970 -0.3280
13941TIP3    H163238   5.805   0.494  13.562  0.2478 -0.1223  0.7089
13941TIP3    H263239   5.903   0.569  13.476  0.1299 -1.5451 -0.6951
13942TIP3   OH263240   3.260   5.752   0.690 -0.1850 -0.0552  0.3491
13942TIP3    H163241   3.269   5.686   0.621 -0.0204  0.0702  0.2514
13942TIP3    H263242   3.194   5.813   0.656  0.9080  0.7920 -0.3164
13943TIP3   OH263243   2.522   0.397   2.834 -0.4616  0.5566  0.0055
13943TIP3    H163244   2.490   0.440   2.755  1.2838  0.6094 -0.7142
13943TIP3    H263245   2.480   0.311   2.834  0.5347  0.0277 -1.7240
13944TIP3   OH263246   1.670   1.893  13.558  0.0269  0.0564 -0.1599
13944TIP3    H163247   1.756   1.910  13.520 -1.2762  0.2755 -3.3307
13944TIP3    H263248   1.677   1.806  13.596  1.1954 -0.7220 -2.0002
13945TIP3   OH263249   5.291   0.022   1.486 -0.3941  0.4356  0.0372
13945TIP3    H163250   5.233  -0.046   1.520  0.8188 -0.4546  0.4060
13945TIP3    H263251   5.337  -0.020   1.413 -0.7483  1.3600 -0.7274
13946TIP3   OH263252   4.979   1.831   2.604 -0.0942  0.6027 -0.4621
13946TIP3    H163253   4.955   1.740   2.622 -1.6260  0.8964 -0.8224
13946TIP3    H263254   5.055   1.848   2.660  0.4895 -1.0125 -0.7074
13947TIP3   OH263255   2.492   3.088   3.457  0.1668  0.4770 -0.1226
13947TIP3    H163256   2.425   3.027   3.424  0.8714 -0.6556  0.4674
13947TIP3    H263257   2.462   3.111   3.545  0.1256  0.6301 -0.1772
13948TIP3   OH263258   0.170   6.303  14.555  0.1055  0.5628 -0.2001
13948TIP3    H163259   0.222   6.376  14.521  1.5283 -0.2802  0.0910
13948TIP3    H263260   0.229   6.256  14.613 -0.9765 -0.4812  0.0965
13949TIP3   OH263261   1.444   5.685   4.979 -0.1834 -0.8276  0.1656
13949TIP3    H163262   1.465   5.661   4.888 -2.0422 -1.1015 -0.2398
13949TIP3    H263263   1.453   5.780   4.982  1.1342 -0.9389  0.0567
13950TIP3   OH263264   4.693   6.150   6.241 -0.0523  0.4451  0.1441
13950TIP3    H163265   4.700   6.146   6.336 -0.6447  1.0429  0.2220
13950TIP3    H263266   4.645   6.071   6.216 -0.2557  0.4910  0.3868
13951TIP3   OH263267   0.024   2.054  14.269 -0.0965 -0.0952  0.3689
13951TIP3    H163268   0.045   2.061  14.363 -0.3160  0.6147  0.3721
13951TIP3    H263269  -0.004   2.142  14.245 -0.4166 -0.3710 -0.2782
13952TIP3   OH263270   6.354   1.316  13.587  0.4558 -0.0109 -0.3682
13952TIP3    H163271   6.391   1.264  13.658 -0.3498 -0.9815 -0.6283
13952TIP3    H263272   6.295   1.377  13.631 -1.1211 -1.5392 -0.2433
13953TIP3   OH263273   0.189   0.124  16.581 -0.0716  0.0256  0.2808
13953TIP3    H163274   0.154   0.191  16.640  0.2099 -0.8457  1.4695
13953TIP3    H263275   0.166   0.041  16.623  2.1018 -0.6000  0.3340
13954TIP3   OH263276   1.997   3.404  16.424 -0.0480  0.8183  0.2512
13954TIP3    H163277   2.088   3.382  16.447  0.0237  1.0650  0.2161
13954TIP3    H263278   1.969   3.335  16.364 -0.0082  0.5375  0.5581
13955TIP3   OH263279   4.884   4.689  16.319 -0.0563 -0.4241  0.5162
13955TIP3    H163280   4.873   4.667  16.411  0.1904 -0.2636  0.5845
13955TIP3    H263281   4.815   4.753  16.301  0.2180 -0.0593  0.7280
13956TIP3   OH263282   1.772   4.049  13.968  0.5977 -0.1469 -0.0019
13956TIP3    H163283   1.849   4.016  14.014  0.8901  0.6998  0.1300
13956TIP3    H263284   1.714   3.973  13.961  1.5708 -0.8780 -0.3857
13957TIP3   OH263285   1.630   3.982  13.052  0.1073 -0.4822  0.3139
13957TIP3    H163286   1.616   3.904  12.999  1.6245 -0.1241 -0.7038
13957TIP3    H263287   1.549   4.032  13.045 -0.5115 -1.4970  0.1625
13958TIP3   OH263288   4.750   1.597  16.844  0.0363 -0.2005  0.1953
13958TIP3    H163289   4.686   1.667  16.833  0.5373  0.4783  1.2880
13958TIP3    H263290   4.706   1.532  16.899  1.0350  1.4723  3.2165
13959TIP3   OH263291   1.722   2.603   1.148  0.3991  0.1314 -0.0660
13959TIP3    H163292   1.648   2.553   1.182  0.2884 -0.8777 -1.6670
13959TIP3    H263293   1.798   2.549   1.167  0.4965  0.2582 -0.0958
13960TIP3   OH263294   0.231   4.779  12.538 -0.5798  0.3609 -0.0454
13960TIP3    H163295   0.300   4.731  12.584 -0.3744  1.4985  0.9018
13960TIP3    H263296   0.277   4.823  12.466 -0.5477  0.1537 -0.1547
13961TIP3   OH263297   4.563   3.289  14.766  0.3733  0.1740 -0.6616
13961TIP3    H163298   4.641   3.252  14.807  1.0575  0.0589 -1.9848
13961TIP3    H263299   4.597   3.347  14.698 -0.6872 -0.2930 -1.6280
13962TIP3   OH263300   0.340   4.808   6.232 -0.1550  0.6561  0.3547
13962TIP3    H163301   0.298   4.859   6.162 -0.1732  0.1634  0.0037
13962TIP3    H263302   0.272   4.748   6.262  0.5598 -0.8638 -0.9170
13963TIP3   OH263303   2.122   5.279   5.661  0.0300 -0.8367  0.2456
13963TIP3    H163304   2.092   5.286   5.571 -0.7274 -0.9705  0.4773
13963TIP3    H263305   2.188   5.347   5.670 -0.1652 -0.5693 -0.3056
13964TIP3   OH263306   1.077   4.445   0.211 -0.9020 -0.2952  0.0955
13964TIP3    H163307   1.056   4.519   0.154  0.1352  1.5256  1.9779
13964TIP3    H263308   1.033   4.465   0.293  1.5396 -0.3690  1.5056
13965TIP3   OH263309   1.014   0.493   0.921 -0.3647  0.0110 -0.1216
13965TIP3    H163310   0.967   0.416   0.890  0.8766 -1.0729  0.5856
13965TIP3    H263311   1.068   0.521   0.847  1.0863 -1.3688  0.3506
13966TIP3   OH263312   2.918   1.851  13.555  0.0827  0.3991  0.6505
13966TIP3    H163313   2.950   1.936  13.525 -0.0582  0.2225 -0.0152
13966TIP3    H263314   2.894   1.865  13.647  1.2947  0.7392  0.9237
13967TIP3   OH263315   0.079   0.675   2.318 -0.0844 -0.2850 -0.3019
13967TIP3    H163316   0.081   0.711   2.229  2.4523 -1.2718 -0.7199
13967TIP3    H263317   0.170   0.672   2.345 -0.5711 -2.3499  1.3580
13968TIP3   OH263318   4.141   0.499   1.679  0.5795  0.0105 -0.8257
13968TIP3    H163319   4.159   0.547   1.599  1.6839  0.4109 -0.3509
13968TIP3    H263320   4.189   0.546   1.747  2.1325 -2.0128 -0.4159
13969TIP3   OH263321   1.148   1.989  12.827  0.2551  0.0455  0.1821
13969TIP3    H163322   1.089   2.063  12.839 -3.1616 -2.8453  3.6565
13969TIP3    H263323   1.090   1.913  12.815  3.3801 -2.5877  0.2987
13970TIP3   OH263324   6.756   1.586  15.474  0.1254  0.0196  0.5130
13970TIP3    H163325   6.797   1.513  15.520 -1.0357  0.4019  2.2437
13970TIP3    H263326   6.783   1.663  15.524 -1.2364  0.4385  0.6489
13971TIP3   OH263327   3.448   6.177   1.247  0.0954 -0.2091 -0.6481
13971TIP3    H163328   3.527   6.137   1.212  0.1037 -0.6367 -0.1403
13971TIP3    H263329   3.454   6.269   1.220  1.0435 -0.1116 -0.1310
13972TIP3   OH263330   1.368   4.707  10.450 -0.6220  0.6305  0.0133
13972TIP3    H163331   1.290   4.763  10.444 -1.7338 -0.8221  0.5147
13972TIP3    H263332   1.360   4.648  10.375 -1.1329 -0.8941  1.2286
13973TIP3   OH263333   0.638   5.073  13.257 -0.0248  0.3526 -0.3018
13973TIP3    H163334   0.646   5.168  13.268 -0.1811  0.4393 -0.8994
13973TIP3    H263335   0.544   5.056  13.257  0.0036  0.1870 -0.1506
13974TIP3   OH263336   3.899   5.725  11.688 -0.5115  0.1414  0.4108
13974TIP3    H163337   3.859   5.762  11.767 -0.9306 -0.4081  0.4626
13974TIP3    H263338   3.827   5.678  11.645 -0.4912  1.0728 -0.7008
13975TIP3   OH263339   1.099   6.637   2.513  0.2061 -0.1953  0.3813
13975TIP3    H163340   1.150   6.655   2.592 -1.1212  0.2385  1.1723
13975TIP3    H263341   1.101   6.719   2.464 -0.2742  0.0340  0.7379
13976TIP3   OH263342   3.285   6.344   4.571  0.1578 -0.5888  0.2019
13976TIP3    H163343   3.362   6.374   4.521  1.1994 -2.4200  0.6126
13976TIP3    H263344   3.304   6.253   4.592 -0.9702 -0.3595  2.5778
13977TIP3   OH263345   4.249   2.712   2.208 -0.1828  0.4222 -0.1609
13977TIP3    H163346   4.277   2.751   2.291  0.1532 -0.3817  0.1165
13977TIP3    H263347   4.252   2.783   2.145 -0.6081  1.0883  0.5542
13978TIP3   OH263348   2.097   1.846   6.218 -0.2771  0.2833 -0.2090
13978TIP3    H163349   2.029   1.893   6.267 -0.9705 -1.9152  1.0597
13978TIP3    H263350   2.179   1.879   6.255 -0.7453  0.4450  0.7360
13979TIP3   OH263351   2.681   2.647   0.111  0.0220  0.0274  0.3227
13979TIP3    H163352   2.646   2.558   0.106  1.1498 -0.3807 -0.6786
13979TIP3    H263353   2.630   2.697   0.047 -0.9042  0.2317  1.1897
13980TIP3   OH263354   5.930   1.462  17.173  0.3548  0.3067  0.3272
13980TIP3    H163355   5.911   1.420  17.089 -2.0208  0.7159  0.5855
13980TIP3    H263356   5.992   1.532  17.151 -0.7253  0.8232 -1.2382
13981TIP3   OH263357   1.118   3.099   5.346 -0.1418  0.2753  0.0825
13981TIP3    H163358   1.190   3.074   5.288 -0.3708 -1.5808  0.5345
13981TIP3    H263359   1.098   3.019   5.395 -2.7660  0.6235 -0.2926
13982TIP3   OH263360   3.216   4.253  11.294  0.0977  0.1869 -0.3779
13982TIP3    H163361   3.241   4.183  11.233  1.3402  0.4279 -0.1840
13982TIP3    H263362   3.121   4.255  11.291  0.0510 -1.2485 -0.6846
13983TIP3   OH263363   2.071   3.023   2.185 -0.4007  0.8692  0.4334
13983TIP3    H163364   2.120   3.097   2.148  2.0671 -0.3351  1.0470
13983TIP3    H263365   2.074   3.037   2.279 -1.6358  0.9535  0.4784
13984TIP3   OH263366   5.797   2.964  14.247 -0.5064 -0.0442 -0.4324
13984TIP3    H163367   5.773   2.871  14.244  2.2548 -0.8547 -0.8407
13984TIP3    H263368   5.769   2.999  14.163 -0.4600 -0.8426 -0.7868
13985TIP3   OH263369   0.284   2.435  12.618 -0.1017 -0.1592  0.7113
13985TIP3    H163370   0.237   2.516  12.600  0.2898  0.1449  1.0501
13985TIP3    H263371   0.248   2.404  12.701 -0.8586 -0.7877  0.1657
13986TIP3   OH263372   1.728   5.233  12.396 -0.0802 -0.1305 -0.1277
13986TIP3    H163373   1.822   5.230  12.379 -0.1065  1.2425 -0.6577
13986TIP3    H263374   1.703   5.142  12.409  2.3988 -0.4120  6.5488
13987TIP3   OH263375   5.009   5.213  11.840  0.6170  0.1289  0.6279
13987TIP3    H163376   5.099   5.182  11.830 -0.1208 -1.4713 -2.2794
13987TIP3    H263377   4.974   5.162  11.912  1.4460 -0.7784  0.4092
13988TIP3   OH263378   1.304   0.740  13.373 -0.1431 -0.7022  0.5782
13988TIP3    H163379   1.301   0.791  13.293  1.4238 -0.6264  0.5249
13988TIP3    H263380   1.299   0.649  13.344  0.2713 -0.6701  0.4010
13989TIP3   OH263381   0.075   1.486   4.417 -0.4928  0.3116  0.5805
13989TIP3    H163382   0.131   1.456   4.488  1.5958  1.7205 -0.3926
13989TIP3    H263383   0.133   1.491   4.341 -1.9252  1.8299 -0.4884
13990TIP3   OH263384   1.637   3.396  14.152  0.3402  0.0941 -0.8122
13990TIP3    H163385   1.659   3.365  14.240  0.8911  0.3754 -0.8510
13990TIP3    H263386   1.721   3.406  14.108  0.1293  0.9210 -1.0463
13991TIP3   OH263387   5.227   1.171   3.550 -0.5628  0.0738  0.3838
13991TIP3    H163388   5.253   1.197   3.639  0.4349  1.9764 -0.4144
13991TIP3    H263389   5.286   1.220   3.493 -1.4217 -0.8462 -1.3569
13992TIP3   OH263390   1.637   3.207  16.797 -0.0467 -0.0621  0.1968
13992TIP3    H163391   1.596   3.281  16.752 -0.5083 -0.7620 -0.5441
13992TIP3    H263392   1.731   3.219  16.783 -0.2193 -0.7720 -1.7618
13993TIP3   OH263393   3.196   5.387  11.294  0.4634 -0.3140 -0.4534
13993TIP3    H163394   3.143   5.315  11.261  0.5187 -0.8626  0.6210
13993TIP3    H263395   3.145   5.466  11.274 -1.0212 -0.8613  0.9819
13994TIP3   OH263396   5.459   6.340  11.695  0.3936 -0.0057  0.1999
13994TIP3    H163397   5.427   6.296  11.616  1.9910 -0.2998 -0.3180
13994TIP3    H263398   5.441   6.433  11.680  0.5576 -0.0754 -0.4623
13995TIP3   OH263399   3.048   0.154  15.567 -0.7111 -0.1615 -0.4679
13995TIP3    H163400   3.079   0.089  15.629  0.7405 -0.8037 -1.8185
13995TIP3    H263401   3.090   0.236  15.596 -0.1652 -0.4219 -0.5098
13996TIP3   OH263402   4.396   4.755   3.950  0.1279 -0.5188 -0.7701
13996TIP3    H163403   4.346   4.675   3.962 -0.2703  0.0447  1.9250
13996TIP3    H263404   4.487   4.729   3.963 -0.0992 -0.3744  1.3431
13997TIP3   OH263405   4.089   5.674   5.078  0.0226 -0.2930  0.1873
13997TIP3    H163406   3.995   5.690   5.071  0.1971  0.5832 -0.2509
13997TIP3    H263407   4.096   5.583   5.109 -1.0220  0.5539  3.2220
13998TIP3   OH263408   1.165   4.431  12.270  0.3039  0.0499 -0.1437
13998TIP3    H163409   1.152   4.481  12.189  1.5289  0.2284 -0.2435
13998TIP3    H263410   1.180   4.498  12.337 -3.6950  0.1236  0.9341
13999TIP3   OH263411   3.143   5.679  12.398 -0.0482 -0.3869  0.3933
13999TIP3    H163412   3.189   5.668  12.315  1.3887  1.1058  0.9428
13999TIP3    H263413   3.131   5.773  12.406  0.2001 -0.4747  2.0661
14000TIP3   OH263414   2.830   1.700  12.832  0.2676 -0.2990  0.3425
14000TIP3    H163415   2.863   1.717  12.744 -0.5773 -1.9437 -0.3240
14000TIP3    H263416   2.735   1.691  12.822  0.3315 -2.3597  1.0626
14001TIP3   OH263417   3.712   2.126  12.859 -0.2605 -0.3914 -0.6331
14001TIP3    H163418   3.762   2.047  12.881  1.5697  0.3461 -1.9886
14001TIP3    H263419   3.671   2.106  12.775 -0.3041 -0.1075 -0.6810
14002TIP3   OH263420   2.705   5.861   1.070 -0.4896  0.1015 -0.2014
14002TIP3    H163421   2.665   5.898   0.991  0.6824 -0.6219 -1.1692
14002TIP3    H263422   2.631   5.830   1.123 -1.2497 -0.1982 -1.4145
14003TIP3   OH263423   1.796   0.133   1.322  0.3218  0.3530  0.0368
14003TIP3    H163424   1.804   0.048   1.365  0.6866  0.7361  0.7348
14003TIP3    H263425   1.719   0.173   1.363 -0.5974 -0.1301 -1.1594
14004TIP3   OH263426   0.822   5.752   2.181 -0.0000  0.7090 -0.0212
14004TIP3    H163427   0.860   5.803   2.253  0.3812  0.5306 -0.0928
14004TIP3    H263428   0.897   5.729   2.127 -0.3485  1.3874 -0.8244
14005TIP3   OH263429   4.985   0.640   2.649 -0.0726 -0.5670 -0.1305
14005TIP3    H163430   4.932   0.625   2.728 -0.9638  1.0135 -0.3899
14005TIP3    H263431   5.058   0.578   2.657 -0.3733 -0.7332  1.7169
14006TIP3   OH263432   5.960   6.575  12.167  0.2045 -0.5775 -0.2807
14006TIP3    H163433   5.955   6.671  12.166 -0.7184 -0.6167  0.0133
14006TIP3    H263434   5.928   6.548  12.081  1.3469 -0.5969 -0.7150
14007TIP3   OH263435   0.593   1.532   5.672 -0.0295  0.0707 -0.3820
14007TIP3    H163436   0.522   1.483   5.631 -1.0667  0.7856  0.5022
14007TIP3    H263437   0.554   1.616   5.696  1.6254  1.2877 -1.6391
14008TIP3   OH263438   2.453   3.043   3.994  0.4498  0.4593  0.3668
14008TIP3    H163439   2.520   3.098   3.953  0.3087  0.0275 -0.4778
14008TIP3    H263440   2.383   3.041   3.929 -0.5314  1.1690  1.3723
14009TIP3   OH263441   5.609   0.555   3.026  0.5629 -0.1029 -0.4898
14009TIP3    H163442   5.636   0.636   2.983  3.0662  0.1867  1.3926
14009TIP3    H263443   5.565   0.583   3.106  2.2338 -0.5019  0.6280
14010TIP3   OH263444   5.856   0.772   5.682 -0.3763  0.0710  0.2684
14010TIP3    H163445   5.911   0.803   5.610  0.2751  0.7140  1.0220
14010TIP3    H263446   5.916   0.765   5.756 -0.8640 -1.3676  0.5685
14011TIP3   OH263447   4.883   0.970  13.374  0.8076  0.6119  0.1223
14011TIP3    H163448   4.963   0.953  13.423  1.5170  1.2272 -0.8001
14011TIP3    H263449   4.908   1.033  13.307  0.0193 -0.6831 -1.4598
14012TIP3   OH263450   2.389   6.423   4.408 -0.1395 -0.1079  0.3292
14012TIP3    H163451   2.307   6.372   4.409  0.8864 -2.0897 -2.5518
14012TIP3    H263452   2.456   6.360   4.433  0.8970  0.4972 -0.8394
14013TIP3   OH263453   1.512   5.167  12.585  0.2698  0.0599 -0.3355
14013TIP3    H163454   1.501   5.164  12.680 -0.7513  0.9591 -0.4057
14013TIP3    H263455   1.564   5.245  12.570 -0.1515  0.2991 -0.5583
14014TIP3   OH263456   0.913   6.492  16.851 -0.1591 -0.4020 -0.6243
14014TIP3    H163457   0.913   6.411  16.800 -2.4635  0.2002 -1.7002
14014TIP3    H263458   0.849   6.477  16.920  2.7293 -1.1033  2.1491
14015TIP3   OH263459   0.199   2.001  16.610  0.6551 -0.0410 -0.0955
14015TIP3    H163460   0.214   2.050  16.529  1.2829 -1.2222 -0.7280
14015TIP3    H263461   0.108   2.017  16.632  1.2947  2.9423  0.7975
14016TIP3   OH263462   2.766   1.033   2.003  0.4158 -0.0225  0.2587
14016TIP3    H163463   2.692   0.973   2.014 -0.3973  0.9331  0.0949
14016TIP3    H263464   2.776   1.041   1.908  1.0744 -0.5501  0.2768
14017TIP3   OH263465   1.631   6.281   2.803 -0.0615 -0.3058 -0.6191
14017TIP3    H163466   1.651   6.214   2.869 -1.6188  1.0807  1.3724
14017TIP3    H263467   1.555   6.246   2.756 -0.5255 -0.2228  0.0489
14018TIP3   OH263468   5.486   2.201   2.428  0.0926 -0.3116 -0.3814
14018TIP3    H163469   5.417   2.219   2.364  0.4246 -1.7636 -1.2180
14018TIP3    H263470   5.523   2.287   2.450 -0.8448  0.3216 -1.2235
14019TIP3   OH263471   2.323   0.706  12.335  0.0877  0.4178  0.1271
14019TIP3    H163472   2.265   0.757  12.391  1.3356  3.1655 -0.9068
14019TIP3    H263473   2.302   0.736  12.246  2.4232  0.8191 -0.3363
14020TIP3   OH263474   3.886   2.075  17.269 -0.2937  0.1549  0.1731
14020TIP3    H163475   3.965   2.095  17.319 -0.2483 -1.1557  0.6886
14020TIP3    H263476   3.897   2.120  17.186  0.7412  0.4405  0.4540
14021TIP3   OH263477   5.623   1.834   4.526  0.1764 -0.2391 -0.0722
14021TIP3    H163478   5.656   1.813   4.439 -0.4423  1.6291 -0.8241
14021TIP3    H263479   5.674   1.911   4.553 -0.2855 -0.2238  0.8061
14022TIP3   OH263480   3.665   4.193   3.722 -0.0642 -0.0001 -0.1182
14022TIP3    H163481   3.740   4.236   3.763 -0.0833 -0.6890  0.6790
14022TIP3    H263482   3.625   4.261   3.666  0.5098  0.6875  0.2913
14023TIP3   OH263483   1.464   1.286  12.487  0.1823 -0.5007  0.0138
14023TIP3    H163484   1.494   1.206  12.529 -1.2148 -2.0532 -1.7789
14023TIP3    H263485   1.373   1.294  12.513  0.2686  0.4637  0.0625
14024TIP3   OH263486   1.227   2.788  14.540 -0.4304 -0.0745  0.3459
14024TIP3    H163487   1.288   2.789  14.466  0.5580 -2.6115  1.0013
14024TIP3    H263488   1.145   2.754  14.504  0.3254 -2.2344  0.4910
14025TIP3   OH263489   2.106   2.387   6.326 -0.3694 -0.2434  0.0060
14025TIP3    H163490   2.090   2.318   6.391 -0.4207 -1.3491 -1.1354
14025TIP3    H263491   2.045   2.457   6.350  0.8082  0.1267  2.1678
14026TIP3   OH263492   5.176   1.653  15.758  0.0236  0.3343  0.9129
14026TIP3    H163493   5.161   1.692  15.844 -1.6750 -2.1029  1.8272
14026TIP3    H263494   5.090   1.625  15.728  1.0506 -2.8576  0.5146
14027TIP3   OH263495   4.035   1.885   2.899  0.0960  0.1143  0.2150
14027TIP3    H163496   4.075   1.819   2.955  0.9418  0.0834 -0.4188
14027TIP3    H263497   3.941   1.871   2.910  0.2286  0.2430  1.7734
14028TIP3   OH263498   6.355   3.610   3.719  0.5292  0.3353  0.1671
14028TIP3    H163499   6.435   3.606   3.771 -0.2088 -3.4939  1.3339
14028TIP3    H263500   6.371   3.552   3.645 -1.1287 -0.5117  0.4264
14029TIP3   OH263501   6.443   5.919   4.629 -0.1124 -0.2136  0.2422
14029TIP3    H163502   6.458   6.012   4.647 -1.3706  0.4856 -1.9610
14029TIP3    H263503   6.424   5.881   4.715  1.1862  1.3725  1.2953
14030TIP3   OH263504   1.068   2.905  11.561  0.3805  0.0643  0.6093
14030TIP3    H163505   1.050   2.832  11.620  2.0507  0.4188  1.6338
14030TIP3    H263506   1.163   2.904  11.550  0.4736  2.1777  0.8040
14031TIP3   OH263507   6.078   0.478  16.454 -0.2291  0.3261  0.4321
14031TIP3    H163508   6.170   0.488  16.476  0.0315  0.8899 -0.8340
14031TIP3    H263509   6.032   0.490  16.537  0.7543  1.4106  0.8438
14032TIP3   OH263510   5.966   0.416  16.207 -0.8578 -0.2269  0.4640
14032TIP3    H163511   5.989   0.435  16.297 -0.7448 -0.1257  0.4145
14032TIP3    H263512   6.014   0.480  16.155  1.3637 -2.0159  0.1316
14033TIP3   OH263513   0.152   6.185   3.231 -0.1746 -0.0364  0.0121
14033TIP3    H163514   0.220   6.198   3.297 -1.0004 -0.9101  1.0795
14033TIP3    H263515   0.080   6.240   3.259  0.6259  2.2278 -2.0509
14034TIP3   OH263516   5.798   1.999   0.417  0.0784 -0.5051  0.5254
14034TIP3    H163517   5.802   2.031   0.327  2.0437 -0.5784  0.5492
14034TIP3    H263518   5.802   2.079   0.470  1.7778 -0.5690  0.5461
14035TIP3   OH263519   3.018   0.520  13.466  0.4091 -0.1568 -0.4711
14035TIP3    H163520   3.113   0.521  13.469  0.4056 -1.0077  0.3908
14035TIP3    H263521   2.991   0.608  13.492  0.9343 -0.3964  0.9182
14036TIP3   OH263522   4.390   5.290   5.391 -0.3622 -0.4049  0.3733
14036TIP3    H163523   4.457   5.346   5.351 -0.1600 -1.2236 -0.4734
14036TIP3    H263524   4.339   5.350   5.446 -0.7531  0.8247 -1.2246
14037TIP3   OH263525   2.987   3.019  16.476 -0.0971  0.1492  0.3880
14037TIP3    H163526   3.010   2.937  16.433  1.0738  0.5608  0.1809
14037TIP3    H263527   2.907   3.048  16.432  0.8500  0.3537 -1.2851
14038TIP3   OH263528   5.298   0.901  13.744  0.3532  0.2776  0.1548
14038TIP3    H163529   5.324   0.946  13.824 -2.2361  1.6832  0.3072
14038TIP3    H263530   5.316   0.809  13.761 -1.4233  0.3492  2.9545
14039TIP3   OH263531   6.710   3.680  11.974 -0.1989 -0.6034  0.2863
14039TIP3    H163532   6.743   3.591  11.968 -2.4510 -1.3959 -2.3943
14039TIP3    H263533   6.738   3.722  11.893 -1.1288  0.3948  0.4521
14040TIP3   OH263534   3.501   5.869  14.167 -0.1486 -0.5260  0.4085
14040TIP3    H163535   3.473   5.778  14.158  0.9844 -0.7542 -1.3038
14040TIP3    H263536   3.436   5.919  14.116  0.8015 -0.7298 -1.0644
14041TIP3   OH263537   1.742   2.615   3.334  0.6816 -0.4079  0.1995
14041TIP3    H163538   1.832   2.585   3.326  0.2718 -2.7896  2.6870
14041TIP3    H263539   1.744   2.680   3.405  0.6758  1.0718 -1.1069
14042TIP3   OH263540   3.023   0.635  13.934  0.2252  0.1843 -0.4807
14042TIP3    H163541   3.007   0.597  13.847 -0.1404  0.7448 -0.6613
14042TIP3    H263542   2.943   0.683  13.954 -0.1844 -0.9328  0.7019
14043TIP3   OH263543   5.575   3.094  15.539  0.0186  0.0831  0.0090
14043TIP3    H163544   5.499   3.152  15.547 -0.3423 -0.3899  0.0755
14043TIP3    H263545   5.539   3.012  15.508  0.7798  0.4542 -1.9630
14044TIP3   OH263546   5.479   3.037   5.271 -0.1713 -0.2953  0.4545
14044TIP3    H163547   5.449   3.120   5.309 -0.2916 -0.0167 -0.2180
14044TIP3    H263548   5.563   3.059   5.230  0.7724 -0.9646  1.9331
14045TIP3   OH263549   5.685   1.592  14.298 -0.2892  0.3433 -0.1141
14045TIP3    H163550   5.628   1.560  14.368  0.2654 -0.2180  0.0918
14045TIP3    H263551   5.671   1.530  14.226 -0.5508  0.6821 -0.3576
14046TIP3   OH263552   3.224   0.968   2.854  0.0259  0.0424 -0.2280
14046TIP3    H163553   3.180   0.996   2.774  1.3649  0.7976 -0.7275
14046TIP3    H263554   3.313   1.001   2.845 -0.0740  1.0984  2.0744
14047TIP3   OH263555   1.911   3.224   4.674 -0.1288  0.3472  0.1749
14047TIP3    H163556   1.963   3.207   4.752  1.0362 -2.0165 -0.9886
14047TIP3    H263557   1.943   3.160   4.610 -3.9962 -0.8863 -0.8332
14048TIP3   OH263558   2.603   2.074  13.711 -0.4291 -0.4625  0.0960
14048TIP3    H163559   2.679   2.025  13.679 -1.8602 -0.7221 -3.2189
14048TIP3    H263560   2.626   2.166  13.698 -0.7202 -0.5471 -1.0654
14049TIP3   OH263561   2.985   1.921   4.032 -0.1434 -0.3569  0.2027
14049TIP3    H163562   2.937   1.860   4.088  1.9570 -0.4403  2.0507
14049TIP3    H263563   2.981   1.882   3.945 -2.8300 -0.6533  0.3909
14050TIP3   OH263564   6.679   3.439   3.266  0.1115  0.2408 -0.4092
14050TIP3    H163565   6.752   3.494   3.237 -0.2240 -0.9117 -3.9028
14050TIP3    H263566   6.610   3.502   3.290  1.3761  1.3145  0.5334
14051TIP3   OH263567   6.699   6.349  12.572  0.3281  0.4706 -0.5485
14051TIP3    H163568   6.699   6.374  12.664  0.2112 -1.3002 -0.0214
14051TIP3    H263569   6.762   6.277  12.566 -0.7204 -0.4318 -1.5169
14052TIP3   OH263570   1.484   4.438  16.946 -0.7663 -0.5624 -0.2437
14052TIP3    H163571   1.460   4.352  16.981 -0.0961 -0.1167  1.4499
14052TIP3    H263572   1.431   4.500  16.996 -2.9891 -0.0112 -3.0314
14053TIP3   OH263573   2.400   0.780   0.537  0.5199  0.2215  0.1734
14053TIP3    H163574   2.314   0.809   0.568 -0.1995  0.8353 -2.2394
14053TIP3    H263575   2.456   0.858   0.545  0.0308  0.7264 -1.0887
14054TIP3   OH263576   5.829   2.057   0.167  0.8543 -0.5646  0.2975
14054TIP3    H163577   5.756   2.114   0.143  2.0373  1.3208  0.8640
14054TIP3    H263578   5.810   1.973   0.126 -2.0317 -0.4286  1.1483
14055TIP3   OH263579   1.116   6.393  12.674  0.7849 -0.6761  0.0157
14055TIP3    H163580   1.091   6.326  12.610  0.6523 -0.4967 -0.1223
14055TIP3    H263581   1.127   6.473  12.622 -0.8341 -0.1537  0.4102
14056TIP3   OH263582   1.867   3.757   0.491  0.3661  0.6726 -0.2566
14056TIP3    H163583   1.880   3.850   0.512 -0.6065  0.5434  1.0826
14056TIP3    H263584   1.782   3.754   0.447  0.5870  0.4700 -0.6686
14057TIP3   OH263585   4.325   6.261   4.899  0.1992  0.2814 -0.6363
14057TIP3    H163586   4.297   6.261   4.991  0.1141 -1.3938 -0.6356
14057TIP3    H263587   4.301   6.348   4.867 -0.3705  0.6613  0.7484
14058TIP3   OH263588   5.419   0.424  12.792  0.0330 -0.3204 -0.2119
14058TIP3    H163589   5.404   0.369  12.716 -1.0810 -0.2227 -0.0869
14058TIP3    H263590   5.444   0.509  12.756 -1.1951 -0.0662 -0.5147
14059TIP3   OH263591   5.663   2.898   4.494  0.2925  0.3909 -0.1296
14059TIP3    H163592   5.629   2.812   4.469 -0.1274  0.5624 -0.1607
14059TIP3    H263593   5.697   2.935   4.413 -1.6343  1.2061 -0.6172
14060TIP3   OH263594   4.466   1.775  17.281 -0.0213  0.5654  0.4094
14060TIP3    H163595   4.390   1.718  17.289 -0.2938  0.5689 -1.5106
14060TIP3    H263596   4.519   1.756  17.358 -0.5896 -1.5482  0.3404
14061TIP3   OH263597   2.578   5.672  16.171 -0.1274 -0.0528  0.2274
14061TIP3    H163598   2.641   5.601  16.155 -0.4021  0.0900 -1.6171
14061TIP3    H263599   2.492   5.633  16.153 -0.4029  0.3794  0.5692
14062TIP3   OH263600   5.357   3.928   2.284 -0.6813  0.0234  0.3477
14062TIP3    H163601   5.444   3.894   2.266  0.4522  0.1598  4.5763
14062TIP3    H263602   5.361   4.020   2.257 -0.7055 -0.6950 -2.4377
14063TIP3   OH263603   4.742   1.043   1.122 -0.4968  0.9997  0.0773
14063TIP3    H163604   4.749   1.064   1.029 -0.7499  1.7807  0.2258
14063TIP3    H263605   4.771   0.952   1.129  2.2817  1.7605 -0.3642
14064TIP3   OH263606   0.860   2.634  12.759 -0.0048  0.2089  0.1964
14064TIP3    H163607   0.845   2.694  12.832 -0.7294 -0.3426  0.5210
14064TIP3    H263608   0.773   2.621  12.721  0.2784  0.0411 -0.4087
14065TIP3   OH263609   4.742   1.124  13.533  0.4749 -0.1280 -0.0919
14065TIP3    H163610   4.809   1.133  13.601 -0.2238  0.1263  0.5816
14065TIP3    H263611   4.785   1.077  13.463  1.0607 -0.8993  0.7641
14066TIP3   OH263612   3.116   4.488   3.345  0.0837 -0.6114  0.4472
14066TIP3    H163613   3.195   4.541   3.359 -0.2800  1.1372 -3.1232
14066TIP3    H263614   3.046   4.540   3.384  0.0319  0.6007 -1.1491
14067TIP3   OH263615   0.253   4.436   1.777 -0.0148 -0.1950 -0.0099
14067TIP3    H163616   0.331   4.484   1.749 -0.1304 -0.3118 -0.5479
14067TIP3    H263617   0.180   4.491   1.749 -0.1489 -0.7042 -0.6873
14068TIP3   OH263618   1.435   3.516   2.779 -0.6035 -0.1996 -0.3008
14068TIP3    H163619   1.357   3.544   2.827  0.5714  2.8781  0.0502
14068TIP3    H263620   1.402   3.459   2.710 -2.8515 -0.9197  1.2323
14069TIP3   OH263621   2.238   1.508  12.643  0.9490 -0.2039  0.0316
14069TIP3    H163622   2.296   1.432  12.635  0.4279 -0.5228 -0.8787
14069TIP3    H263623   2.201   1.519  12.555  0.7712  0.9093  0.2313
14070TIP3   OH263624   4.037   5.536   3.018  0.2085  0.1471  0.0447
14070TIP3    H163625   4.071   5.581   3.096 -0.3544 -1.2492  1.1591
14070TIP3    H263626   3.954   5.579   3.000  0.9784  1.3774 -0.6363
14071TIP3   OH263627   3.221   0.228  12.103 -0.5183  0.5496  0.1715
14071TIP3    H163628   3.148   0.176  12.137 -0.4097 -0.0234 -0.4388
14071TIP3    H263629   3.282   0.235  12.177  0.4695 -2.0614 -0.3026
14072TIP3   OH263630   4.150   5.167  15.571  0.8816 -0.3469 -0.1480
14072TIP3    H163631   4.136   5.152  15.664  1.6967 -1.1570 -0.1503
14072TIP3    H263632   4.077   5.223  15.545  0.3288 -0.5840  0.8481
14073TIP3   OH263633   6.251   6.654   3.722 -0.2084  0.8384  0.2849
14073TIP3    H163634   6.294   6.602   3.655  2.1122  0.9949  1.5501
14073TIP3    H263635   6.158   6.637   3.709  0.2757 -0.7528 -1.6192
14074TIP3   OH263636   3.209   5.884   2.404 -0.9735 -0.1590 -0.2271
14074TIP3    H163637   3.208   5.814   2.339 -0.4432  0.8257 -1.3288
14074TIP3    H263638   3.301   5.894   2.428 -1.2131 -0.8501  1.0857
14075TIP3   OH263639   0.684   3.689   0.112  0.4770  0.2599  0.1783
14075TIP3    H163640   0.755   3.744   0.145  0.4346  0.3088  0.1874
14075TIP3    H263641   0.653   3.733   0.033 -0.5556  1.0518  0.9965
14076TIP3   OH263642   6.248   5.936  17.218  0.3205  0.1064  0.0836
14076TIP3    H163643   6.214   5.851  17.244 -0.4045  0.0637 -0.9362
14076TIP3    H263644   6.241   5.937  17.123  0.3733  1.2763  0.0692
14077TIP3   OH263645   4.776   2.319   2.834 -0.5278  0.0385 -0.3189
14077TIP3    H163646   4.850   2.260   2.823 -1.3660 -1.1754  0.3180
14077TIP3    H263647   4.706   2.280   2.781 -0.1702  2.3260 -2.7492
14078TIP3   OH263648   0.659   3.604   0.527  0.0744  0.0275 -0.0475
14078TIP3    H163649   0.619   3.593   0.613 -2.2064  2.8001 -0.5770
14078TIP3    H263650   0.751   3.619   0.545 -0.7574  3.5835  2.3869
14079TIP3   OH263651   5.452   4.669   1.253 -0.1949  0.2203 -0.1159
14079TIP3    H163652   5.465   4.702   1.165 -0.3507 -0.0743 -0.2508
14079TIP3    H263653   5.361   4.691   1.274  0.2345  1.4798  0.4836
14080TIP3   OH263654   5.559   2.733   3.293  0.1198 -0.0736 -0.5284
14080TIP3    H163655   5.480   2.713   3.345  0.5590  0.5805  0.4134
14080TIP3    H263656   5.533   2.807   3.238  0.1051  0.1988 -0.1550
14081TIP3   OH263657   4.989   2.447  15.045 -0.0994 -0.0514  0.0287
14081TIP3    H163658   5.048   2.520  15.026  1.7612 -1.1266  1.3526
14081TIP3    H263659   4.902   2.479  15.021  0.7545  2.3202 -0.1292
14082TIP3   OH263660   2.218   5.196   0.151  0.1049 -0.5656  0.1469
14082TIP3    H163661   2.163   5.272   0.131  1.2461  0.5195  1.0357
14082TIP3    H263662   2.172   5.122   0.109 -2.1289  0.2471  0.9973
14083TIP3   OH263663   1.135   2.260  11.271 -0.4508  0.4303  0.1267
14083TIP3    H163664   1.190   2.196  11.316  1.0298  2.8332  1.9634
14083TIP3    H263665   1.153   2.245  11.178  1.3337 -0.5554  0.5794
14084TIP3   OH263666   1.536   1.159  15.691 -0.1971 -0.3312 -0.1270
14084TIP3    H163667   1.498   1.144  15.778  1.9649 -2.2575  0.5901
14084TIP3    H263668   1.621   1.200  15.708  0.4737 -1.1810 -1.2509
14085TIP3   OH263669   3.936   3.045  15.260  0.2479 -0.0009 -0.4741
14085TIP3    H163670   3.928   2.992  15.340 -0.0370  1.6063  0.6048
14085TIP3    H263671   3.972   2.985  15.195  0.8277 -1.2664  0.9587
14086TIP3   OH263672   3.540   2.212   4.299  0.3927 -0.0113 -0.0835
14086TIP3    H163673   3.449   2.237   4.289  0.3788  0.8439  1.7447
14086TIP3    H263674   3.590   2.285   4.263  0.3846 -0.5833 -1.3014
14087TIP3   OH263675   4.551   1.767  16.779 -0.1640 -0.1737  0.1458
14087TIP3    H163676   4.463   1.729  16.781 -0.2164 -0.0708 -0.1473
14087TIP3    H263677   4.540   1.856  16.813 -0.3487  0.1812 -0.8227
14088TIP3   OH263678   4.206   4.499  13.551  1.0635 -0.4004 -0.2238
14088TIP3    H163679   4.194   4.573  13.610  0.1748 -1.0548  0.4541
14088TIP3    H263680   4.249   4.432  13.605  1.7293 -0.4368 -0.7871
14089TIP3   OH263681   0.641   4.253  14.317 -0.0009 -0.7159  0.7815
14089TIP3    H163682   0.721   4.296  14.289  0.3635 -1.7932  0.1301
14089TIP3    H263683   0.659   4.225  14.407 -1.2627  2.9697  2.3893
14090TIP3   OH263684   5.827   4.660   1.965  0.3486 -0.1226 -0.3330
14090TIP3    H163685   5.765   4.657   1.892 -0.1229  1.2532 -0.0313
14090TIP3    H263686   5.913   4.658   1.924  0.1198 -1.6578 -0.7825
14091TIP3   OH263687   5.954   2.519   3.395 -0.3530 -0.4661  0.5427
14091TIP3    H163688   5.934   2.559   3.311 -0.1999 -0.3361  0.5651
14091TIP3    H263689   5.970   2.594   3.453 -0.1305 -0.5593  0.6023
14092TIP3   OH263690   4.247   1.782   4.044  0.1441 -0.2109  0.1942
14092TIP3    H163691   4.200   1.718   3.990 -0.7208 -0.9571  1.7525
14092TIP3    H263692   4.180   1.843   4.072  0.6297  0.3137  0.2270
14093TIP3   OH263693   6.560   0.447   2.694  0.2014  0.4708  0.6593
14093TIP3    H163694   6.606   0.488   2.767 -0.2795  1.2760  0.5249
14093TIP3    H263695   6.473   0.488   2.695 -0.2791 -0.5248  0.4943
14094TIP3   OH263696   4.387   2.489   0.215  0.0660 -0.1528 -0.3063
14094TIP3    H163697   4.422   2.577   0.202  0.3363 -0.2986 -0.5819
14094TIP3    H263698   4.430   2.436   0.148  0.1908 -0.5730  0.0966
14095TIP3   OH263699   5.116   3.652  12.454 -0.8186  0.0964  0.2221
14095TIP3    H163700   5.211   3.664  12.459 -0.6610  0.6737 -2.6565
14095TIP3    H263701   5.089   3.645  12.545  1.9503  0.0912  1.1582
14096TIP3   OH263702   6.697   0.514   0.623  0.2231  0.4268 -0.1305
14096TIP3    H163703   6.698   0.449   0.693 -0.3762 -1.2823 -1.6545
14096TIP3    H263704   6.774   0.568   0.640  2.1501 -2.1409 -0.1396
14097TIP3   OH263705   3.439   5.058  11.102  0.2676 -0.8686  0.0984
14097TIP3    H163706   3.473   5.027  11.018  0.2849 -0.0616 -0.2063
14097TIP3    H263707   3.441   5.153  11.094 -2.6153 -0.7372 -0.1926
14098TIP3   OH263708   4.872   4.038   5.561  0.3481  0.5051  0.1046
14098TIP3    H163709   4.780   4.016   5.570  0.7239 -1.5872 -0.6017
14098TIP3    H263710   4.912   4.008   5.643  0.4939  0.8587  0.1658
14099TIP3   OH263711   2.048   3.151  13.336  0.1856 -0.4731 -0.2521
14099TIP3    H163712   2.074   3.219  13.273  0.9228 -0.6084 -0.1057
14099TIP3    H263713   1.954   3.139  13.321  0.0078  0.7239 -0.1296
14100TIP3   OH263714   6.277   3.965  13.327  0.0893 -0.2579  0.2079
14100TIP3    H163715   6.335   4.004  13.262 -0.8904  1.7519  0.4238
14100TIP3    H263716   6.277   3.872  13.308  0.9597  0.0949 -1.7520
14101TIP3   OH263717   4.584   3.196   4.033  0.1807  0.0323  0.1421
14101TIP3    H163718   4.581   3.101   4.024 -3.5432  0.1327 -1.6404
14101TIP3    H263719   4.599   3.211   4.126  1.0697 -2.2830  0.4325
14102TIP3   OH263720   3.903   3.024  14.345 -0.0175 -0.0867 -0.2248
14102TIP3    H163721   3.962   2.948  14.346  1.3259  0.9389  0.2008
14102TIP3    H263722   3.816   2.985  14.345  0.6245 -1.6415  0.8393
14103TIP3   OH263723   3.329   1.426   1.676  0.2701 -0.2975  0.0111
14103TIP3    H163724   3.363   1.351   1.627  0.5469  0.2566 -0.6580
14103TIP3    H263725   3.305   1.490   1.610 -1.0931 -0.2486  0.5308
14104TIP3   OH263726   0.100   3.952  14.346  0.4991  0.3676  0.5964
14104TIP3    H163727   0.080   3.860  14.364 -0.1695  0.4882  0.4914
14104TIP3    H263728   0.177   3.970  14.399  0.2027 -0.0554  1.1833
14105TIP3   OH263729   3.436   6.556  13.074  0.2919 -0.0395 -0.1811
14105TIP3    H163730   3.458   6.534  13.165 -0.3463  0.9859  0.2345
14105TIP3    H263731   3.363   6.498  13.053 -0.0438  0.2343  0.2156
14106TIP3   OH263732   2.444   0.162  16.516 -0.2616  0.4431  0.5740
14106TIP3    H163733   2.537   0.164  16.540  0.0586 -0.0528 -0.5865
14106TIP3    H263734   2.416   0.253  16.519  0.6772  0.7836 -0.6530
14107TIP3   OH263735   2.792   6.142   4.335  0.1248  0.3309  0.5711
14107TIP3    H163736   2.868   6.084   4.335  1.8630  2.3287  3.3237
14107TIP3    H263737   2.808   6.204   4.264 -0.8580 -1.3550 -1.2133
14108TIP3   OH263738   2.373   6.088   5.785  0.5248  0.4070  0.4836
14108TIP3    H163739   2.317   6.163   5.767  2.2074  1.2473 -1.7503
14108TIP3    H263740   2.351   6.062   5.874 -1.8472  1.9903  0.4424
14109TIP3   OH263741   0.399   3.069   2.797  0.0892  0.1245  0.0663
14109TIP3    H163742   0.307   3.073   2.822 -0.3154  0.2965 -1.3533
14109TIP3    H263743   0.443   3.134   2.852 -0.2110 -1.5276  2.3713
14110TIP3   OH263744   5.416   3.340  12.071  0.1360 -0.6468 -0.0529
14110TIP3    H163745   5.435   3.266  12.014  0.2557 -0.4137 -0.3234
14110TIP3    H263746   5.325   3.364  12.049  0.1307 -0.6524 -0.0372
14111TIP3   OH263747   1.361   4.592   6.432  0.4749 -0.3668  0.0978
14111TIP3    H163748   1.401   4.588   6.518  0.2298  0.2118  0.2418
14111TIP3    H263749   1.434   4.613   6.373  0.5907 -0.4672  0.2053
14112TIP3   OH263750   2.465   5.925   2.864  0.3014  0.2495 -0.4591
14112TIP3    H163751   2.544   5.888   2.824  0.3630  0.6672 -0.7215
14112TIP3    H263752   2.416   5.963   2.791 -1.3091 -2.0375 -0.7003
14113TIP3   OH263753   2.129   1.787   5.704 -0.6612 -0.2309 -0.4932
14113TIP3    H163754   2.054   1.821   5.753 -2.2135 -2.7437 -0.9249
14113TIP3    H263755   2.204   1.803   5.761 -1.8277  0.5388  0.8820
14114TIP3   OH263756   4.054   3.624   5.258 -0.2723  0.4055 -0.2944
14114TIP3    H163757   4.019   3.557   5.199 -0.3654  2.2978 -2.5720
14114TIP3    H263758   4.053   3.584   5.344 -0.0061 -2.6042 -1.5750
14115TIP3   OH263759   4.792   4.885   0.347 -0.0695  0.2492  0.1407
14115TIP3    H163760   4.767   4.912   0.259  0.8636 -1.5550 -0.7417
14115TIP3    H263761   4.861   4.945   0.373 -0.3563  0.7943 -0.3561
14116TIP3   OH263762   3.491   5.759  15.513 -0.4163  0.0867 -0.1621
14116TIP3    H163763   3.487   5.854  15.517 -0.1608  0.0771  3.0930
14116TIP3    H263764   3.401   5.730  15.529 -0.7298 -0.2824 -2.3244
14117TIP3   OH263765   5.374   1.087   5.324 -0.6231 -0.3224 -0.0256
14117TIP3    H163766   5.460   1.128   5.333 -0.6322 -0.4579  0.7298
14117TIP3    H263767   5.332   1.133   5.251  0.2286 -0.5027 -0.6421
14118TIP3   OH263768   5.559   2.369  13.595 -0.3674  0.1498 -0.1518
14118TIP3    H163769   5.612   2.416  13.659  0.2414 -1.9863  1.0284
14118TIP3    H263770   5.512   2.303  13.647 -0.7388 -0.9096 -1.7500
14119TIP3   OH263771   4.333   1.570   1.972  0.5860  0.0837  0.0658
14119TIP3    H163772   4.325   1.665   1.972 -0.5752  0.0009 -0.0173
14119TIP3    H263773   4.284   1.542   1.895  0.1196 -0.6372  0.6145
14120TIP3   OH263774   3.756   6.689  13.014  0.8238  0.9476  1.0087
14120TIP3    H163775   3.695   6.680  12.942  1.6351  1.9176  0.1795
14120TIP3    H263776   3.702   6.712  13.089 -0.3223 -2.1769  1.3166
14121TIP3   OH263777   1.862   3.909   2.854 -0.2477  0.3466  0.2536
14121TIP3    H163778   1.818   3.834   2.812 -0.9019  1.3331 -0.8863
14121TIP3    H263779   1.794   3.976   2.858  0.9546  1.6948 -0.9692
14122TIP3   OH263780   3.088   2.203  14.578 -0.4586 -0.0388 -0.2725
14122TIP3    H163781   3.047   2.251  14.650 -0.2510 -1.8089  1.1045
14122TIP3    H263782   3.014   2.171  14.526 -0.8182 -1.6451  1.1493
14123TIP3   OH263783   6.662   1.448  11.993  0.4752  0.5529  0.1388
14123TIP3    H163784   6.584   1.396  11.975  0.6155  0.1812  0.5997
14123TIP3    H263785   6.675   1.500  11.913  0.2166  0.0370 -0.2405
14124TIP3   OH263786   4.549   6.663   5.951  0.0436  0.0083 -0.0086
14124TIP3    H163787   4.477   6.613   5.912  0.2342  0.1962 -0.6123
14124TIP3    H263788   4.511   6.703   6.029 -0.8207  0.9934 -0.8959
14125TIP3   OH263789   4.341   1.514  13.746  0.1543 -0.2177  0.1371
14125TIP3    H163790   4.260   1.529  13.794  0.1815 -0.6208  0.3193
14125TIP3    H263791   4.313   1.479  13.662  0.1166  0.2311 -0.0378
14126TIP3   OH263792   3.536   3.720  10.432 -0.1130  0.4149  0.0658
14126TIP3    H163793   3.518   3.626  10.443 -0.1266  0.6227  2.1206
14126TIP3    H263794   3.470   3.763  10.486  0.5348  1.5752 -0.0564
14127TIP3   OH263795   5.524   4.196   1.690 -0.3440  0.0612  0.0925
14127TIP3    H163796   5.486   4.219   1.605  0.6931 -0.8602 -0.6448
14127TIP3    H263797   5.609   4.158   1.669  0.6945  1.4166  1.6596
14128TIP3   OH263798   0.734   5.164   4.313 -0.2960  0.3206  1.0095
14128TIP3    H163799   0.649   5.171   4.269 -0.4251  3.4552  1.5327
14128TIP3    H263800   0.758   5.255   4.333  3.7996 -0.2773 -0.2667
14129TIP3   OH263801   3.507   0.600   4.486 -0.6480 -0.4052 -0.0904
14129TIP3    H163802   3.536   0.599   4.577  0.5571  0.3119 -0.4501
14129TIP3    H263803   3.586   0.619   4.435 -1.0884 -1.7505 -1.3738
14130TIP3   OH263804   5.788   4.160   6.149 -0.4436  0.0300  0.5880
14130TIP3    H163805   5.835   4.243   6.149 -0.8834  0.3527 -1.8655
14130TIP3    H263806   5.701   4.181   6.185 -0.5256  0.6185  0.0569
14131TIP3   OH263807   0.605   3.253  11.975  0.3261 -0.5007  0.0488
14131TIP3    H163808   0.683   3.212  12.013  0.2180 -1.5465 -0.7924
14131TIP3    H263809   0.539   3.184  11.977 -0.5898  0.3811  0.7668
14132TIP3   OH263810   0.114   5.105   3.589  0.7209  0.1772  0.1292
14132TIP3    H163811   0.185   5.120   3.652  3.4731 -2.8576 -1.9421
14132TIP3    H263812   0.141   5.155   3.512  1.0222 -1.4700 -0.8818
14133TIP3   OH263813   1.793   1.586   3.549  0.1704  0.3861 -0.0147
14133TIP3    H163814   1.880   1.546   3.545 -0.4238 -0.8860 -1.7532
14133TIP3    H263815   1.756   1.570   3.462 -2.5246 -0.8387  1.2506
14134TIP3   OH263816   5.180   4.829   5.187  0.1788  0.1067  0.2785
14134TIP3    H163817   5.138   4.789   5.263 -1.7515 -1.0083 -1.2766
14134TIP3    H263818   5.172   4.923   5.201 -1.2289 -0.0830  0.9187
14135TIP3   OH263819   0.711   5.006   0.462  0.0917 -0.1137  0.2908
14135TIP3    H163820   0.624   5.027   0.496 -0.1226  0.8938 -0.8102
14135TIP3    H263821   0.700   4.920   0.421 -0.9222  0.7989 -1.4997
14136TIP3   OH263822   4.969   6.033  16.789  0.3950 -0.2719  0.4406
14136TIP3    H163823   4.915   6.102  16.827 -0.7285 -1.4523  1.0798
14136TIP3    H263824   4.947   6.034  16.695  1.2687  0.9827  0.2336
14137TIP3   OH263825   1.576   4.303  16.710  0.2681  0.0542  0.5259
14137TIP3    H163826   1.504   4.352  16.749  1.9735  1.8091  1.6514
14137TIP3    H263827   1.613   4.252  16.782  0.7203 -0.1142  0.1857
14138TIP3   OH263828   4.619   6.525  15.564 -0.4177 -0.6778  0.6074
14138TIP3    H163829   4.713   6.508  15.577 -0.6664 -1.2034  1.9102
14138TIP3    H263830   4.613   6.557  15.474  0.9705 -0.9350  0.3897
14139TIP3   OH263831   6.264   3.947   3.228 -0.0204  0.2167  0.2422
14139TIP3    H163832   6.175   3.979   3.214 -0.4281 -1.0188 -0.1141
14139TIP3    H263833   6.259   3.853   3.210  1.3081  0.0866  0.4441
14140TIP3   OH263834   6.707   4.987   5.450 -0.1851 -0.1294  0.6232
14140TIP3    H163835   6.685   5.051   5.517  1.4248  0.8785  0.2246
14140TIP3    H263836   6.682   4.903   5.488  0.6101  0.4318  2.4736
14141TIP3   OH263837   3.819   2.123   4.707 -0.2135 -0.0091  0.3807
14141TIP3    H163838   3.778   2.182   4.644  0.5439  0.4371  0.2864
14141TIP3    H263839   3.797   2.159   4.793  1.4702  1.3131  0.3108
14142TIP3   OH263840   0.266   4.390   3.201 -0.3576  0.3344  0.5888
14142TIP3    H163841   0.283   4.314   3.257 -2.7906  0.8188  2.1307
14142TIP3    H263842   0.344   4.444   3.210 -0.2591 -0.0759  2.7560
14143TIP3   OH263843   0.554   1.018  13.898  0.0977  0.8457 -0.2761
14143TIP3    H163844   0.572   0.931  13.861  1.8875  1.8431 -1.8992
14143TIP3    H263845   0.578   1.009  13.990 -0.4368 -0.5568 -0.2370
14144TIP3   OH263846   5.273   3.207   1.261 -0.9568 -0.2617 -0.1266
14144TIP3    H163847   5.280   3.217   1.166  0.7815  0.0540  0.0045
14144TIP3    H263848   5.355   3.167   1.287 -0.7233  1.1174  1.4189
14145TIP3   OH263849   0.644   5.912   3.664  0.6640  0.5609  0.1136
14145TIP3    H163850   0.670   5.820   3.656 -0.6033  0.0226  1.7045
14145TIP3    H263851   0.727   5.960   3.667  1.3807 -0.6563  0.4922
14146TIP3   OH263852   3.584   6.571   3.725  0.2361  0.3863  0.7998
14146TIP3    H163853   3.645   6.519   3.778 -0.2739  0.7814  1.7940
14146TIP3    H263854   3.509   6.587   3.782 -0.4913  0.5290 -0.1654
14147TIP3   OH263855   0.626   2.280   1.475 -0.2934 -0.0863  0.9282
14147TIP3    H163856   0.621   2.234   1.558  0.2005  0.0343  1.0221
14147TIP3    H263857   0.587   2.219   1.412  2.0694 -1.4651  0.6921
14148TIP3   OH263858   1.312   5.543   2.513 -0.0204 -0.1007 -0.3367
14148TIP3    H163859   1.349   5.474   2.458  3.4356  1.3041  0.0388
14148TIP3    H263860   1.348   5.526   2.600 -2.0461  0.1846  0.6333
14149TIP3   OH263861   3.391   5.294   1.080  0.3195 -0.1444 -0.0162
14149TIP3    H163862   3.422   5.350   1.151  0.4498 -1.0547  0.6606
14149TIP3    H263863   3.420   5.206   1.104  1.0955 -0.3697 -1.5985
14150TIP3   OH263864   3.161   4.945  11.866  0.1352 -0.0685 -0.5763
14150TIP3    H163865   3.223   5.018  11.860 -0.5969  0.6168 -0.0631
14150TIP3    H263866   3.117   4.945  11.780  1.2264 -0.9296 -1.1568
14151TIP3   OH263867   6.083   4.331   3.306  0.1451 -0.1109 -0.1198
14151TIP3    H163868   6.007   4.280   3.278 -0.8149 -0.6668  3.0777
14151TIP3    H263869   6.105   4.385   3.230 -2.9249 -0.4995 -1.4362
14152TIP3   OH263870   1.052   5.202   1.790  0.0114 -0.3493  0.4118
14152TIP3    H163871   0.979   5.167   1.841  0.6614 -0.2644  1.4295
14152TIP3    H263872   1.094   5.125   1.752 -1.4956 -0.3217 -1.4978
14153TIP3   OH263873   0.422   1.087   4.017 -0.7334  0.2503  0.0858
14153TIP3    H163874   0.348   1.147   4.026 -2.7224 -1.8487 -0.9590
14153TIP3    H263875   0.432   1.047   4.103 -1.8099 -0.4628 -0.0989
14154TIP3   OH263876   2.219   0.970   3.757  0.3226  0.2216 -0.1158
14154TIP3    H163877   2.145   0.920   3.792  0.3254  1.9481  2.6904
14154TIP3    H263878   2.180   1.047   3.716  0.4661  1.4997  1.9937
14155TIP3   OH263879   2.153   6.202  16.386  0.4020 -0.2718 -0.0766
14155TIP3    H163880   2.220   6.261  16.350 -1.6031  0.7422 -2.4701
14155TIP3    H263881   2.106   6.255  16.450 -0.7016  0.4757 -1.4400
14156TIP3   OH263882   3.433   5.889   6.705 -0.1517 -0.1440  0.4092
14156TIP3    H163883   3.417   5.957   6.771 -3.0121 -0.1270 -0.2069
14156TIP3    H263884   3.375   5.818   6.730 -0.7973 -0.4020 -1.7214
14157TIP3   OH263885   0.420   5.950   4.287  0.7275  0.1472  0.2201
14157TIP3    H163886   0.426   6.026   4.230 -1.5099  0.6971  0.6104
14157TIP3    H263887   0.501   5.953   4.339  1.7233  0.9406 -1.3017
14158TIP3   OH263888   4.048   5.270  15.156 -0.4740  0.2352 -0.1721
14158TIP3    H163889   4.143   5.261  15.157 -0.6018 -1.7473 -0.7744
14158TIP3    H263890   4.021   5.257  15.247 -0.4594 -5.2257 -0.5984
14159TIP3   OH263891   4.398   2.175  14.623 -0.0563  0.2033 -0.5502
14159TIP3    H163892   4.336   2.241  14.654  0.4180 -0.1585  1.2754
14159TIP3    H263893   4.344   2.110  14.578 -0.9765  0.0516  0.7355
14160TIP3   OH263894   6.634   1.974  15.585  0.0158  0.2632 -0.0558
14160TIP3    H163895   6.562   2.023  15.623  0.0194  1.1841 -1.1846
14160TIP3    H263896   6.606   1.956  15.496  0.3624 -1.1052  0.0964
14161TIP3   OH263897   6.560   1.077  12.482  0.3534  0.2643 -0.8939
14161TIP3    H163898   6.539   1.137  12.554 -1.2151 -0.5166 -0.6479
14161TIP3    H263899   6.483   1.080  12.425 -0.3966 -2.4555 -0.1723
14162TIP3   OH263900   1.256   5.316  11.588  0.1078  0.7160 -0.1122
14162TIP3    H163901   1.216   5.275  11.665 -0.5899  3.0099  0.8488
14162TIP3    H263902   1.229   5.261  11.514 -1.7076  0.0808  0.9593
14163TIP3   OH263903   3.262   6.056   1.776  0.2045  0.0467  0.0031
14163TIP3    H163904   3.308   5.975   1.755 -1.0796 -0.4573 -0.9869
14163TIP3    H263905   3.250   6.100   1.692 -1.6348 -0.1314  0.1402
14164TIP3   OH263906   6.240   5.170  13.743  0.0235 -0.0229 -0.3761
14164TIP3    H163907   6.318   5.140  13.697  1.2915  1.7943  0.4663
14164TIP3    H263908   6.185   5.092  13.749  1.2147 -1.0708 -2.0636
14165TIP3   OH263909   6.082   3.775  13.693  0.1798 -0.2847 -0.7247
14165TIP3    H163910   6.097   3.808  13.782 -0.7266 -0.2474 -0.5780
14165TIP3    H263911   6.112   3.684  13.696 -0.1863 -0.3966 -0.2729
14166TIP3   OH263912   3.499   6.381   1.495 -0.0439 -0.8976 -0.7754
14166TIP3    H163913   3.568   6.319   1.473 -0.1876 -1.0959 -0.6712
14166TIP3    H263914   3.500   6.385   1.591 -0.5891 -1.3755 -0.7450
14167TIP3   OH263915   4.002   2.471  17.275 -0.1960 -0.1952 -0.4954
14167TIP3    H163916   4.083   2.477  17.224  0.9041 -1.1497  1.0796
14167TIP3    H263917   3.933   2.466  17.208  0.9683  0.9323 -1.8773
14168TIP3   OH263918   5.520   6.262   6.102  0.0449  0.0904 -0.0002
14168TIP3    H163919   5.556   6.215   6.178 -0.0692  0.1775  0.1076
14168TIP3    H263920   5.592   6.316   6.071 -0.1963  0.7980  0.6405
14169TIP3   OH263921   4.446   0.030  15.818 -0.0322 -0.0624 -0.0477
14169TIP3    H163922   4.514   0.090  15.786 -0.1779  3.0951  4.6308
14169TIP3    H263923   4.495  -0.039  15.863  0.1494  0.5341  0.6906
14170TIP3   OH263924   6.015   1.305   5.158 -0.2836 -0.0993 -0.2937
14170TIP3    H163925   5.997   1.377   5.098  0.8570  0.7618  0.3707
14170TIP3    H263926   5.988   1.338   5.244 -2.1578 -1.4193 -0.3142
14171TIP3   OH263927   5.299   6.112  13.874 -0.2130 -0.4022 -0.1391
14171TIP3    H163928   5.324   6.130  13.783  1.3346 -0.5069  0.2396
14171TIP3    H263929   5.378   6.075  13.914 -0.7750 -0.0873  1.3269
14172TIP3   OH263930   1.635   5.280  16.266  0.0995 -0.2181  0.9036
14172TIP3    H163931   1.638   5.331  16.347  2.7443 -0.2531  0.9117
14172TIP3    H263932   1.605   5.194  16.294 -1.0583  0.3428  1.4688
14173TIP3   OH263933   3.901   1.922  12.844 -0.1802  0.2509  0.2353
14173TIP3    H163934   3.971   1.952  12.787 -0.1418 -1.2171 -0.5356
14173TIP3    H263935   3.946   1.882  12.919 -0.2099  0.0699  0.1555
14174TIP3   OH263936   0.911   6.314   4.495  0.0606  0.2128 -0.1076
14174TIP3    H163937   0.992   6.355   4.525 -0.7178  0.1561  2.3548
14174TIP3    H263938   0.934   6.222   4.482  0.2355 -0.0203  1.5671
14175TIP3   OH263939   3.194   3.029  13.585  0.1733  0.3363  0.3596
14175TIP3    H163940   3.145   3.028  13.503 -1.8564 -0.2817  1.4964
14175TIP3    H263941   3.179   3.117  13.620  0.6881  0.4630  0.2583
14176TIP3   OH263942   1.864   2.732  15.045 -0.4222 -0.1659  0.0979
14176TIP3    H163943   1.805   2.691  14.982  1.0779 -0.2334 -1.3234
14176TIP3    H263944   1.898   2.659  15.097  0.1890 -0.4296 -0.6511
14177TIP3   OH263945   6.033   4.500   5.291 -0.4473  0.6716  0.3124
14177TIP3    H163946   6.005   4.482   5.381 -1.1855 -0.1599 -0.0775
14177TIP3    H263947   5.957   4.479   5.237  0.0678  0.9340 -0.5342
14178TIP3   OH263948   3.252   3.127   2.089  0.0494  0.4892 -0.4620
14178TIP3    H163949   3.261   3.043   2.045 -2.2898 -0.4560  0.6793
14178TIP3    H263950   3.190   3.177   2.035 -1.6809 -0.1188  0.8533
14179TIP3   OH263951   2.649   5.593   2.143  0.2915  0.1575  0.3861
14179TIP3    H163952   2.727   5.648   2.144 -0.7221  1.6312  0.5834
14179TIP3    H263953   2.609   5.607   2.229  1.4058 -3.0141  1.5842
14180TIP3   OH263954   3.785   2.388   1.397 -0.4650  0.3248  0.1648
14180TIP3    H163955   3.878   2.393   1.420  0.0207 -2.5853 -0.7435
14180TIP3    H263956   3.749   2.323   1.458 -2.1906  2.0094  1.0739
14181TIP3   OH263957   5.052   5.366  12.135  0.0747 -0.0174 -0.3858
14181TIP3    H163958   5.103   5.444  12.114  2.0510 -1.0288  0.4017
14181TIP3    H263959   5.115   5.305  12.174 -0.8386 -2.9998 -3.1584
14182TIP3   OH263960   2.356   6.037   4.091  0.0732  0.1669 -0.5817
14182TIP3    H163961   2.261   6.042   4.075  0.2333  0.5903 -1.4637
14182TIP3    H263962   2.391   6.114   4.046  0.8604 -0.0982 -0.4227
14183TIP3   OH263963   2.192   1.545   2.335 -0.1872  0.3816 -0.7895
14183TIP3    H163964   2.279   1.582   2.350  0.1639 -0.2955 -1.1383
14183TIP3    H263965   2.206   1.451   2.331 -0.9969  0.2406 -0.4562
14184TIP3   OH263966   1.908   5.199   4.526 -0.3038  0.5367  0.0002
14184TIP3    H163967   1.960   5.121   4.507 -0.2098  0.1043  1.8503
14184TIP3    H263968   1.821   5.178   4.493 -0.3265 -0.4483  0.6553
14185TIP3   OH263969   1.661   4.425  13.417 -0.0032  0.2509  0.5531
14185TIP3    H163970   1.681   4.332  13.402  0.7585  0.2883  1.2783
14185TIP3    H263971   1.583   4.441  13.364  1.6380 -0.0098 -2.1011
14186TIP3   OH263972   1.696   3.215   5.107 -0.5049 -0.0698 -0.2965
14186TIP3    H163973   1.751   3.267   5.049 -0.9697  0.0693 -0.6098
14186TIP3    H263974   1.608   3.219   5.069 -1.0545  0.9344  0.9835
14187TIP3   OH263975   1.898   5.471   5.624  0.6250  0.2471 -0.1709
14187TIP3    H163976   1.954   5.394   5.614  1.5980  0.7415  1.2069
14187TIP3    H263977   1.903   5.493   5.717  0.1889  1.8433 -0.4953
14188TIP3   OH263978   3.272   3.879  16.550  0.2220  0.3209  0.2548
14188TIP3    H163979   3.198   3.927  16.588  0.2140  0.2923  0.2752
14188TIP3    H263980   3.269   3.901  16.457 -0.7151 -0.8576 -0.0146
14189TIP3   OH263981   6.302   5.470   4.337  0.0303 -0.4816 -0.2955
14189TIP3    H163982   6.286   5.544   4.278  0.0808 -1.2578 -1.2998
14189TIP3    H263983   6.283   5.392   4.285 -2.4937 -1.1813  1.4659
14190TIP3   OH263984   3.129   1.328   3.992 -0.1662  0.4420  0.5844
14190TIP3    H163985   3.184   1.324   4.071 -0.8464  0.6489  1.0822
14190TIP3    H263986   3.143   1.416   3.957  0.2392  0.3047  0.3926
14191TIP3   OH263987   0.313   0.481  12.977 -0.2390  0.0173 -0.0304
14191TIP3    H163988   0.280   0.559  12.932 -0.4199  1.1146  1.8628
14191TIP3    H263989   0.408   0.486  12.966 -0.2518  0.4926  0.0148
14192TIP3   OH263990   2.933   5.290   5.817  0.5430  0.5784  0.1712
14192TIP3    H163991   2.863   5.316   5.877  1.5605 -0.2787  1.7925
14192TIP3    H263992   3.007   5.268   5.874  1.7121  0.1765 -1.4300
14193TIP3   OH263993   0.718   1.592  15.129  0.0014 -0.2770  0.5565
14193TIP3    H163994   0.725   1.669  15.073  1.6936  0.0879  1.2173
14193TIP3    H263995   0.647   1.613  15.190  0.2542  0.6604  0.5449
14194TIP3   OH263996   6.532   3.110  13.729  0.4714  0.1476 -0.3262
14194TIP3    H163997   6.505   3.107  13.637 -3.2696  1.3019  0.5596
14194TIP3    H263998   6.505   3.196  13.759  1.2076 -0.3593  1.9879
14195TIP3   OH263999   4.423   2.308   0.696  0.4221  0.8384 -0.0887
14195TIP3    H164000   4.350   2.301   0.634  0.8594  1.4036 -0.6786
14195TIP3    H264001   4.487   2.244   0.665 -0.1646 -0.2831  0.9334
14196TIP3   OH264002   1.160   0.065   4.950 -0.5252 -0.4999 -0.1783
14196TIP3    H164003   1.246   0.069   4.992 -0.5259 -0.5696 -0.1709
14196TIP3    H264004   1.179   0.057   4.856 -0.5149 -1.8469 -0.0787
14197TIP3   OH264005   1.615   5.360  11.521 -0.2330 -0.3847  0.1863
14197TIP3    H164006   1.602   5.454  11.510  0.0650 -0.3337  0.2810
14197TIP3    H264007   1.565   5.339  11.600 -0.7651 -0.4087 -0.1486
14198TIP3   OH264008   4.937   4.942   2.911 -0.0009  0.1184  0.2646
14198TIP3    H164009   4.939   4.952   2.816  0.3878  0.9059  0.3479
14198TIP3    H264010   4.849   4.911   2.930 -1.0604  2.6435 -0.1283
14199TIP3   OH264011   2.070   2.763   5.825 -0.3064  0.0135 -0.6671
14199TIP3    H164012   2.029   2.728   5.745 -0.2425 -0.1088 -0.6471
14199TIP3    H264013   2.070   2.689   5.886 -1.8010  0.5211  0.0101
14200TIP3   OH264014   6.485   0.014   5.036 -0.1280  0.0905 -0.1144
14200TIP3    H164015   6.541   0.045   4.965 -1.5381  2.2085 -0.3754
14200TIP3    H264016   6.543   0.012   5.113  0.6025  1.0713 -0.6185
14201TIP3   OH264017   2.372   2.691  12.629 -0.0921  0.4216 -0.2507
14201TIP3    H164018   2.372   2.765  12.690 -0.9809  1.5228 -1.5245
14201TIP3    H264019   2.279   2.675  12.611  0.1733  0.6397 -1.9122
14202TIP3   OH264020   4.694   6.429  13.571 -0.0142 -0.4668  0.4667
14202TIP3    H164021   4.686   6.524  13.571  1.2810 -0.2777 -2.0449
14202TIP3    H264022   4.741   6.409  13.652 -0.5525  0.9775  1.1615
14203TIP3   OH264023   2.971   0.584  13.058  0.7198  0.1015  0.5408
14203TIP3    H164024   2.997   0.540  13.139  1.2282 -0.9147 -0.1583
14203TIP3    H264025   2.894   0.636  13.083  0.7327 -0.3655  1.6194
14204TIP3   OH264026   2.207   5.522  12.321  0.0516  0.0976  0.1383
14204TIP3    H164027   2.196   5.542  12.228 -0.6475  0.7237  0.3415
14204TIP3    H264028   2.129   5.559  12.362 -0.8059 -2.1712  0.6860
14205TIP3   OH264029   5.573   5.900  12.332 -0.3381  0.2429  0.1557
14205TIP3    H164030   5.612   5.972  12.283  1.8173 -0.1502  1.1628
14205TIP3    H264031   5.531   5.846  12.266  1.9508  0.0547 -1.2744
14206TIP3   OH264032   3.000   3.367   3.570 -0.2630 -0.1652  0.5258
14206TIP3    H164033   3.087   3.402   3.551 -0.3467 -0.4056 -0.3884
14206TIP3    H264034   2.954   3.374   3.486 -0.4106 -2.0344  0.4182
14207TIP3   OH264035   2.439   0.765   3.509  0.5069 -0.0632  0.6661
14207TIP3    H164036   2.523   0.728   3.480  1.0201  1.6994 -0.1737
14207TIP3    H264037   2.455   0.790   3.600  1.2583  1.2677  0.1865
14208TIP3   OH264038   0.632   5.663   4.935 -0.1310  0.0311  0.0926
14208TIP3    H164039   0.547   5.642   4.975  0.4863 -0.6109  1.1130
14208TIP3    H264040   0.672   5.577   4.918  0.1056  0.3171 -0.8649
14209TIP3   OH264041   4.555   1.449  10.894  0.2971 -0.2934 -0.1626
14209TIP3    H164042   4.634   1.478  10.849  0.2324 -0.4042 -0.3454
14209TIP3    H264043   4.551   1.355  10.879 -0.4507 -0.1274 -1.0722
14210TIP3   OH264044   5.257   2.958  11.989  0.4584  0.5149 -0.3957
14210TIP3    H164045   5.284   3.028  11.930  1.1138 -0.6072 -1.4951
14210TIP3    H264046   5.327   2.893  11.982 -0.3328 -0.4405  0.2453
14211TIP3   OH264047   0.750   0.474  12.404 -0.1346  0.1580 -0.2911
14211TIP3    H164048   0.834   0.434  12.426  0.2695  0.9509 -0.3252
14211TIP3    H264049   0.769   0.568  12.403 -1.3237  0.4423  1.0041
14212TIP3   OH264050   0.941   6.521   3.145  0.0733  0.0456 -0.1406
14212TIP3    H164051   0.905   6.455   3.204 -1.3356 -0.1947 -1.2158
14212TIP3    H264052   0.912   6.604   3.182 -2.7464 -0.1661 -1.5929
14213TIP3   OH264053   5.155   1.944  12.664  0.3930 -0.1353  0.2130
14213TIP3    H164054   5.127   1.854  12.679  2.0425 -0.2964  3.0723
14213TIP3    H264055   5.248   1.938  12.646  0.8194  1.0455  1.8071
14214TIP3   OH264056   6.104   4.955  12.013  0.0216 -0.7610  0.0952
14214TIP3    H164057   6.094   4.889  12.082 -1.1141 -0.9861 -0.2656
14214TIP3    H264058   6.050   4.923  11.941 -3.1743  2.0311  0.9901
14215TIP3   OH264059   4.812   2.676   0.524 -0.0429 -0.3385  0.4176
14215TIP3    H164060   4.724   2.713   0.535  0.2329 -0.2023  2.7706
14215TIP3    H264061   4.815   2.646   0.434 -2.3178  0.1418  0.1319
14216TIP3   OH264062   4.068   4.630  14.674 -1.2048  0.1702  0.2516
14216TIP3    H164063   4.086   4.681  14.596 -0.3598 -2.2198 -1.2235
14216TIP3    H264064   4.080   4.691  14.746 -0.1075  1.9817 -1.3779
14217TIP3   OH264065   5.500   0.594  10.706 -0.6171 -0.1641 -0.0180
14217TIP3    H164066   5.549   0.513  10.689  0.8301  1.0917 -2.2961
14217TIP3    H264067   5.568   0.661  10.714 -1.8220  0.9656  1.1048
14218TIP3   OH264068   3.305   1.005   4.088  0.2243  0.4703 -0.4640
14218TIP3    H164069   3.307   0.915   4.122  1.1150  0.0648 -1.5354
14218TIP3    H264070   3.396   1.033   4.088 -0.0228  1.2996 -0.3539
14219TIP3   OH264071   4.645   5.090   4.079 -0.6610 -0.1992 -0.3220
14219TIP3    H164072   4.634   5.062   4.170  0.1199 -1.0587 -0.4777
14219TIP3    H264073   4.556   5.106   4.048 -0.9565 -0.1944  0.4966
14220TIP3   OH264074   6.092   2.162   6.005 -0.1732 -0.0127 -0.0416
14220TIP3    H164075   6.007   2.128   5.977 -0.9000  0.1658  1.8090
14220TIP3    H264076   6.106   2.124   6.092  0.2280  2.2518  0.9662
14221TIP3   OH264077   5.174   6.516  11.379  0.1544  0.2925  0.6943
14221TIP3    H164078   5.097   6.501  11.434  0.2889  1.6234  1.2660
14221TIP3    H264079   5.211   6.428  11.367  0.7201  0.0339  3.5988
14222TIP3   OH264080   0.428   4.512  17.331  0.1229  0.0555 -0.1435
14222TIP3    H164081   0.348   4.560  17.310  0.0894 -0.2601 -0.7661
14222TIP3    H264082   0.446   4.460  17.253  0.6515 -0.2693  0.1853
14223TIP3   OH264083   3.489   0.730   1.980 -0.1376  0.0133  0.2081
14223TIP3    H164084   3.473   0.815   1.940 -1.2506 -0.4355 -0.3166
14223TIP3    H264085   3.518   0.674   1.908  0.3825 -0.1197  0.5132
14224TIP3   OH264086   3.322   1.327   3.369 -0.0994  0.0422 -0.0639
14224TIP3    H164087   3.229   1.331   3.394  0.6951  2.9114  3.2009
14224TIP3    H264088   3.328   1.375   3.287 -1.3604  0.9024  0.3266
14225TIP3   OH264089   3.813   2.643   4.805 -0.3057  0.8992  0.0302
14225TIP3    H164090   3.864   2.566   4.829 -1.6952  0.1475  0.6542
14225TIP3    H264091   3.774   2.673   4.887 -1.0064  1.3523 -0.4553
14226TIP3   OH264092   1.339   2.951  11.509  0.3817  0.3040  0.4457
14226TIP3    H164093   1.421   2.983  11.472  0.5566 -1.1857 -0.5419
14226TIP3    H264094   1.361   2.865  11.545 -0.3183  0.7414  1.9536
14227TIP3   OH264095   1.797   2.266   3.501 -0.6534  0.4746  0.4719
14227TIP3    H164096   1.890   2.246   3.496 -1.2689 -2.8195 -0.1560
14227TIP3    H264097   1.786   2.345   3.448  1.4988 -0.2908 -1.2408
14228TIP3   OH264098   5.501   6.412  11.295  0.3247  0.0796  0.4473
14228TIP3    H164099   5.480   6.502  11.320  0.5011  0.4749 -0.7846
14228TIP3    H264100   5.581   6.393  11.344  0.7720  0.9070  0.0648
14229TIP3   OH264101   5.653   1.354   4.546 -0.3493 -0.2296 -0.1303
14229TIP3    H164102   5.711   1.291   4.587 -1.6693 -1.3471  0.0919
14229TIP3    H264103   5.695   1.439   4.560  1.1062 -0.9838  0.1749
14230TIP3   OH264104   1.283   1.700   1.230 -0.1494 -0.5493  0.3226
14230TIP3    H164105   1.241   1.735   1.151  0.8254 -1.0233 -0.4297
14230TIP3    H264106   1.318   1.615   1.203  0.2404 -0.7001  1.2585
14231TIP3   OH264107   6.305   6.129   0.759  0.2380 -0.1628 -0.0756
14231TIP3    H164108   6.261   6.044   0.765 -0.3997 -0.0527 -2.2138
14231TIP3    H264109   6.292   6.156   0.668  0.3236  2.2827  0.5667
14232TIP3   OH264110   0.721   2.550   3.531  0.1635 -0.1852 -0.2661
14232TIP3    H164111   0.735   2.496   3.453 -1.4209 -2.0726  0.6739
14232TIP3    H264112   0.739   2.491   3.604  1.3984  1.4781  0.8418
14233TIP3   OH264113   5.010   3.127  12.021  0.0141  0.2738 -0.5184
14233TIP3    H164114   5.083   3.066  12.016  1.4629  1.9539 -0.9343
14233TIP3    H264115   4.999   3.145  12.114  1.0568  1.0490 -0.5369
14234TIP3   OH264116   3.040   1.897   0.524  0.1031 -0.3857 -0.2741
14234TIP3    H164117   3.076   1.963   0.465  0.0822  0.4486  0.6277
14234TIP3    H264118   2.946   1.915   0.525  0.1013 -0.4062  0.0009
14235TIP3   OH264119   6.707   3.205   3.044  0.5100  0.4652 -0.2991
14235TIP3    H164120   6.771   3.253   3.097  2.3322 -1.1148 -0.9762
14235TIP3    H264121   6.754   3.184   2.963 -1.4028  0.6103 -1.5107
14236TIP3   OH264122   5.244   4.918  13.696 -0.1620  0.5753  0.5042
14236TIP3    H164123   5.308   4.893  13.630 -0.7532 -0.3953  0.2700
14236TIP3    H264124   5.288   4.901  13.779 -0.2617 -0.5761  0.3469
14237TIP3   OH264125   4.648   0.357   3.640  0.2382  0.3388 -0.0260
14237TIP3    H164126   4.612   0.379   3.726  0.0766 -0.4323  0.1099
14237TIP3    H264127   4.698   0.277   3.655  1.3296  0.9388 -0.3878
14238TIP3   OH264128   1.581   6.537   4.278 -0.1078  0.2026 -0.5207
14238TIP3    H164129   1.622   6.485   4.209 -0.3361 -0.2136 -0.3432
14238TIP3    H264130   1.550   6.473   4.342 -0.1842  0.5672 -0.1866
14239TIP3   OH264131   0.032   1.586  13.372  0.2279  0.1048  1.2319
14239TIP3    H164132   0.118   1.553  13.399 -0.5892 -0.0650  3.8550
14239TIP3    H264133  -0.030   1.540  13.428 -1.3237  2.6743  1.7714
14240TIP3   OH264134   1.061   0.268  12.696  0.6746 -0.4020 -0.5948
14240TIP3    H164135   1.005   0.235  12.766  0.5931 -1.8350 -1.3078
14240TIP3    H264136   1.024   0.232  12.616  0.8454  1.0987 -1.3856
14241TIP3   OH264137   4.223   4.048   3.774 -0.8803  0.0891  0.3881
14241TIP3    H164138   4.175   3.970   3.745 -1.2865  1.2688 -2.4134
14241TIP3    H264139   4.160   4.097   3.826 -1.1151 -0.6703  0.8381
14242TIP3   OH264140   4.571   5.583   1.946  0.3196  0.0798  0.3227
14242TIP3    H164141   4.650   5.532   1.963  1.9795  2.3567 -0.0202
14242TIP3    H264142   4.560   5.636   2.025  0.6292  1.5410 -0.5763
14243TIP3   OH264143   4.641   6.712   5.432 -0.6286  0.1321  0.2684
14243TIP3    H164144   4.731   6.691   5.456 -0.0032  1.7892 -0.5155
14243TIP3    H264145   4.632   6.681   5.342 -0.1695  1.7752 -0.3702
14244TIP3   OH264146   6.097   3.148   3.591  0.1795 -0.0284 -0.5053
14244TIP3    H164147   6.033   3.129   3.522 -0.6769 -0.7446  0.4575
14244TIP3    H264148   6.104   3.066   3.640  1.4832  0.1895 -0.2953
14245TIP3   OH264149   0.603   4.013  15.528  0.2034 -0.4071  0.4802
14245TIP3    H164150   0.527   4.072  15.532  1.1144  0.7428  1.9003
14245TIP3    H264151   0.566   3.925  15.529 -1.1224  0.1328  0.6780
14246TIP3   OH264152   1.394   6.039  12.864 -0.2345 -0.0021 -0.0404
14246TIP3    H164153   1.410   5.948  12.838  1.2251  0.4100 -0.6666
14246TIP3    H264154   1.323   6.033  12.928 -0.7836 -1.4916 -0.7266
14247TIP3   OH264155   1.203   2.550  11.123 -0.1677  0.0972 -0.4227
14247TIP3    H164156   1.242   2.637  11.109  0.0669 -0.0481 -0.6941
14247TIP3    H264157   1.109   2.564  11.113 -0.0540  0.1070 -1.6561
14248TIP3   OH264158   3.235   2.236  15.880 -0.3553  0.7084 -0.6266
14248TIP3    H164159   3.229   2.223  15.785  1.8620 -1.4454 -0.5676
14248TIP3    H264160   3.185   2.163  15.917  0.0030  0.7002 -0.1518
14249TIP3   OH264161   5.351   5.783   4.553 -0.2941  0.0624  0.6244
14249TIP3    H164162   5.366   5.787   4.647 -1.5902  1.2032  0.8184
14249TIP3    H264163   5.435   5.757   4.516  0.1789 -0.6054  2.1051
14250TIP3   OH264164   5.671   6.051   5.943 -0.2257  0.7094  0.0386
14250TIP3    H164165   5.712   6.081   5.861  2.1844 -0.9520  0.5139
14250TIP3    H264166   5.684   6.123   6.004  1.5362  0.4845 -0.0145
14251TIP3   OH264167   5.698   5.042  15.604  0.7919 -0.1465 -0.1399
14251TIP3    H164168   5.691   5.098  15.526  0.2891 -0.3363 -0.2330
14251TIP3    H264169   5.673   5.099  15.676  1.2530  0.0281 -0.1145
14252TIP3   OH264170   4.602   6.121  13.756  0.0781  0.0477 -0.3239
14252TIP3    H164171   4.515   6.081  13.764  0.7254 -1.1285  1.3276
14252TIP3    H264172   4.601   6.194  13.818 -0.1062  0.7863 -1.1761
14253TIP3   OH264173   2.591   5.006   6.045  0.1306 -0.5176 -0.4936
14253TIP3    H164174   2.591   5.056   6.127  0.2679 -0.7780 -0.3330
14253TIP3    H264175   2.682   5.008   6.016  0.2116 -0.9799 -0.2939
14254TIP3   OH264176   2.020   0.574  16.868 -0.1869  0.1207  0.0844
14254TIP3    H164177   2.015   0.563  16.963  0.4318 -3.2951 -0.1389
14254TIP3    H264178   2.108   0.611  16.853 -0.1385  0.3167  0.8114
14255TIP3   OH264179   3.428   3.586   3.365  0.3593 -0.0980 -0.3026
14255TIP3    H164180   3.412   3.534   3.444 -0.4938  0.3045 -0.2005
14255TIP3    H264181   3.345   3.631   3.348  0.2745 -0.8030 -1.9055
14256TIP3   OH264182   1.019   0.344   2.985  0.6430 -0.1119  0.4575
14256TIP3    H164183   0.951   0.280   2.966  1.6572 -1.0019 -0.2475
14256TIP3    H264184   0.982   0.398   3.055 -0.4493 -1.1054  0.6704
14257TIP3   OH264185   3.449   6.713  14.665  0.4329  0.3687  0.5941
14257TIP3    H164186   3.431   6.763  14.586 -0.9540 -0.0408  0.6243
14257TIP3    H264187   3.366   6.713  14.713  1.0858  0.1101  1.7650
14258TIP3   OH264188   5.956   3.351   3.239 -0.0723  0.5948  0.3183
14258TIP3    H164189   5.910   3.311   3.165 -0.8143 -0.3037  1.2301
14258TIP3    H264190   5.952   3.284   3.308  1.3147  1.0968  0.9049
14259TIP3   OH264191   1.261   1.232  15.916  0.1034  0.4215  0.2104
14259TIP3    H164192   1.354   1.253  15.917  0.5529 -1.4198  0.5560
14259TIP3    H264193   1.221   1.299  15.972  1.1559  1.4088 -0.1771
14260TIP3   OH264194   1.829   3.926   2.531 -0.0769 -0.2016  0.0092
14260TIP3    H164195   1.865   3.840   2.509 -0.7607 -0.0926 -1.7282
14260TIP3    H264196   1.904   3.978   2.558  0.4448 -1.1493  0.4298
14261TIP3   OH264197   3.048   1.455   3.389 -0.0310 -0.5376  0.0830
14261TIP3    H164198   3.040   1.520   3.459 -0.5489  0.3362 -0.7598
14261TIP3    H264199   3.031   1.504   3.309 -1.2215 -1.8622 -0.5280
14262TIP3   OH264200   2.875   0.049   4.483  0.4985 -0.6987 -0.1370
14262TIP3    H164201   2.839  -0.038   4.471 -0.9941  0.1400 -2.2508
14262TIP3    H264202   2.824   0.087   4.555  0.6955 -1.2993  0.3304
14263TIP3   OH264203   0.079   5.150   1.347 -0.1609  0.0513  0.2433
14263TIP3    H164204   0.107   5.109   1.266  2.6745  0.4896  0.8742
14263TIP3    H264205   0.098   5.243   1.335 -1.6619  0.4373  0.6820
14264TIP3   OH264206   3.520   0.199  15.600  0.0633  0.7184 -0.3398
14264TIP3    H164207   3.602   0.152  15.586 -0.2289  0.5103 -1.4706
14264TIP3    H264208   3.511   0.203  15.695  1.0924  0.2428 -0.2014
14265TIP3   OH264209   3.349   1.730  11.797  0.0247 -0.0846 -0.1736
14265TIP3    H164210   3.346   1.711  11.891 -0.0220 -0.0819 -0.1747
14265TIP3    H264211   3.280   1.676  11.759  1.0731 -1.2801 -0.4193
14266TIP3   OH264212   2.008   6.138  14.733  0.3279 -0.0027 -0.2419
14266TIP3    H164213   1.938   6.142  14.799  0.0389 -0.2647 -0.5342
14266TIP3    H264214   2.055   6.221  14.744  0.8388 -0.4277  0.9144
14267TIP3   OH264215   0.211   4.647   0.625 -0.0398 -0.5238  0.0521
14267TIP3    H164216   0.292   4.663   0.674  1.5348 -2.0445 -1.8565
14267TIP3    H264217   0.143   4.695   0.674  1.9339  0.6089  1.8750
14268TIP3   OH264218   3.549   3.724  11.748  0.0657 -0.1008  0.2328
14268TIP3    H164219   3.456   3.726  11.727  0.1868  0.3400 -0.2705
14268TIP3    H264220   3.581   3.642  11.710 -0.4679 -1.1960  1.9882
14269TIP3   OH264221   2.823   3.482   5.355  0.5809 -0.0644  0.3997
14269TIP3    H164222   2.912   3.514   5.367  0.3539  0.7261  0.0396
14269TIP3    H264223   2.782   3.490   5.441  1.1436 -1.3979  0.8219
14270TIP3   OH264224   3.788   1.187   5.626 -0.2799 -0.1265  0.3787
14270TIP3    H164225   3.882   1.208   5.629 -0.0162 -1.3447  1.7376
14270TIP3    H264226   3.763   1.204   5.535  1.1401  0.6712  0.0964
14271TIP3   OH264227   4.820   0.919   3.375  0.1475  0.1392  0.2959
14271TIP3    H164228   4.881   0.951   3.308  0.9641 -0.7748  0.5700
14271TIP3    H264229   4.814   0.825   3.359 -1.3616  0.2482  0.1648
14272TIP3   OH264230   4.717   2.639  14.115 -0.2626 -0.5022  0.5353
14272TIP3    H164231   4.681   2.558  14.081  0.4720 -0.0684 -1.3792
14272TIP3    H264232   4.652   2.706  14.093 -0.3626 -0.3877  1.1415
14273TIP3   OH264233   4.375   3.310  12.075 -0.0519  0.8261  0.7933
14273TIP3    H164234   4.340   3.263  12.000 -3.6987  2.2472  1.4223
14273TIP3    H264235   4.387   3.243  12.143 -1.7454  0.2631  0.5645
14274TIP3   OH264236   4.723   3.995  12.024  0.0205 -0.3147 -0.7376
14274TIP3    H164237   4.756   4.001  12.114  1.3038 -0.4889 -1.1722
14274TIP3    H264238   4.631   4.022  12.030  0.1257 -0.1835  0.5972
14275TIP3   OH264239   6.662   3.753  14.956 -0.5408  0.4427  0.5108
14275TIP3    H164240   6.608   3.745  14.877 -0.2198  0.8767  0.2522
14275TIP3    H264241   6.659   3.665  14.994 -0.3706  0.1224 -0.1910
14276TIP3   OH264242   5.666   0.132   6.080 -0.3802  0.3947  0.0679
14276TIP3    H164243   5.687   0.089   6.163  0.8522 -0.1867 -0.5173
14276TIP3    H264244   5.570   0.132   6.076 -0.4287 -0.6888  0.9065
14277TIP3   OH264245   4.038   6.028   5.501 -0.2061 -0.4012 -0.3957
14277TIP3    H164246   4.017   6.102   5.444 -1.6667  0.6935  1.4318
14277TIP3    H264247   4.040   5.953   5.442 -0.2101  0.8431 -2.0856
14278TIP3   OH264248   2.557   3.808   3.426  0.2451  0.1629  0.2282
14278TIP3    H164249   2.548   3.792   3.332 -0.4271  0.1258  0.2937
14278TIP3    H264250   2.467   3.818   3.457  0.4346 -0.3601  0.9589
14279TIP3   OH264251   4.072   5.010  16.814  0.0816  1.5607  0.3971
14279TIP3    H164252   4.112   4.995  16.899  0.0824 -1.6615 -0.0783
14279TIP3    H264253   4.142   5.050  16.762  0.2774  2.9414  1.6273
14280TIP3   OH264254   2.656   5.371  16.752  0.8446 -0.1249 -0.5582
14280TIP3    H164255   2.609   5.292  16.780 -0.7699  0.8333 -0.4185
14280TIP3    H264256   2.669   5.422  16.832  2.5010 -0.5254 -0.5365
14281TIP3   OH264257   6.646   0.755  16.584  0.3521 -0.5927  0.0993
14281TIP3    H164258   6.562   0.768  16.629  0.9095  0.3645  0.8983
14281TIP3    H264259   6.642   0.814  16.509  0.7641  0.3376  0.7914
14282TIP3   OH264260   3.167   3.484  16.900  0.0288  0.7045 -0.0093
14282TIP3    H164261   3.232   3.548  16.869 -0.1590  0.4448 -0.9757
14282TIP3    H264262   3.141   3.516  16.986  0.5690  1.4680 -0.1205
14283TIP3   OH264263   6.607   6.746  16.800  0.6290 -0.4142  0.0508
14283TIP3    H164264   6.597   6.671  16.859 -0.7861  0.4503  0.9763
14283TIP3    H264265   6.553   6.814  16.840 -0.8521  0.0477 -2.5375
14284TIP3   OH264266   2.584   6.522   3.952  0.4489  0.0563  0.5081
14284TIP3    H164267   2.547   6.503   4.038  0.4724  1.9950  0.9810
14284TIP3    H264268   2.653   6.586   3.969  0.8706 -0.0031 -0.8908
14285TIP3   OH264269   4.215   4.367   6.551 -0.3792  0.2226 -0.0668
14285TIP3    H164270   4.137   4.357   6.605 -1.0939  2.2052 -0.6450
14285TIP3    H264271   4.200   4.309   6.477 -1.9393  1.4470 -0.7839
14286TIP3   OH264272   0.537   6.235  15.788 -0.1292  0.0056  0.0596
14286TIP3    H164273   0.462   6.215  15.732  0.7060  1.5148 -1.7389
14286TIP3    H264274   0.612   6.201  15.739  0.5175  0.1168  0.9651
14287TIP3   OH264275   1.069   5.294  11.123 -0.6750 -0.2961  0.1511
14287TIP3    H164276   1.008   5.230  11.086 -2.9259  0.7656  1.8175
14287TIP3    H264277   1.110   5.335  11.047 -1.9238 -1.1626 -1.0294
14288TIP3   OH264278   5.700   1.477   1.817  0.1342  0.1815  0.2127
14288TIP3    H164279   5.771   1.456   1.756 -0.3051 -0.3038 -0.1391
14288TIP3    H264280   5.710   1.571   1.833 -1.6039  1.0714 -3.0951
14289TIP3   OH264281   4.365   3.715  13.957 -0.2595  0.1889  0.2819
14289TIP3    H164282   4.342   3.806  13.937  2.5352  0.5838 -1.8613
14289TIP3    H264283   4.456   3.719  13.985  0.5846 -2.0577 -1.7661
14290TIP3   OH264284   4.039   3.704  14.088 -0.5727  0.2812 -0.2374
14290TIP3    H164285   3.960   3.757  14.086 -0.2808  0.7674  0.5125
14290TIP3    H264286   4.023   3.639  14.156 -0.8791 -0.5230 -1.0670
14291TIP3   OH264287   2.288   0.365   4.624  0.0256  0.1504 -0.4099
14291TIP3    H164288   2.255   0.360   4.713  0.8184  0.1209 -0.1103
14291TIP3    H264289   2.215   0.401   4.573  0.2427  2.2613  0.6387
14292TIP3   OH264290   1.619   1.077   1.733 -0.1998  0.2485 -0.1349
14292TIP3    H164291   1.595   1.001   1.679  1.3742  0.4637 -1.1709
14292TIP3    H264292   1.632   1.039   1.821  0.8080 -0.7396 -0.6860
14293TIP3   OH264293   0.312   0.754  13.298  0.2994  0.1916  0.5371
14293TIP3    H164294   0.332   0.802  13.218  1.5632 -2.0553 -0.6099
14293TIP3    H264295   0.238   0.697  13.275  0.4890 -0.2759  1.0361
14294TIP3   OH264296   3.680   2.503   5.666  0.3403  0.3528 -0.0416
14294TIP3    H164297   3.606   2.541   5.619  0.4947 -0.4323 -0.9379
14294TIP3    H264298   3.644   2.424   5.707  0.4638  0.4594  0.2749
14295TIP3   OH264299   6.156   3.706  13.292 -0.1449 -0.4578  0.0524
14295TIP3    H164300   6.219   3.653  13.243 -0.1946 -2.1585  1.7152
14295TIP3    H264301   6.113   3.644  13.351  0.3937  1.4985  2.7281
14296TIP3   OH264302   2.806   5.251  15.572 -0.6029  0.9084 -0.5590
14296TIP3    H164303   2.755   5.323  15.610 -0.0978  1.1909 -0.4205
14296TIP3    H264304   2.880   5.294  15.529 -0.4393  0.4873 -0.6982
14297TIP3   OH264305   1.276   0.122   1.855 -0.1177 -0.0257 -0.1426
14297TIP3    H164306   1.295   0.183   1.927 -0.0209 -0.8711  0.5743
14297TIP3    H264307   1.325   0.157   1.781  1.0731  0.0165  0.6293
14298TIP3   OH264308   6.726   4.561   4.193  0.3729  0.3410  0.7443
14298TIP3    H164309   6.664   4.515   4.136  0.9543 -1.9524  1.8523
14298TIP3    H264310   6.770   4.623   4.135 -0.6839 -0.2814 -0.7842
14299TIP3   OH264311   2.318   6.137  12.703  0.0065  0.2069  0.1779
14299TIP3    H164312   2.261   6.080  12.651  0.4428  1.1784 -1.4433
14299TIP3    H264313   2.326   6.217  12.651  1.5041  0.7452  1.1619
14300TIP3   OH264314   5.643   2.032   2.193  0.1930 -0.4604 -0.0683
14300TIP3    H164315   5.649   2.027   2.288 -0.2887  0.3267  0.0070
14300TIP3    H264316   5.734   2.042   2.164  0.2324  0.6341  0.3928
14301TIP3   OH264317   3.328   0.212  12.707  0.3979  0.4671  0.2403
14301TIP3    H164318   3.392   0.249  12.646 -1.0541  1.1178 -0.9492
14301TIP3    H264319   3.296   0.133  12.663  1.1865 -0.5008  1.3490
14302TIP3   OH264320   3.022   5.474  12.531 -0.4349  0.0931  0.2835
14302TIP3    H164321   3.048   5.542  12.470 -2.1502 -0.0750 -0.7306
14302TIP3    H264322   3.009   5.519  12.614 -0.5035  0.8005 -0.1053
14303TIP3   OH264323   4.134   1.760   0.680  0.3082 -0.4792 -0.0582
14303TIP3    H164324   4.143   1.788   0.771  1.6987 -0.2710 -0.2472
14303TIP3    H264325   4.214   1.711   0.662 -0.0390 -0.6793 -1.1231
14304TIP3   OH264326   1.494   5.185  13.621 -0.8891 -0.2101 -0.3265
14304TIP3    H164327   1.413   5.139  13.599 -1.2519 -0.2556  1.0226
14304TIP3    H264328   1.561   5.117  13.626 -0.9855 -0.3119 -0.4427
14305TIP3   OH264329   2.323   6.441  14.854  0.1626  0.2486 -0.2323
14305TIP3    H164330   2.370   6.477  14.779 -1.4669  1.0837 -0.9070
14305TIP3    H264331   2.369   6.476  14.930  1.3100  0.0946 -0.8292
14306TIP3   OH264332   1.333   6.547   2.283  0.1797 -0.1563 -0.2374
14306TIP3    H164333   1.268   6.617   2.284 -0.3876 -0.6263 -1.4758
14306TIP3    H264334   1.305   6.489   2.212  1.8025 -0.5149 -0.6378
14307TIP3   OH264335   0.531   5.797   4.038 -0.0724  0.5856  0.0659
14307TIP3    H164336   0.457   5.832   3.990 -0.7595  0.4147  0.9658
14307TIP3    H264337   0.542   5.856   4.112  0.7068  0.6197 -0.0695
14308TIP3   OH264338   6.373   2.101   4.864  0.8816  0.1847 -0.1953
14308TIP3    H164339   6.448   2.125   4.809  1.8384  0.0091  0.9704
14308TIP3    H264340   6.376   2.006   4.868  1.4720  0.2296  0.9724
14309TIP3   OH264341   6.164   4.134   3.517  0.1378  0.4190 -0.0775
14309TIP3    H164342   6.234   4.198   3.518  1.6182 -1.1055  2.4386
14309TIP3    H264343   6.097   4.173   3.460  2.0725  2.8953 -0.8318
14310TIP3   OH264344   1.419   1.052   4.380 -0.1547  0.6012  1.1593
14310TIP3    H164345   1.457   1.097   4.304 -0.8846  1.4593  1.2824
14310TIP3    H264346   1.364   1.119   4.422 -0.8047 -0.2448  1.6838
14311TIP3   OH264347   0.244   2.080   1.781 -0.1759 -0.3250 -0.2424
14311TIP3    H164348   0.286   2.164   1.799  0.4400 -1.2132  3.1562
14311TIP3    H264349   0.311   2.015   1.799 -1.1628 -1.6324 -1.0634
14312TIP3   OH264350   3.408   3.260   0.797 -0.3809 -0.1425  0.2438
14312TIP3    H164351   3.467   3.334   0.813  2.9760 -2.0697 -1.9746
14312TIP3    H264352   3.411   3.208   0.877 -1.6339  1.3121  1.2829
14313TIP3   OH264353   0.219   4.079  16.135  0.1733 -0.0269  0.4358
14313TIP3    H164354   0.312   4.075  16.157  0.8546  2.1426 -1.6805
14313TIP3    H264355   0.189   4.162  16.171 -0.4989  0.0774 -0.3361
14314TIP3   OH264356   3.137   0.490   0.038  0.0541 -0.2318  0.0763
14314TIP3    H164357   3.141   0.528   0.126 -0.6804 -0.8820  0.4051
14314TIP3    H264358   3.054   0.441   0.037 -0.3108  0.3658 -1.2172
14315TIP3   OH264359   4.068   4.052  13.903 -0.4768  0.2941  0.4652
14315TIP3    H164360   3.981   4.040  13.864 -0.7490  0.5997  0.9599
14315TIP3    H264361   4.102   4.132  13.863 -0.5488  0.3337  0.4828
14316TIP3   OH264362   6.481   2.382   0.765  0.0542  0.4041 -0.1643
14316TIP3    H164363   6.426   2.457   0.792  1.0365  0.8632  0.6354
14316TIP3    H264364   6.570   2.409   0.788  0.4197 -1.0275  0.1563
14317TIP3   OH264365   2.227   0.572  15.607  0.5684 -0.2742  0.1942
14317TIP3    H164366   2.229   0.636  15.536 -1.1731 -1.1741 -0.7099
14317TIP3    H264367   2.157   0.603  15.665  0.0262 -1.1156 -0.0089
14318TIP3   OH264368   1.227   0.891  12.605  0.3344  0.9670  0.6102
14318TIP3    H164369   1.313   0.880  12.565  0.0896  2.2564 -0.3465
14318TIP3    H264370   1.192   0.970  12.564 -2.9010 -1.4778 -1.9159
14319TIP3   OH264371   1.874   0.524  11.288 -0.3047  0.5794  0.4806
14319TIP3    H164372   1.957   0.558  11.321 -0.4678  1.6947 -0.2201
14319TIP3    H264373   1.888   0.430  11.280  0.5436  0.6132  1.3462
14320TIP3   OH264374   4.937   2.829  14.079 -0.0159  0.3124  0.1783
14320TIP3    H164375   4.924   2.748  14.029 -0.7582  0.6410 -0.1801
14320TIP3    H264376   5.032   2.841  14.082  0.0838 -0.4151 -0.0166
14321TIP3   OH264377   1.399   2.927  15.535  0.5856  0.4141  0.4065
14321TIP3    H164378   1.442   3.013  15.537 -1.4436  1.4991 -0.0777
14321TIP3    H264379   1.309   2.946  15.509  0.1914 -1.9361 -0.1377
14322TIP3   OH264380   2.060   1.404   6.664 -0.3163  0.1915 -0.1529
14322TIP3    H164381   2.141   1.453   6.656 -0.0260 -0.3834 -0.8712
14322TIP3    H264382   2.063   1.364   6.751  0.0931  0.3030 -0.1171
14323TIP3   OH264383   4.793   2.675  16.899 -0.6688 -0.4362 -0.1060
14323TIP3    H164384   4.874   2.724  16.883 -0.6588 -0.4975 -0.2471
14323TIP3    H264385   4.800   2.647  16.990 -1.1199  0.6391  0.2742
14324TIP3   OH264386   6.708   0.895   3.433  0.1978  0.2763 -0.5702
14324TIP3    H164387   6.716   0.910   3.339  0.2387  3.4865 -0.1548
14324TIP3    H264388   6.792   0.923   3.469 -0.0997 -0.1826  0.5286
14325TIP3   OH264389   5.589   3.611  14.516 -0.1085  0.0559 -0.5760
14325TIP3    H164390   5.665   3.554  14.525  0.2068  0.6715  1.0163
14325TIP3    H264391   5.514   3.552  14.517  0.2392 -0.3834  0.4172
14326TIP3   OH264392   2.889   4.566  14.859 -0.3455  0.6222  0.1137
14326TIP3    H164393   2.877   4.508  14.934  1.5425 -0.8826 -0.6653
14326TIP3    H264394   2.815   4.546  14.801 -1.7556  1.7211  1.4481
14327TIP3   OH264395   4.717   0.666  12.776  0.2660  0.2065  0.0603
14327TIP3    H164396   4.714   0.760  12.793 -2.2735  0.6947 -2.3025
14327TIP3    H264397   4.807   0.650  12.748  1.3170  1.4577  2.4526
14328TIP3   OH264398   0.718   5.915  16.176 -0.3535 -0.2136  0.1908
14328TIP3    H164399   0.753   5.833  16.142 -0.4047 -0.7561  1.4000
14328TIP3    H264400   0.661   5.889  16.248 -2.6230  0.7107 -1.1843
14329TIP3   OH264401   4.727   2.432   0.345 -0.7597  0.7702  0.2353
14329TIP3    H164402   4.654   2.463   0.397 -0.3157 -0.3445  1.5733
14329TIP3    H264403   4.691   2.362   0.291 -0.4564 -0.6397  1.8034
14330TIP3   OH264404   5.410   1.644  11.467  0.3969  0.2315 -0.3046
14330TIP3    H164405   5.484   1.610  11.517  0.7277  0.0922 -0.8750
14330TIP3    H264406   5.334   1.630  11.522  0.9047  1.1773  0.6724
14331TIP3   OH264407   5.006   3.551  15.652 -0.5782  0.2622 -0.3751
14331TIP3    H164408   5.084   3.497  15.662 -0.1091  1.1321  0.9724
14331TIP3    H264409   4.967   3.554  15.740 -0.8706  1.6754 -0.5281
14332TIP3   OH264410   2.864   0.962   4.278  0.1517  0.2327 -0.0651
14332TIP3    H164411   2.854   0.877   4.235  3.3522  0.2875 -1.1952
14332TIP3    H264412   2.834   1.026   4.213  0.8420  0.0942 -0.5318
14333TIP3   OH264413   3.666   2.713   3.032  0.1548 -0.4503  0.3340
14333TIP3    H164414   3.730   2.749   3.094  1.5530  1.1483 -1.8930
14333TIP3    H264415   3.590   2.769   3.041 -0.7740 -1.9287  2.4925
14334TIP3   OH264416   6.224   5.433   5.418  0.0770  0.0705 -0.6819
14334TIP3    H164417   6.250   5.410   5.507  0.0075  0.7816 -0.4717
14334TIP3    H264418   6.306   5.446   5.371  0.1202 -0.7996 -0.8625
14335TIP3   OH264419   4.727   2.124   4.323 -0.4706 -0.1429 -0.1744
14335TIP3    H164420   4.704   2.188   4.256  0.0191  0.4522  0.2235
14335TIP3    H264421   4.818   2.141   4.344 -0.0357 -1.5999 -0.7408
14336TIP3   OH264422   2.797   0.270  14.878 -0.0211  0.7905  0.1675
14336TIP3    H164423   2.802   0.342  14.816  0.7378  1.6697  1.2049
14336TIP3    H264424   2.704   0.263  14.899 -0.0107  2.1318  0.7718
14337TIP3   OH264425   3.510   6.527  17.385 -0.2746  0.2387  0.6385
14337TIP3    H164426   3.592   6.491  17.417 -0.3276 -0.1881  0.3031
14337TIP3    H264427   3.484   6.591  17.451 -0.3340 -0.5448  1.3853
14338TIP3   OH264428   4.120   0.098   0.602  0.4079 -0.3663  0.4401
14338TIP3    H164429   4.103   0.131   0.690 -0.0642 -2.9875  1.4344
14338TIP3    H264430   4.214   0.109   0.589  0.0213  3.3097 -0.2674
14339TIP3   OH264431   1.410   4.018   3.499  0.1500  0.5478  0.0732
14339TIP3    H164432   1.414   4.092   3.439  2.1127 -0.4695 -1.1964
14339TIP3    H264433   1.423   4.056   3.586  1.1794  1.7070 -0.5508
14340TIP3   OH264434   6.660   1.510   3.674  0.1150  0.1767  0.0723
14340TIP3    H164435   6.637   1.446   3.606  0.9738 -1.2357  1.0591
14340TIP3    H264436   6.700   1.582   3.626  1.2376 -1.0412 -0.9216
14341TIP3   OH264437   4.514   4.951  13.712  0.2838 -0.4367  0.0083
14341TIP3    H164438   4.574   4.972  13.640 -0.4824 -1.0160 -0.8293
14341TIP3    H264439   4.542   4.865  13.743 -1.1709 -1.5520 -1.5945
14342TIP3   OH264440   3.632   5.187  12.430  0.4329  0.6756  0.8408
14342TIP3    H164441   3.676   5.159  12.510  0.2225  0.0113  0.7277
14342TIP3    H264442   3.683   5.149  12.359 -0.8659 -0.9642  0.7265
14343TIP3   OH264443   3.382   4.399   3.047  0.1369  0.5280 -0.1219
14343TIP3    H164444   3.366   4.492   3.063 -0.3231  0.5730 -0.7867
14343TIP3    H264445   3.374   4.389   2.952  0.5877 -0.1189 -0.1055
14344TIP3   OH264446   3.988   6.464   0.153  0.1577  0.1875 -0.1123
14344TIP3    H164447   4.056   6.481   0.218  1.1755 -1.7025 -0.6038
14344TIP3    H264448   4.035   6.435   0.075 -0.9691  3.0532 -2.0501
14345TIP3   OH264449   4.367   4.412   3.403 -0.3302  0.4830 -0.4785
14345TIP3    H164450   4.313   4.487   3.376 -2.1750 -0.6386 -0.0941
14345TIP3    H264451   4.321   4.336   3.367  0.6804 -0.5759  0.3967
14346TIP3   OH264452   0.961   5.685  12.475  0.1797 -0.1358 -0.3850
14346TIP3    H164453   1.052   5.712  12.491  0.3547 -0.6250 -0.5239
14346TIP3    H264454   0.926   5.752  12.417 -0.7500  2.1792  2.5962
14347TIP3   OH264455   3.823   6.300   1.961 -0.2423  0.0560  0.0436
14347TIP3    H164456   3.822   6.382   1.911  0.3255 -0.6716 -1.2027
14347TIP3    H264457   3.753   6.311   2.025 -0.3825  1.3955 -0.3017
14348TIP3   OH264458   1.026   2.291   3.227 -0.0521  1.1627  0.7277
14348TIP3    H164459   0.992   2.288   3.138  0.1360 -0.2258  0.6797
14348TIP3    H264460   1.095   2.357   3.224  0.4763  0.5888 -0.3605
14349TIP3   OH264461   3.889   2.493   2.696 -0.0352 -0.1777  0.1345
14349TIP3    H164462   3.981   2.516   2.708  0.2292 -0.4014 -1.2891
14349TIP3    H264463   3.852   2.494   2.785  1.3414 -0.1480  0.7300
14350TIP3   OH264464   5.496   6.172   3.271 -0.8919  0.0683  0.1625
14350TIP3    H164465   5.482   6.082   3.299 -0.5881  0.6293  2.3074
14350TIP3    H264466   5.540   6.214   3.345 -0.5143  1.8428 -1.0000
14351TIP3   OH264467   2.335   0.783  14.696  0.2108  0.1141  0.4881
14351TIP3    H164468   2.316   0.702  14.745 -1.8689  0.0623 -0.2764
14351TIP3    H264469   2.354   0.848  14.764  1.1326 -0.8233  1.1517
14352TIP3   OH264470   2.241   3.111   0.077  0.5911  0.2786  0.3103
14352TIP3    H164471   2.151   3.080   0.065  0.5194  1.0987 -1.7176
14352TIP3    H264472   2.294   3.032   0.073 -0.0032 -0.1866  1.2752
14353TIP3   OH264473   0.418   3.376   1.744 -0.7928  0.0553 -0.1450
14353TIP3    H164474   0.379   3.463   1.741  1.0017  0.8631 -2.2685
14353TIP3    H264475   0.490   3.379   1.681  0.6723 -2.3242  1.2462
14354TIP3   OH264476   4.872   2.846   0.119  0.3190 -0.0475 -0.1679
14354TIP3    H164477   4.837   2.902   0.050  0.3553  0.3834  0.1592
14354TIP3    H264478   4.926   2.781   0.073 -0.1100 -0.1135 -0.5886
14355TIP3   OH264479   1.661   2.928  12.213 -0.9597 -0.2460  0.0693
14355TIP3    H164480   1.746   2.944  12.254 -0.9165  0.2861 -0.2110
14355TIP3    H264481   1.629   2.848  12.253 -0.8634  0.1922  1.0356
14356TIP3   OH264482   1.337   1.399   0.083 -0.1056  0.0807 -0.1998
14356TIP3    H164483   1.411   1.430   0.134 -1.7054  0.7634  1.8525
14356TIP3    H264484   1.274   1.472   0.086 -0.4320  0.0186 -2.9165
14357TIP3   OH264485   4.695   3.926  11.761  0.6239 -0.0928  0.2872
14357TIP3    H164486   4.605   3.957  11.773  0.4667 -0.3550 -0.1901
14357TIP3    H264487   4.739   3.948  11.843 -0.3802 -1.7168  1.3184
14358TIP3   OH264488   4.633   4.640   5.702 -0.2608 -0.1101  0.0692
14358TIP3    H164489   4.587   4.602   5.776 -0.9181 -1.7073 -1.0909
14358TIP3    H264490   4.598   4.729   5.694 -1.6789 -0.6088  0.4395
14359TIP3   OH264491   6.179   5.262   3.351 -0.1223  0.1881  0.0335
14359TIP3    H164492   6.118   5.249   3.424  0.5694 -1.2766  0.3945
14359TIP3    H264493   6.172   5.182   3.299  1.3040  0.0894 -0.0528
14360TIP3   OH264494   5.540   1.043   0.639 -0.2341 -0.0767  0.2510
14360TIP3    H164495   5.608   0.983   0.608  0.2504 -0.1352  1.3946
14360TIP3    H264496   5.584   1.128   0.645  0.1263 -0.3640  2.2372
14361TIP3   OH264497   6.185   5.433   1.527  0.4345 -0.5175 -0.0888
14361TIP3    H164498   6.164   5.380   1.450  0.7851 -0.2606 -0.3604
14361TIP3    H264499   6.280   5.441   1.526  0.5565 -1.5359  1.0491
14362TIP3   OH264500   1.290   2.760   2.469 -0.5284  0.1195 -0.7693
14362TIP3    H164501   1.373   2.801   2.448 -0.0711 -0.2571  0.2547
14362TIP3    H264502   1.297   2.735   2.561 -1.7140 -0.0580 -0.7040
14363TIP3   OH264503   1.759   2.783  16.516  0.4880  0.1475 -0.5397
14363TIP3    H164504   1.710   2.702  16.505  2.7233 -1.1123 -1.9944
14363TIP3    H264505   1.832   2.760  16.574  1.4494  0.9436 -1.3908
14364TIP3   OH264506   6.097   4.839   6.802 -0.2641 -0.1157 -0.5788
14364TIP3    H164507   6.185   4.876   6.794 -1.0789  2.1414  0.2642
14364TIP3    H264508   6.077   4.805   6.715  0.7986  0.8715 -1.2282
14365TIP3   OH264509   5.856   0.437   3.101 -0.2664 -0.1657  0.1101
14365TIP3    H164510   5.909   0.507   3.063 -1.8396  0.4862 -0.9837
14365TIP3    H264511   5.766   0.461   3.081 -0.9016 -2.1364  0.3513
14366TIP3   OH264512   5.298   1.586   5.808  0.3879  0.1420  0.3113
14366TIP3    H164513   5.345   1.514   5.765 -0.8619 -2.1157  2.4731
14366TIP3    H264514   5.349   1.605   5.886  0.6082  1.5536 -0.1446
14367TIP3   OH264515   3.078   5.123  15.237 -0.2258  0.0671 -0.0226
14367TIP3    H164516   3.080   5.042  15.288 -2.5360 -0.1892 -0.2238
14367TIP3    H264517   3.083   5.193  15.302 -2.0363 -0.2616  0.5179
14368TIP3   OH264518   4.288   1.023   3.127 -0.3164 -1.0404 -0.7259
14368TIP3    H164519   4.369   1.050   3.083  0.6999  0.4970  1.8928
14368TIP3    H264520   4.253   1.104   3.164 -2.3078 -1.9244 -0.5571
14369TIP3   OH264521   4.778   6.155   5.762 -0.2420  0.0717 -0.0934
14369TIP3    H164522   4.817   6.217   5.824  1.0472 -0.6137 -0.1836
14369TIP3    H264523   4.696   6.129   5.802 -0.1252  0.7659  0.6167
14370TIP3   OH264524   4.041   4.087  11.607  0.4683  0.1209  0.1912
14370TIP3    H164525   4.017   4.171  11.567 -0.8047 -0.3242 -0.0394
14370TIP3    H264526   4.032   4.024  11.536 -0.2467 -0.4520  0.7795
14371TIP3   OH264527   1.704   5.221   5.590 -0.2277 -0.0916 -0.4721
14371TIP3    H164528   1.737   5.309   5.574  0.2892 -0.0240  0.8646
14371TIP3    H264529   1.775   5.176   5.636 -1.3679 -0.4194  1.0686
14372TIP3   OH264530   0.005   4.478   4.454  0.2873  0.2618  0.7451
14372TIP3    H164531  -0.024   4.499   4.365  0.5084 -3.4031 -0.3808
14372TIP3    H264532  -0.073   4.490   4.508  0.0562  2.2151  0.0426
14373TIP3   OH264533   5.524   6.288  12.897 -0.0249 -0.5450 -0.7947
14373TIP3    H164534   5.605   6.238  12.890 -0.3619 -1.3107  0.3528
14373TIP3    H264535   5.528   6.351  12.826  1.0187 -1.3633 -1.4942
14374TIP3   OH264536   5.599   6.728   4.153 -0.2797 -0.1377  0.0869
14374TIP3    H164537   5.658   6.718   4.228 -1.1162 -0.8402  0.6827
14374TIP3    H264538   5.563   6.816   4.163  1.4425  0.7227 -0.8940
14375TIP3   OH264539   6.028   5.575  17.098  0.1843  0.2802  0.2354
14375TIP3    H164540   6.081   5.500  17.073  0.7989  0.7888 -0.0114
14375TIP3    H264541   6.045   5.640  17.030  0.6184  1.0953  1.1036
14376TIP3   OH264542   1.287   1.684  15.613 -0.3215 -0.0440 -0.1359
14376TIP3    H164543   1.306   1.592  15.593 -1.4388 -0.0073 -1.5815
14376TIP3    H264544   1.372   1.722  15.633 -0.0407 -1.7933  2.5061
14377TIP3   OH264545   5.762   3.657   3.506 -0.2212 -0.4933 -0.5895
14377TIP3    H164546   5.712   3.616   3.436  0.2985 -1.0185 -0.6659
14377TIP3    H264547   5.774   3.587   3.571 -0.7018 -0.0116  0.0270
14378TIP3   OH264548   5.933   5.320   0.551 -0.5017  0.4661  0.1994
14378TIP3    H164549   5.940   5.299   0.458 -0.8215 -1.4782  0.5598
14378TIP3    H264550   5.998   5.389   0.566 -1.0606  1.4218 -1.6168
14379TIP3   OH264551   0.175   1.629  11.965 -0.2772 -0.3695  0.1629
14379TIP3    H164552   0.179   1.558  11.901 -1.8954 -0.7747  0.4589
14379TIP3    H264553   0.160   1.585  12.048 -0.9481  0.2906  0.4026
14380TIP3   OH264554   5.355   0.484  15.724 -0.5394 -0.1714 -0.1557
14380TIP3    H164555   5.364   0.573  15.690 -2.8751 -0.4516 -1.8092
14380TIP3    H264556   5.275   0.451  15.682 -0.1216 -2.8164  0.9344
14381TIP3   OH264557   3.431   3.340  14.970 -0.8811  0.6271  0.5780
14381TIP3    H164558   3.350   3.387  14.951 -1.1337 -0.4001 -1.1237
14381TIP3    H264559   3.488   3.360  14.896 -0.3480 -0.3005  0.7224
14382TIP3   OH264560   5.048   5.720   2.948 -0.2400  0.9377  0.1805
14382TIP3    H164561   5.135   5.757   2.966  0.4603 -0.8558  0.6455
14382TIP3    H264562   5.016   5.692   3.033 -1.1636  1.3032 -0.0370
14383TIP3   OH264563   3.687   6.097   2.202 -0.0776  0.1054 -0.3492
14383TIP3    H164564   3.705   6.191   2.199  0.3215  0.0276 -0.4500
14383TIP3    H264565   3.608   6.086   2.149 -0.0946  0.3755 -0.3820
14384TIP3   OH264566   0.995   4.558  13.329 -0.0876 -0.5097 -0.3038
14384TIP3    H164567   0.954   4.629  13.378  0.3635  0.9273 -1.9169
14384TIP3    H264568   1.016   4.596  13.244  1.2359 -2.2489 -0.8200
14385TIP3   OH264569   3.041   0.525  11.201 -0.2878 -0.4828 -0.8232
14385TIP3    H164570   3.014   0.615  11.223 -0.8927 -0.6492 -0.8536
14385TIP3    H264571   2.966   0.471  11.227  1.2021 -1.3777  2.1371
14386TIP3   OH264572   4.557   4.541  15.484  0.2053 -0.5841 -0.4550
14386TIP3    H164573   4.650   4.526  15.501  0.3026  0.7863  0.3683
14386TIP3    H264574   4.539   4.626  15.524 -1.5631 -1.1388  0.0079
14387TIP3   OH264575   4.182   0.785   3.051 -0.5468  0.2550 -0.0769
14387TIP3    H164576   4.228   0.862   3.084 -1.2304 -0.1649  2.0369
14387TIP3    H264577   4.121   0.820   2.986  0.9151  1.1407 -1.0168
14388TIP3   OH264578   0.969   5.655   4.398  0.1788 -0.0057  0.4825
14388TIP3    H164579   0.920   5.624   4.322  0.8022  0.1598 -0.0011
14388TIP3    H264580   1.043   5.595   4.405  2.1855  2.0502 -1.3119
14389TIP3   OH264581   1.666   6.208   5.761  0.5449 -0.2116 -0.1861
14389TIP3    H164582   1.572   6.225   5.757  0.0586 -2.2397  1.2125
14389TIP3    H264583   1.702   6.283   5.807 -0.7184 -0.3740  1.1429
14390TIP3   OH264584   5.187   2.407  13.739 -0.2499  0.4258 -0.2926
14390TIP3    H164585   5.108   2.457  13.761 -0.8748  0.1330 -1.7660
14390TIP3    H264586   5.162   2.355  13.663  0.2465 -2.4982  1.3864
14391TIP3   OH264587   6.024   5.603   5.267 -0.3252 -0.0625  0.2076
14391TIP3    H164588   6.099   5.547   5.249 -0.3176 -0.0314  0.1373
14391TIP3    H264589   5.974   5.602   5.185  0.7603  1.6953 -0.5515
14392TIP3   OH264590   0.666   4.592   5.899 -0.1498 -0.0671 -0.4196
14392TIP3    H164591   0.668   4.681   5.935  1.9562 -0.1063 -0.3546
14392TIP3    H264592   0.697   4.536   5.970  0.9837 -0.5292 -1.2503
14393TIP3   OH264593   1.612   3.027   3.814  0.2283 -0.4477  0.1339
14393TIP3    H164594   1.613   3.117   3.781  0.6930 -0.6777 -0.4844
14393TIP3    H264595   1.524   3.016   3.851  0.9295  1.0918  2.5293
14394TIP3   OH264596   1.934   0.850  12.248  0.5171 -0.6750  0.3329
14394TIP3    H164597   2.021   0.827  12.280  0.4709 -0.9044  0.2964
14394TIP3    H264598   1.938   0.944  12.234  1.4955 -0.9852 -1.8816
14395TIP3   OH264599   2.339   0.194   5.284 -0.8391  0.0072  0.7014
14395TIP3    H164600   2.366   0.272   5.332 -1.2953 -0.0604  1.0816
14395TIP3    H264601   2.263   0.223   5.233 -0.7588 -0.0867  0.5286
14396TIP3   OH264602   1.175   4.369   2.065  0.1206 -0.5863 -0.6728
14396TIP3    H164603   1.212   4.280   2.063  0.6103 -0.4391  0.5860
14396TIP3    H264604   1.099   4.361   2.122 -0.7338 -0.4932 -1.7718
14397TIP3   OH264605   5.092   1.890   4.529  0.2760 -0.0838 -0.1522
14397TIP3    H164606   5.179   1.925   4.547  0.0497  0.8372 -0.8030
14397TIP3    H264607   5.108   1.797   4.509  1.1313  0.1274 -0.4854
14398TIP3   OH264608   4.261   3.490  15.905  0.5080  0.4125  0.5229
14398TIP3    H164609   4.249   3.459  15.815 -0.4248 -0.1571  0.8258
14398TIP3    H264610   4.350   3.465  15.927  0.2761 -0.7282  0.2319
14399TIP3   OH264611   0.027   0.477   6.354  0.3300  0.5693 -0.2843
14399TIP3    H164612  -0.007   0.436   6.434  1.7193  1.2507  0.6842
14399TIP3    H264613  -0.050   0.515   6.313 -0.5154 -0.3407  0.3888
14400TIP3   OH264614   1.709   0.970   4.881  0.1452 -0.4965 -0.2109
14400TIP3    H164615   1.652   0.893   4.886 -0.2658 -0.0957  3.4788
14400TIP3    H264616   1.649   1.044   4.891  1.0086  0.0797  0.8015
14401TIP3   OH264617   5.780   0.630  11.234  0.4793 -0.3819 -0.2820
14401TIP3    H164618   5.791   0.707  11.179 -1.7970  0.7394  0.6802
14401TIP3    H264619   5.745   0.563  11.175 -3.2133  1.1952 -0.1617
14402TIP3   OH264620   6.688   1.128   0.586  0.7580 -0.2386  0.0307
14402TIP3    H164621   6.681   1.162   0.675  1.9809  1.7723 -0.5713
14402TIP3    H264622   6.648   1.041   0.590  1.5277 -0.5444  2.7121
14403TIP3   OH264623   5.015   4.926  12.853 -0.1722 -0.2660  0.2320
14403TIP3    H164624   4.919   4.918  12.852 -0.1438 -0.8521  1.1738
14403TIP3    H264625   5.032   5.003  12.908 -0.1346  0.8997 -1.3358
14404TIP3   OH264626   2.023   1.288   2.664 -0.4128  0.0651 -0.0749
14404TIP3    H164627   2.078   1.226   2.712 -0.9578 -0.6550 -0.3538
14404TIP3    H264628   1.963   1.233   2.615  0.3630  0.7698 -1.8855
14405TIP3   OH264629   5.348   0.467  14.052  0.0587 -0.1073  0.3788
14405TIP3    H164630   5.415   0.473  14.120  0.9695  0.7010 -0.5606
14405TIP3    H264631   5.312   0.379  14.061  1.2893 -0.5783  0.8514
14406TIP3   OH264632   5.501   2.456   6.719 -0.2783  0.0530 -0.8868
14406TIP3    H164633   5.459   2.478   6.636  1.5032  1.8777 -1.3640
14406TIP3    H264634   5.501   2.537   6.769  1.2646 -0.2612 -0.3060
14407TIP3   OH264635   5.978   2.019  13.277 -0.6335 -0.3117  0.5085
14407TIP3    H164636   5.934   1.934  13.278 -0.4225 -0.4242  1.5526
14407TIP3    H264637   6.033   2.018  13.355  0.6560  0.1337 -0.3647
14408TIP3   OH264638   3.507   2.643  14.593  0.8004 -0.2523  0.3422
14408TIP3    H164639   3.438   2.673  14.653  0.3434  0.9942 -0.7518
14408TIP3    H264640   3.583   2.696  14.616  0.6166  0.2474 -0.1646
14409TIP3   OH264641   5.761   1.744   5.837  0.0453  0.3992  0.2158
14409TIP3    H164642   5.801   1.784   5.914 -0.3746 -0.5958  0.9772
14409TIP3    H264643   5.722   1.663   5.870 -1.7098  0.8196 -0.6771
14410TIP3   OH264644   0.255   2.293   2.885  0.2314  0.3359 -0.3461
14410TIP3    H164645   0.242   2.311   2.978 -0.8213  0.0217 -0.4176
14410TIP3    H264646   0.193   2.223   2.865 -0.2510  1.0587 -1.5069
14411TIP3   OH264647   3.408   6.714  13.508 -0.2019  0.0380  0.3121
14411TIP3    H164648   3.500   6.701  13.483  0.4820 -0.9541  3.0292
14411TIP3    H264649   3.412   6.773  13.583 -1.4113 -2.5270  2.5731
14412TIP3   OH264650   0.274   3.524  15.307 -0.3762  0.0938 -0.4134
14412TIP3    H164651   0.314   3.584  15.244 -2.0691  3.5626  1.5003
14412TIP3    H264652   0.187   3.561  15.322 -0.1574 -0.6037  3.7481
14413TIP3   OH264653   6.061   2.677   1.267 -0.4235  0.1831  0.7674
14413TIP3    H164654   6.131   2.736   1.239 -1.3903  0.3391 -1.5120
14413TIP3    H264655   5.980   2.722   1.244 -1.2767 -0.6696  1.9437
14414TIP3   OH264656   2.934   2.565  12.725  0.0808 -0.4376  0.5536
14414TIP3    H164657   2.960   2.493  12.783 -0.8443 -0.4930  0.9291
14414TIP3    H264658   2.852   2.535  12.686 -0.9517  0.8728  1.6228
14415TIP3   OH264659   6.404   2.489   2.425  0.1015  0.2308 -0.3361
14415TIP3    H164660   6.416   2.402   2.387 -0.5956  0.3601 -0.8762
14415TIP3    H264661   6.487   2.508   2.467  0.8548  0.0070 -1.6611
14416TIP3   OH264662   2.441   6.438  14.103  0.1350  0.8079 -0.0860
14416TIP3    H164663   2.510   6.372  14.097 -0.9250 -0.4546  1.0013
14416TIP3    H264664   2.373   6.407  14.044 -0.2917  1.0234  0.2888
14417TIP3   OH264665   2.559   4.913   3.846 -0.0346 -0.2550  0.2284
14417TIP3    H164666   2.508   4.978   3.895  0.6204 -0.1950  0.8412
14417TIP3    H264667   2.641   4.905   3.894  0.1372 -1.0977 -0.1833
14418TIP3   OH264668   0.072   5.129  11.908  0.2223  0.2586 -0.2902
14418TIP3    H164669  -0.020   5.105  11.896  0.1730 -0.7914  1.6466
14418TIP3    H264670   0.074   5.169  11.995  1.7595 -0.8320  0.2132
14419TIP3   OH264671   4.848   5.056  14.703  0.2558  0.0553  0.5716
14419TIP3    H164672   4.922   5.027  14.756 -0.2742 -0.3160  1.1090
14419TIP3    H264673   4.771   5.017  14.744 -0.2480  0.4540  0.0283
14420TIP3   OH264674   4.527   4.147  16.445  0.3062  0.1363 -0.5138
14420TIP3    H164675   4.473   4.078  16.483  0.2224 -0.5218 -1.8026
14420TIP3    H264676   4.465   4.205  16.401  0.5396  0.0724 -0.9273
14421TIP3   OH264677   4.162   2.253  15.642  0.2987 -0.2673 -0.2011
14421TIP3    H164678   4.188   2.216  15.726  1.3252  1.3736  0.2509
14421TIP3    H264679   4.069   2.271  15.651  0.4610  0.1843  0.7318
14422TIP3   OH264680   0.360   1.662   1.979 -0.0019  0.0183 -0.5211
14422TIP3    H164681   0.403   1.642   2.062 -0.0411 -1.0774 -0.7454
14422TIP3    H264682   0.266   1.655   1.999 -0.0405  0.7786 -0.4192
14423TIP3   OH264683   2.071   4.384   5.339 -0.2494 -0.1752 -0.1851
14423TIP3    H164684   2.119   4.466   5.340  0.2850 -0.4838  0.0749
14423TIP3    H264685   1.981   4.409   5.322 -0.6379  0.7413  2.6930
14424TIP3   OH264686   0.476   1.379  13.256  0.7051  0.7673  0.0951
14424TIP3    H164687   0.406   1.417  13.309 -1.3569  0.3175 -2.1313
14424TIP3    H264688   0.464   1.418  13.170  2.4955 -0.2263 -0.6494
14425TIP3   OH264689   4.656   6.183  17.282  0.4394 -0.3599 -0.2314
14425TIP3    H164690   4.567   6.201  17.252  0.1360 -2.3419 -0.6646
14425TIP3    H264691   4.645   6.124  17.357  1.3581 -3.3553 -2.2811
14426TIP3   OH264692   1.106   0.113   3.510 -1.0152  0.3036  0.2736
14426TIP3    H164693   1.156   0.187   3.543 -1.0987  0.7775 -0.6451
14426TIP3    H264694   1.107   0.122   3.415 -0.0368 -1.5093  0.0615
14427TIP3   OH264695   3.635   0.162  14.888 -0.0764 -0.1470 -0.4003
14427TIP3    H164696   3.657   0.137  14.798  1.0536  1.6761 -0.6838
14427TIP3    H264697   3.720   0.170  14.932 -0.4633  1.5440  0.0848
14428TIP3   OH264698   2.495   3.131  12.445  0.6009 -0.2018  0.1245
14428TIP3    H164699   2.558   3.073  12.403  0.4983  0.9869 -1.7806
14428TIP3    H264700   2.414   3.117  12.396  0.1831  0.4383  0.6277
14429TIP3   OH264701   1.233   6.475   1.760 -0.2413 -0.3537 -0.1785
14429TIP3    H164702   1.187   6.559   1.754  0.5117  0.1587  0.8242
14429TIP3    H264703   1.187   6.418   1.699 -1.4650  0.4743 -0.0694
14430TIP3   OH264704   5.031   1.610  16.970 -0.2274  0.4634 -0.0499
14430TIP3    H164705   4.946   1.574  16.944  0.4826 -2.0709  0.8572
14430TIP3    H264706   5.089   1.535  16.974  1.9594  2.0452 -0.0474
14431TIP3   OH264707   2.136   2.203   5.351  0.8261  0.3333 -0.4614
14431TIP3    H164708   2.227   2.189   5.324  0.5314 -1.0910 -0.7675
14431TIP3    H264709   2.124   2.142   5.424  0.1797  0.6886 -0.2693
14432TIP3   OH264710   0.890   3.511  14.659  0.1044  0.4665 -0.8100
14432TIP3    H164711   0.871   3.434  14.713 -0.6437  0.6606 -0.7786
14432TIP3    H264712   0.976   3.493  14.622 -0.1966 -0.5427 -1.0692
14433TIP3   OH264713   3.319   6.592   5.375 -0.1293 -0.3194  0.1241
14433TIP3    H164714   3.235   6.547   5.371 -0.5464  0.3411  1.1487
14433TIP3    H264715   3.297   6.685   5.372  0.4544 -0.1031  1.5699
14434TIP3   OH264716   4.174   4.996   2.436 -0.1237  0.9001 -0.3578
14434TIP3    H164717   4.086   5.032   2.426 -0.8034 -1.1559 -3.3317
14434TIP3    H264718   4.226   5.040   2.369  0.9107  1.4266  0.7602
14435TIP3   OH264719   2.936   3.290   2.206  0.3757 -0.3801 -0.1550
14435TIP3    H164720   2.978   3.297   2.121 -1.7104 -0.7955 -1.2795
14435TIP3    H264721   2.917   3.197   2.216 -2.5429  0.0596 -0.8961
14436TIP3   OH264722   3.438   0.983   4.384  0.6401  0.0486 -0.2687
14436TIP3    H164723   3.436   0.900   4.337  1.6781 -0.1760  0.0489
14436TIP3    H264724   3.367   0.977   4.448 -0.2342  0.0203 -1.2207
14437TIP3   OH264725   0.661   4.493  11.750  0.1561  0.1303 -0.2918
14437TIP3    H164726   0.657   4.531  11.838  2.7359 -0.0640 -0.0041
14437TIP3    H264727   0.679   4.400  11.766 -1.1204 -0.2613 -1.0406
14438TIP3   OH264728   4.320   3.116   6.307 -0.8090  0.0736  0.0558
14438TIP3    H164729   4.382   3.164   6.252 -2.1965  2.6494  0.5408
14438TIP3    H264730   4.363   3.110   6.392 -0.3234 -0.2165 -0.2061
14439TIP3   OH264731   2.390   5.786  15.712  0.1284  0.2301  0.3399
14439TIP3    H164732   2.301   5.789  15.677  0.5201  0.1773 -0.6926
14439TIP3    H264733   2.444   5.757  15.639  1.3878  2.7947  0.1318
14440TIP3   OH264734   3.571   4.486   2.322 -0.1607  0.1855 -0.5698
14440TIP3    H164735   3.624   4.429   2.267  0.3677  0.3585 -0.2429
14440TIP3    H264736   3.482   4.477   2.287  0.2209  0.5676 -1.6887
14441TIP3   OH264737   4.466   1.684   3.312  0.5162  0.5271 -0.0126
14441TIP3    H164738   4.455   1.602   3.263 -0.7915 -0.7247  2.2179
14441TIP3    H264739   4.458   1.659   3.404  0.0731  3.1742  0.7645
14442TIP3   OH264740   1.238   1.023  11.821 -0.4687 -0.1361 -0.1896
14442TIP3    H164741   1.284   1.103  11.843 -1.0421  0.4291 -0.9857
14442TIP3    H264742   1.271   0.958  11.883 -0.9403  1.0150  1.3216
14443TIP3   OH264743   1.735   5.137   5.196 -0.0503  0.2662  0.6832
14443TIP3    H164744   1.802   5.201   5.171 -0.1531 -0.5136 -1.8800
14443TIP3    H264745   1.656   5.189   5.209  0.4857  0.9307  1.4328
14444TIP3   OH264746   3.060   1.697  15.762  0.4414 -0.2209  0.0279
14444TIP3    H164747   3.117   1.621  15.768  0.3972 -0.1971  0.9640
14444TIP3    H264748   3.113   1.764  15.720  0.7886 -0.4914  0.0353
14445TIP3   OH264749   4.990   5.639   2.391  0.0001  0.2067 -0.4739
14445TIP3    H164750   4.962   5.664   2.302  1.2063 -0.1690 -0.9852
14445TIP3    H264751   4.997   5.544   2.388 -2.0702 -0.0269  0.7041
14446TIP3   OH264752   2.169   2.976   3.869  0.5714 -0.3350  0.3177
14446TIP3    H164753   2.108   2.989   3.941  1.3231 -2.0801  1.3257
14446TIP3    H264754   2.176   2.881   3.860  1.5860 -0.1654 -1.1278
14447TIP3   OH264755   5.819   1.137   6.043 -0.1919  0.6107  0.7614
14447TIP3    H164756   5.861   1.165   5.962 -0.4226  0.2837  0.5291
14447TIP3    H264757   5.892   1.122   6.104 -0.0182  0.7974  0.5981
14448TIP3   OH264758   4.287   1.374   1.378 -0.5295  0.6542 -0.3358
14448TIP3    H164759   4.315   1.430   1.306 -0.7970 -0.0679 -1.0065
14448TIP3    H264760   4.209   1.417   1.413  0.8768  2.2869  1.0732
14449TIP3   OH264761   3.074   3.594   0.144 -0.5204  0.5473  0.4014
14449TIP3    H164762   3.079   3.558   0.233  0.2153  0.3453  0.2815
14449TIP3    H264763   3.016   3.532   0.098  0.9735 -0.6949  0.1184
14450TIP3   OH264764   0.306   2.838   1.084 -0.5607 -0.0320  0.3592
14450TIP3    H164765   0.341   2.753   1.110  0.8751  0.9386  1.7623
14450TIP3    H264766   0.315   2.840   0.988  1.1634 -0.7272  0.4783
14451TIP3   OH264767   3.240   4.616   0.946  0.4468 -0.3897  0.0183
14451TIP3    H164768   3.236   4.668   1.027  0.0228 -1.7958  0.9216
14451TIP3    H264769   3.260   4.527   0.975  2.6692 -0.5207 -1.6030
14452TIP3   OH264770   0.280   3.352   0.782  0.9141 -0.5780  0.0913
14452TIP3    H164771   0.253   3.272   0.827 -0.3778 -0.0103  0.3663
14452TIP3    H264772   0.304   3.412   0.851 -1.2277  0.3498  0.1147
14453TIP3   OH264773   3.054   3.783   2.885 -0.1353  0.2500  0.2867
14453TIP3    H164774   3.083   3.847   2.820 -1.8782  0.1143 -0.6891
14453TIP3    H264775   2.967   3.814   2.912  0.3809  0.0829  2.2812
14454TIP3   OH264776   3.779   4.380  12.597 -0.0692  0.0017 -0.6576
14454TIP3    H164777   3.706   4.355  12.654  0.2195 -0.0097 -0.2871
14454TIP3    H264778   3.785   4.308  12.533  1.0020 -1.1154  0.6310
14455TIP3   OH264779   3.207   4.874   3.537  0.1668  0.2070 -0.3474
14455TIP3    H164780   3.271   4.874   3.608 -0.3412  1.3012  0.1417
14455TIP3    H264781   3.123   4.859   3.580 -0.2083  1.3494 -0.6336
14456TIP3   OH264782   2.654   0.345  11.898 -0.0988 -0.3346  0.0576
14456TIP3    H164783   2.730   0.295  11.928  0.1263 -0.8860 -1.3659
14456TIP3    H264784   2.686   0.434  11.889  0.1982 -0.4323  0.1251
14457TIP3   OH264785   5.685   6.011  11.713 -0.0652  0.1243 -0.2372
14457TIP3    H164786   5.636   5.957  11.651  1.0063 -2.1053  0.7532
14457TIP3    H264787   5.775   6.008  11.682  0.3646 -0.4414  0.9914
14458TIP3   OH264788   1.344   3.763   0.624 -0.1911 -0.3902  0.1591
14458TIP3    H164789   1.361   3.688   0.680 -1.8505 -0.1593  1.0167
14458TIP3    H264790   1.333   3.725   0.536 -0.3121 -1.0631  0.4587
14459TIP3   OH264791   2.487   4.436   0.357 -0.2707  0.4027 -0.3187
14459TIP3    H164792   2.456   4.523   0.381 -0.5281  0.2788 -0.2012
14459TIP3    H264793   2.562   4.452   0.299  0.1841  0.7082  0.3403
14460TIP3   OH264794   6.712   6.654  11.008 -0.9033  0.1002 -0.5078
14460TIP3    H164795   6.770   6.729  10.995 -3.0529  2.2640  1.4483
14460TIP3    H264796   6.767   6.578  10.989  3.0631  1.8391  2.5754
14461TIP3   OH264797   3.009   5.734  11.750 -0.2063  0.8485 -0.4343
14461TIP3    H164798   2.926   5.766  11.786  0.8516  2.3245  0.8630
14461TIP3    H264799   2.983   5.680  11.675 -2.2988  1.8663 -0.5407
14462TIP3   OH264800   5.842   2.916  17.246 -0.1064  0.2695  0.4463
14462TIP3    H164801   5.799   2.831  17.249 -2.9567  1.5303 -1.0093
14462TIP3    H264802   5.780   2.976  17.289  1.2839  1.8153  0.4020
14463TIP3   OH264803   1.251   5.543   0.497  0.3219  0.3583 -0.0443
14463TIP3    H164804   1.201   5.473   0.539 -0.8834  0.9723 -0.3885
14463TIP3    H264805   1.185   5.595   0.451  0.7754  3.0668  2.0474
14464TIP3   OH264806   5.471   0.678   2.434  0.1914  0.1994 -0.1104
14464TIP3    H164807   5.407   0.668   2.364  1.2254 -1.4742 -0.8731
14464TIP3    H264808   5.536   0.609   2.418  1.7430  1.2909  1.1101
14465TIP3   OH264809   4.256   3.303  14.992 -0.6461  0.4638 -0.0159
14465TIP3    H164810   4.200   3.235  15.028  1.2248 -1.5362 -0.6865
14465TIP3    H264811   4.297   3.344  15.068 -0.8259 -0.0209  0.3430
14466TIP3   OH264812   2.048   4.754   4.994 -0.2334 -0.5783 -0.4449
14466TIP3    H164813   1.999   4.816   4.940 -0.4852 -1.4085 -1.2055
14466TIP3    H264814   1.985   4.684   5.014  0.5835 -1.6244 -1.3735
14467TIP3   OH264815   6.355   4.782  14.021 -0.4561  0.5173 -0.4018
14467TIP3    H164816   6.357   4.862  14.073  0.5630  1.2005 -1.4190
14467TIP3    H264817   6.448   4.763  14.004 -0.7073 -0.5801 -0.6225
14468TIP3   OH264818   0.006   0.787   6.369  0.2992 -0.1499 -0.0805
14468TIP3    H164819  -0.087   0.792   6.350  0.0557  1.1533  1.2945
14468TIP3    H264820   0.048   0.775   6.283 -1.0891 -0.5145 -0.7328
14469TIP3   OH264821   5.439   3.127   3.468  0.0857  0.3112  0.7089
14469TIP3    H164822   5.388   3.152   3.545 -0.7407  0.7274  0.0451
14469TIP3    H264823   5.520   3.178   3.475 -0.0726  0.5046  1.1877
14470TIP3   OH264824   1.269   5.605  11.915 -0.5059 -0.3175 -0.4134
14470TIP3    H164825   1.332   5.669  11.948 -0.8213  0.9559 -2.1736
14470TIP3    H264826   1.202   5.657  11.871 -0.8744 -1.8547 -1.7519
14471TIP3   OH264827   4.851   0.832  16.866  0.5986 -0.1760 -0.1147
14471TIP3    H164828   4.791   0.797  16.801  1.1093  1.2935 -1.4369
14471TIP3    H264829   4.937   0.826  16.826  0.9265  0.7505  0.4074
14472TIP3   OH264830   2.277   4.180  11.338 -0.2151 -0.2588 -0.0522
14472TIP3    H164831   2.356   4.148  11.382  0.3275 -0.5843 -1.2304
14472TIP3    H264832   2.245   4.105  11.289 -2.3749 -0.7140  1.8693
14473TIP3   OH264833   0.144   3.596   5.542 -0.4091  0.2392  0.3808
14473TIP3    H164834   0.088   3.669   5.514  0.2589  1.8134  2.8278
14473TIP3    H264835   0.207   3.636   5.602  0.9353 -2.1427  0.6632
14474TIP3   OH264836   3.816   0.328   0.044 -0.0879  0.0007 -0.5017
14474TIP3    H164837   3.741   0.269   0.055 -0.5274  0.6045 -0.1911
14474TIP3    H264838   3.777   0.415   0.033  0.5408  0.1822 -1.3573
14475TIP3   OH264839   3.891   2.606  14.426  0.1150  0.5827 -0.1392
14475TIP3    H164840   3.929   2.615  14.513 -0.3138 -0.3370  0.1434
14475TIP3    H264841   3.878   2.512  14.414  0.6235  0.6471 -1.3929
14476TIP3   OH264842   0.220   3.901   2.523 -0.0592  0.5673 -0.0627
14476TIP3    H164843   0.245   3.983   2.480  1.2920 -0.2739 -0.9438
14476TIP3    H264844   0.302   3.862   2.551 -0.8169  0.5396  2.3740
14477TIP3   OH264845   5.028   2.400  12.669  0.1929  0.4469 -0.3354
14477TIP3    H164846   5.074   2.442  12.596  3.2206 -0.9504  0.6229
14477TIP3    H264847   5.015   2.471  12.732 -0.0227  1.0924 -1.0745
14478TIP3   OH264848   5.780   4.050  11.789  0.0214 -0.2364  0.1362
14478TIP3    H164849   5.715   4.010  11.847  0.4711  0.3386  1.0511
14478TIP3    H264850   5.765   4.007  11.705  0.1358 -1.9695  0.9431
14479TIP3   OH264851   1.930   6.277  16.762 -0.0648 -0.5336  0.2857
14479TIP3    H164852   2.024   6.276  16.779  0.1114 -1.2084 -0.6525
14479TIP3    H264853   1.923   6.301  16.670 -0.9293  2.0025  0.9235
14480TIP3   OH264854   1.988   4.456   1.144 -0.4192  0.6254 -0.7862
14480TIP3    H164855   1.904   4.415   1.123 -0.4975  1.0197 -1.2510
14480TIP3    H264856   1.977   4.548   1.122  0.3564  0.5588 -1.5082
14481TIP3   OH264857   4.651   0.525   0.046 -0.1609 -0.3527  0.2214
14481TIP3    H164858   4.587   0.457   0.064 -0.8569  0.0974 -0.5128
14481TIP3    H264859   4.605   0.589  -0.008  0.2642  1.0398  1.4074
14482TIP3   OH264860   6.756   6.226  16.154 -0.5187  0.4837 -0.3037
14482TIP3    H164861   6.754   6.155  16.219  1.4041  0.6918  0.0241
14482TIP3    H264862   6.708   6.297  16.196  1.1861  0.8202  1.2036
14483TIP3   OH264863   3.269   4.664   6.558  0.2916 -0.1130 -0.4477
14483TIP3    H164864   3.186   4.622   6.537 -0.1534  0.6812 -0.3114
14483TIP3    H264865   3.334   4.595   6.546 -0.5831 -1.3706  1.4415
14484TIP3   OH264866   0.681   5.111   5.249 -0.0179 -0.3765 -0.6169
14484TIP3    H164867   0.602   5.075   5.207 -0.9533  1.0456 -0.1540
14484TIP3    H264868   0.656   5.200   5.273  1.6934  0.0368 -0.2846
14485TIP3   OH264869   6.386   4.839   3.908 -0.0938  0.1425  0.3315
14485TIP3    H164870   6.356   4.829   3.999 -3.8328 -1.1555 -0.8644
14485TIP3    H264871   6.376   4.751   3.870 -2.2228  1.3256 -2.1984
14486TIP3   OH264872   5.609   0.027  14.309  0.0751  0.4919  0.3187
14486TIP3    H164873   5.637   0.103  14.258  1.6752 -0.9053 -1.0282
14486TIP3    H264874   5.529  -0.003  14.266  1.3334 -0.5921 -1.3826
14487TIP3   OH264875   6.649   3.855  14.665 -0.2343  0.2800  0.6849
14487TIP3    H164876   6.722   3.801  14.637  1.7134  2.8040  0.5715
14487TIP3    H264877   6.590   3.858  14.589  0.7970  0.2473 -0.1326
14488TIP3   OH264878   5.245   4.417   5.086 -1.0011 -0.0603 -0.4361
14488TIP3    H164879   5.241   4.475   5.163 -1.9577 -0.1173 -0.4350
14488TIP3    H264880   5.232   4.329   5.122  0.3442 -0.2806 -0.4508
14489TIP3   OH264881   5.664   1.333  12.512 -0.6418 -0.1235 -0.2442
14489TIP3    H164882   5.738   1.324  12.572  1.1010 -3.4465 -2.6033
14489TIP3    H264883   5.594   1.282  12.553 -0.0470 -0.9137 -0.1953
14490TIP3   OH264884   0.768   3.674   0.812 -0.6183 -0.1190 -0.4186
14490TIP3    H164885   0.857   3.696   0.786 -0.2536  1.0466  1.5357
14490TIP3    H264886   0.714   3.745   0.777 -0.5060  0.0912 -0.1723
14491TIP3   OH264887   0.414   2.220   4.112 -0.1560  0.3014  0.3601
14491TIP3    H164888   0.441   2.141   4.159  0.4289 -0.0661 -0.5637
14491TIP3    H264889   0.486   2.282   4.124 -0.8247  0.8892  1.4885
14492TIP3   OH264890   0.380   1.524   0.611  0.2164  0.0970  0.4815
14492TIP3    H164891   0.413   1.434   0.618 -1.8770 -0.6911  0.8398
14492TIP3    H264892   0.346   1.530   0.522 -0.3456  0.2768  0.7077
14493TIP3   OH264893   2.274   3.780  13.997 -0.2120  0.1837  0.0150
14493TIP3    H164894   2.274   3.731  14.079  1.0837  1.6723  0.9699
14493TIP3    H264895   2.298   3.869  14.022 -0.5913  0.8716 -1.8883
14494TIP3   OH264896   2.635   6.423   5.858 -0.2345 -0.4385  0.3356
14494TIP3    H164897   2.654   6.385   5.773  0.0802 -0.4608  0.4146
14494TIP3    H264898   2.664   6.357   5.921 -3.5869 -2.0022  0.4937
14495TIP3   OH264899   3.913   3.117   4.793 -0.2817  0.1464  0.4770
14495TIP3    H164900   4.006   3.096   4.781  0.0603  1.6055  0.4184
14495TIP3    H264901   3.880   3.048   4.850  0.3715 -1.4827 -1.0063
14496TIP3   OH264902   5.823   2.143   4.822  0.0382 -0.1523 -0.3597
14496TIP3    H164903   5.809   2.237   4.831 -0.3854 -0.3786  1.9076
14496TIP3    H264904   5.884   2.121   4.892  0.2590 -1.5560 -0.9631
14497TIP3   OH264905   4.953   2.257  13.626  0.1727  0.1786 -0.7678
14497TIP3    H164906   4.941   2.283  13.535  0.8538  1.0722 -0.6229
14497TIP3    H264907   4.945   2.339  13.675 -1.4007 -0.4514  0.1209
14498TIP3   OH264908   5.536   6.325   0.939 -0.6953 -0.6518  0.2958
14498TIP3    H164909   5.601   6.280   0.886 -0.7028  0.0752 -0.3634
14498TIP3    H264910   5.481   6.371   0.875 -0.4373  0.6025  0.9393
14499TIP3   OH264911   0.579   4.314   3.597 -0.2153 -0.0004  0.3394
14499TIP3    H164912   0.644   4.247   3.577 -0.0292 -0.0648  1.1248
14499TIP3    H264913   0.627   4.381   3.645 -0.1542  1.2488 -1.3837
14500TIP3   OH264914   6.544   1.402   5.853 -0.0310 -0.0388 -0.1137
14500TIP3    H164915   6.518   1.452   5.930  0.1013 -1.0456  0.6148
14500TIP3    H264916   6.487   1.433   5.783  0.3747  1.4368  0.1924
14501TIP3   OH264917   1.799   4.996   3.057 -0.2155  0.6232 -0.3387
14501TIP3    H164918   1.728   5.034   3.108 -0.1166 -0.4076  0.6285
14501TIP3    H264919   1.866   4.974   3.123  0.1711 -0.1821 -0.9827
14502TIP3   OH264920   2.676   0.519   2.223  0.7067  0.1971 -0.0753
14502TIP3    H164921   2.756   0.469   2.241  0.6719  0.2171  0.1395
14502TIP3    H264922   2.636   0.475   2.148  1.0678  0.3591 -0.3724
14503TIP3   OH264923   2.055   4.734   4.300  0.7947 -0.4569  0.2479
14503TIP3    H164924   2.096   4.654   4.267  0.0434 -0.8153  0.1549
14503TIP3    H264925   2.010   4.771   4.225  0.4355 -0.4006  0.4877
14504TIP3   OH264926   3.408   2.963  14.706  0.3544 -0.0838 -0.0445
14504TIP3    H164927   3.450   2.933  14.786  0.8841  1.1258  0.1375
14504TIP3    H264928   3.349   2.891  14.682 -0.8821  0.1053  2.1884
14505TIP3   OH264929   5.457   2.822   5.451 -0.4016 -0.8141  0.9166
14505TIP3    H164930   5.518   2.750   5.434  1.6594  0.5800  1.9562
14505TIP3    H264931   5.475   2.886   5.381 -0.6721 -0.3753  1.2440
14506TIP3   OH264932   6.263   4.376  14.951 -0.6024  0.2600 -0.1113
14506TIP3    H164933   6.347   4.390  14.995 -1.3801  0.1539  1.4488
14506TIP3    H264934   6.287   4.350  14.862  1.0963 -2.0537  0.9103
14507TIP3   OH264935   2.340   0.483   2.074 -0.0902 -0.5705 -0.0502
14507TIP3    H164936   2.263   0.499   2.020  0.9909  1.4071 -1.0920
14507TIP3    H264937   2.389   0.416   2.025 -0.4018 -0.7467 -0.1294
14508TIP3   OH264938   3.723   1.065  14.824 -0.3248 -0.0116 -0.4287
14508TIP3    H164939   3.647   1.009  14.843  0.7391 -1.3180  0.1267
14508TIP3    H264940   3.701   1.149  14.865 -0.7144 -0.9187  1.3279
14509TIP3   OH264941   5.643   3.794  13.731 -0.7466 -0.6477  0.6123
14509TIP3    H164942   5.704   3.857  13.693 -1.0228 -1.0462 -0.5349
14509TIP3    H264943   5.680   3.772  13.817 -1.2069  1.8659  1.5363
14510TIP3   OH264944   6.458   5.092  10.657 -0.7511  0.0658 -0.1548
14510TIP3    H164945   6.550   5.068  10.655 -0.4166  1.2297  0.2897
14510TIP3    H264946   6.417   5.026  10.712  0.0081  0.1090  0.4820
14511TIP3   OH264947   4.790   6.504   4.794 -0.7483  0.1436 -1.1654
14511TIP3    H164948   4.876   6.464   4.784  1.1047  3.0367  1.3907
14511TIP3    H264949   4.793   6.581   4.737 -1.3591  0.6606 -0.5084
14512TIP3   OH264950   5.097   4.634  16.151 -0.1648 -0.6702  0.1347
14512TIP3    H164951   5.021   4.659  16.204  0.5026  0.8881  0.4209
14512TIP3    H264952   5.171   4.637  16.212  0.4947  0.3188 -0.6804
14513TIP3   OH264953   1.409   2.406  11.424 -0.5540  0.1720 -0.1594
14513TIP3    H164954   1.498   2.427  11.394 -0.7722  1.1454 -0.1518
14513TIP3    H264955   1.395   2.315  11.396  0.5033 -0.0526 -0.0118
14514TIP3   OH264956   2.238   3.397  11.796  0.9909  0.3150 -0.6785
14514TIP3    H164957   2.218   3.364  11.883 -1.1802 -1.7369 -1.8339
14514TIP3    H264958   2.321   3.354  11.772  0.4324 -0.9281 -0.4610
14515TIP3   OH264959   0.715   1.393  12.427  0.7722 -0.5693  0.2305
14515TIP3    H164960   0.793   1.426  12.383  1.4684 -0.3409  1.5916
14515TIP3    H264961   0.748   1.326  12.487 -0.3465 -2.0727 -0.7486
14516TIP3   OH264962   0.530   4.451  12.829  0.0798  0.1435 -0.7089
14516TIP3    H164963   0.516   4.528  12.773 -0.0345  0.3373 -0.4134
14516TIP3    H264964   0.624   4.433  12.820 -0.1164 -0.4598 -1.7791
14517TIP3   OH264965   6.487   6.688   1.834 -0.2974  0.0662 -0.2105
14517TIP3    H164966   6.480   6.765   1.778 -1.3450  0.3214  0.2446
14517TIP3    H264967   6.577   6.692   1.869 -0.3958  1.1877 -0.0374
14518TIP3   OH264968   6.322   2.834   2.304  0.0309  1.3996 -0.1011
14518TIP3    H164969   6.361   2.895   2.367  0.4864  1.2797 -0.2607
14518TIP3    H264970   6.231   2.862   2.297 -0.4924  0.3789  1.8873
14519TIP3   OH264971   4.325   1.219  10.606 -0.6388 -0.2671 -0.1755
14519TIP3    H164972   4.264   1.155  10.642 -1.6359  0.0407 -1.2829
14519TIP3    H264973   4.412   1.182  10.626 -1.0889  0.0044  2.6947
14520TIP3   OH264974   0.769   3.128   1.599  0.4769  0.7687 -0.0500
14520TIP3    H164975   0.734   3.209   1.562  0.0182  1.5304  1.9095
14520TIP3    H264976   0.700   3.096   1.657 -0.1181 -2.1056 -2.1273
14521TIP3   OH264977   5.185   2.613   4.002 -0.6578  0.6283  0.3441
14521TIP3    H164978   5.255   2.560   3.964  0.1110  0.8285  1.4295
14521TIP3    H264979   5.115   2.551   4.021  0.5982 -0.2494  2.4963
14522TIP3   OH264980   5.943   0.399   0.568  0.1881  0.7995  0.0587
14522TIP3    H164981   5.973   0.490   0.572  1.0686  0.4639  1.9518
14522TIP3    H264982   5.874   0.394   0.635  0.5024 -0.0424  0.3296
14523TIP3   OH264983   5.401   3.494   0.598  0.1954  0.1451  0.2866
14523TIP3    H164984   5.363   3.410   0.573  0.7334  0.2176 -0.8475
14523TIP3    H264985   5.484   3.472   0.640  0.9461  0.1251 -1.1452
14524TIP3   OH264986   1.176   4.289   5.031  0.1796  0.6070  0.0462
14524TIP3    H164987   1.103   4.337   5.070 -1.2703 -1.7580  0.4419
14524TIP3    H264988   1.196   4.220   5.095  0.1533 -1.1440 -1.7338
14525TIP3   OH264989   3.050   6.138   0.422  0.1423 -0.7654 -0.3658
14525TIP3    H164990   3.125   6.192   0.445  0.7632 -2.2339  1.2861
14525TIP3    H264991   3.082   6.080   0.353  0.4242 -1.1367  0.0734
14526TIP3   OH264992   2.340   0.549   6.345 -0.3996  0.7720  0.0279
14526TIP3    H164993   2.391   0.625   6.371  1.2025 -0.0774 -0.5197
14526TIP3    H264994   2.384   0.475   6.387 -0.7682 -0.0581 -0.9994
14527TIP3   OH264995   2.545   0.798   1.137 -0.7031  0.5649  0.0199
14527TIP3    H164996   2.504   0.850   1.068 -0.2295  0.1072 -0.6255
14527TIP3    H264997   2.512   0.709   1.123  0.3771  0.2169 -0.4246
14528TIP3   OH264998   6.496   2.129   4.024 -0.9973 -0.1062  0.1520
14528TIP3    H164999   6.591   2.124   4.018 -1.0987 -4.2308 -1.0901
14528TIP3    H265000   6.474   2.072   4.098 -2.5025 -0.6332 -0.6551
14529TIP3   OH265001   3.206   4.532   0.282  0.1119 -0.0285  0.3852
14529TIP3    H165002   3.176   4.445   0.256  0.4314 -0.3696  1.1398
14529TIP3    H265003   3.293   4.518   0.319  0.3766  0.6811  0.0499
14530TIP3   OH265004   2.173   3.107  16.748  0.7293 -0.0565  0.3200
14530TIP3    H165005   2.174   3.041  16.680  0.7893 -0.8906  1.1101
14530TIP3    H265006   2.260   3.147  16.744  0.2892  0.8568 -0.9624
14531TIP3   OH265007   1.045   5.197   5.855 -0.0751  0.2296 -0.3264
14531TIP3    H165008   1.117   5.135   5.839 -0.7258 -0.7811  0.5285
14531TIP3    H265009   1.086   5.283   5.847  1.5656 -0.3070  1.3888
14532TIP3   OH265010   6.392   6.698   2.974 -0.3022 -0.5518  0.1469
14532TIP3    H165011   6.451   6.641   2.925  2.0253  0.4024  1.6664
14532TIP3    H265012   6.336   6.738   2.907  2.4456  0.3890 -1.7738
14533TIP3   OH265013   6.530   4.359  13.925  0.4552  0.1486 -0.2197
14533TIP3    H165014   6.473   4.436  13.924 -0.0326 -0.2135 -0.3145
14533TIP3    H265015   6.472   4.286  13.906  0.7436 -0.3675  0.8308
14534TIP3   OH265016   1.280   2.418  16.887 -0.7316 -0.3266  0.5092
14534TIP3    H165017   1.192   2.441  16.919 -0.7097  1.2636 -0.5239
14534TIP3    H265018   1.300   2.483  16.821  0.9638 -1.0950  0.2168
14535TIP3   OH265019   0.898   3.720  15.290  0.1892 -0.0742 -0.1138
14535TIP3    H165020   0.884   3.711  15.384  1.1855 -1.6384 -0.0760
14535TIP3    H265021   0.993   3.729  15.281  0.4410 -2.6779 -1.0783
14536TIP3   OH265022   5.133   4.150  12.746 -0.2577 -0.0532  0.1826
14536TIP3    H165023   5.057   4.136  12.803 -0.6276  0.9756 -0.0247
14536TIP3    H265024   5.207   4.156  12.806 -0.5314  0.2149  0.4961
14537TIP3   OH265025   4.035   2.384   1.515  0.4193  0.0391 -0.1414
14537TIP3    H165026   4.014   2.354   1.604  1.0086 -0.5621 -0.1909
14537TIP3    H265027   4.107   2.446   1.527  0.1469  0.3574 -0.1554
14538TIP3   OH265028   3.717   2.774   2.745 -0.7057  0.3258 -0.8180
14538TIP3    H165029   3.724   2.745   2.836  0.6921 -0.8215 -1.2533
14538TIP3    H265030   3.697   2.694   2.696 -2.2674  1.0667 -1.4550
14539TIP3   OH265031   0.160   1.639   5.249 -0.0431 -0.3790 -0.1879
14539TIP3    H165032   0.115   1.676   5.172 -0.0786  0.3443  0.1670
14539TIP3    H265033   0.247   1.616   5.217  0.1532  0.4903 -0.3133
14540TIP3   OH265034   0.768   2.396   3.762 -0.3445 -0.7881 -0.3079
14540TIP3    H165035   0.854   2.357   3.780 -0.6890 -0.0806  3.9965
14540TIP3    H265036   0.706   2.325   3.777 -0.6776 -0.0667  2.2289
14541TIP3   OH265037   2.192   0.874   1.423  0.4534 -0.3370  0.0502
14541TIP3    H165038   2.266   0.922   1.387 -0.0354  1.6466  1.4775
14541TIP3    H265039   2.232   0.798   1.465  1.5647  0.0645 -0.2269
14542TIP3   OH265040   4.176   2.910   2.399 -0.2619  0.1486 -0.4283
14542TIP3    H165041   4.241   2.908   2.469  1.1778  0.8819 -1.6895
14542TIP3    H265042   4.134   2.996   2.408 -1.4040 -0.4893  0.6449
14543TIP3   OH265043   5.092   2.611   0.621 -0.0940 -0.3570  0.3241
14543TIP3    H165044   4.996   2.608   0.624 -0.2206  1.0868 -0.9225
14543TIP3    H265045   5.113   2.602   0.528  0.8232  1.6001  0.2878
14544TIP3   OH265046   3.278   3.836  15.057  0.6017  0.1990 -0.4584
14544TIP3    H165047   3.274   3.752  15.103 -0.4247 -0.0240 -0.9437
14544TIP3    H265048   3.237   3.898  15.118  1.0278  0.2840 -0.2544
14545TIP3   OH265049   4.328   4.004  12.455  0.0497  0.2471  0.1523
14545TIP3    H165050   4.253   3.968  12.502 -0.4970  0.1508 -0.7948
14545TIP3    H265051   4.346   4.087  12.500 -0.0931 -0.1239  0.9074
14546TIP3   OH265052   0.769   5.214  15.378 -0.4304  0.6812 -0.4531
14546TIP3    H165053   0.838   5.169  15.425  0.8525  1.3515 -1.6253
14546TIP3    H265054   0.711   5.144  15.348  0.4858 -0.0315 -0.6112
14547TIP3   OH265055   1.475   0.770  11.002  0.2042 -0.1802  0.0197
14547TIP3    H165056   1.524   0.720  10.937  0.6162 -1.5310  1.2986
14547TIP3    H265057   1.496   0.862  10.984  0.5823 -0.5441 -1.4959
14548TIP3   OH265058   5.628   3.318   2.607 -0.2224 -0.5591 -0.3696
14548TIP3    H165059   5.643   3.371   2.529 -0.6161 -0.5779 -0.4620
14548TIP3    H265060   5.537   3.337   2.631  0.6835  1.5934  1.7116
14549TIP3   OH265061   0.956   2.132   4.308 -0.6589 -0.4145  0.2677
14549TIP3    H165062   0.864   2.147   4.288 -0.2065  0.8884 -1.0589
14549TIP3    H265063   0.955   2.077   4.386 -2.5450  0.0258  0.6059
14550TIP3   OH265064   5.946   3.102  15.209  0.2185  0.2513 -0.2495
14550TIP3    H165065   6.036   3.107  15.175  0.0520  1.2301 -0.5839
14550TIP3    H265066   5.899   3.046  15.148  0.7035 -0.6721  0.1919
14551TIP3   OH265067   4.337   0.992   4.593 -0.0944 -0.2767  0.0053
14551TIP3    H165068   4.368   0.996   4.684 -0.6043 -2.2657  0.3177
14551TIP3    H265069   4.242   1.002   4.601 -0.4304 -2.8324  0.0043
14552TIP3   OH265070   0.547   2.238   1.022  0.1004  0.1156 -0.7650
14552TIP3    H165071   0.549   2.155   1.069 -0.4959  0.5166 -0.0087
14552TIP3    H265072   0.469   2.231   0.966 -0.5494  0.5499  0.0570
14553TIP3   OH265073   0.598   6.503  12.757 -0.8303  0.0887 -0.4153
14553TIP3    H165074   0.581   6.564  12.685  0.9440  1.1416 -0.0063
14553TIP3    H265075   0.583   6.416  12.719 -2.1741  0.6920 -1.3680
14554TIP3   OH265076   3.318   6.461   2.858 -0.3275  0.4279 -0.1188
14554TIP3    H165077   3.309   6.502   2.944 -0.9989  0.9548 -0.4252
14554TIP3    H265078   3.361   6.527   2.804 -0.0444  0.1555 -0.2303
14555TIP3   OH265079   1.212   1.771  12.078 -0.6080  0.0649  0.5516
14555TIP3    H165080   1.227   1.855  12.034 -1.1477  0.8097  1.7474
14555TIP3    H265081   1.181   1.794  12.165  1.7124 -1.3825  1.8404
14556TIP3   OH265082   5.935   5.407  10.756 -0.3918 -0.6497 -0.5126
14556TIP3    H165083   5.929   5.501  10.738 -0.2132 -0.6975 -0.8278
14556TIP3    H265084   5.970   5.370  10.676  0.1909 -0.8992 -0.1455
14557TIP3   OH265085   6.120   5.048  17.306 -0.2892 -0.8494 -0.0231
14557TIP3    H165086   6.162   4.988  17.368  0.4172 -1.1998 -0.8204
14557TIP3    H265087   6.193   5.083  17.255 -0.5398  1.4544  1.0484
14558TIP3   OH265088   2.647   5.240   1.092  0.0207 -0.5389  0.2160
14558TIP3    H165089   2.626   5.329   1.122  0.0042 -1.4263  3.2022
14558TIP3    H265090   2.562   5.197   1.084  0.0815 -0.5810 -0.2350
14559TIP3   OH265091   0.233   3.567  14.078 -0.4472 -0.1199  0.4754
14559TIP3    H165092   0.214   3.660  14.082  1.4653  0.2794  1.4377
14559TIP3    H265093   0.181   3.529  14.149  0.0682  0.5066  1.2156
14560TIP3   OH265094   4.244   0.053   5.472 -0.6076 -0.0250  0.3134
14560TIP3    H165095   4.195  -0.028   5.485  2.5902 -2.1833  0.1042
14560TIP3    H265096   4.290   0.040   5.389  1.4122  1.1285  1.1626
14561TIP3   OH265097   3.765   1.633   2.906 -0.0179 -1.1239  0.1511
14561TIP3    H165098   3.852   1.594   2.903  0.7770  0.6072 -1.3420
14561TIP3    H265099   3.730   1.621   2.817  0.3325  1.5812 -0.4246
14562TIP3   OH265100   1.535   3.170  12.783  0.1800  0.1015 -0.0640
14562TIP3    H165101   1.600   3.168  12.854  0.8122 -0.5264 -0.6465
14562TIP3    H265102   1.522   3.078  12.760  0.7148  0.3394 -1.4106
14563TIP3   OH265103   1.659   4.373   4.221 -0.3201  0.3279 -0.4645
14563TIP3    H165104   1.669   4.409   4.132 -0.2026  0.3379 -0.4480
14563TIP3    H265105   1.746   4.384   4.260 -0.6969  1.4712  0.0835
14564TIP3   OH265106   1.721   4.390  12.445  0.0766  0.2551 -0.7377
14564TIP3    H165107   1.783   4.438  12.391  0.6629 -0.9296 -1.1602
14564TIP3    H265108   1.658   4.354  12.383 -1.2319  1.6637 -0.2918
14565TIP3   OH265109   0.536   2.163   1.699 -0.7447  0.3733 -0.1824
14565TIP3    H165110   0.514   2.070   1.703  0.8214  0.0108  1.2939
14565TIP3    H265111   0.536   2.191   1.791 -0.4192  1.6295 -0.5545
14566TIP3   OH265112   2.796   5.882   2.079 -0.3111 -0.3631 -0.0882
14566TIP3    H165113   2.770   5.926   1.998 -0.2757  2.2161  1.1678
14566TIP3    H265114   2.746   5.927   2.147  0.5382 -1.6291  1.4495
14567TIP3   OH265115   4.101   6.487   2.252  0.4359  0.0987  0.1962
14567TIP3    H165116   4.071   6.572   2.285  1.6102  0.9431 -0.8045
14567TIP3    H265117   4.083   6.490   2.158 -1.5230 -1.6731  0.4509
14568TIP3   OH265118   1.887   5.251  15.766  0.2563  0.2781  0.2229
14568TIP3    H165119   1.957   5.295  15.718 -0.3376  0.7228 -0.2574
14568TIP3    H265120   1.930   5.211  15.841  1.1039  0.1396 -0.3195
14569TIP3   OH265121   6.757   0.695  11.435 -0.2222  0.0713 -0.2353
14569TIP3    H165122   6.733   0.630  11.369  0.1416  0.2235 -0.5202
14569TIP3    H265123   6.853   0.695  11.435 -0.0354 -2.8868  3.1840
14570TIP3   OH265124   5.211   0.011  15.915  0.4612 -0.0935  0.1614
14570TIP3    H165125   5.278   0.076  15.895 -0.9785  1.7187  0.8716
14570TIP3    H265126   5.154   0.011  15.838 -0.4046  0.6745  0.7808
14571TIP3   OH265127   1.829   5.387  13.315 -0.0554 -0.6312 -0.1616
14571TIP3    H165128   1.833   5.300  13.274 -1.6089 -0.3477 -1.0166
14571TIP3    H265129   1.815   5.447  13.242 -1.6499  0.0160  0.6168
14572TIP3   OH265130   4.287   5.168   2.257 -0.2265  0.2539 -0.8675
14572TIP3    H165131   4.338   5.249   2.267 -1.1323  0.6716  0.7738
14572TIP3    H265132   4.295   5.146   2.165  1.1061  1.5103 -1.0964
14573TIP3   OH265133   5.067   6.285   1.612 -0.0368 -0.2659 -0.1136
14573TIP3    H165134   4.981   6.318   1.637 -0.2639 -0.3720 -0.7377
14573TIP3    H265135   5.098   6.237   1.689  0.3567  1.4665  0.8713
14574TIP3   OH265136   4.227   6.014   0.299  0.3825 -0.3125  0.5220
14574TIP3    H165137   4.234   6.109   0.300 -0.1695 -0.2729  1.2432
14574TIP3    H265138   4.137   5.995   0.324  0.7018 -1.0381  1.1891
14575TIP3   OH265139   2.301   2.126   3.854 -0.0842  0.1970  0.9358
14575TIP3    H165140   2.228   2.083   3.899  0.3506 -0.5887  0.9019
14575TIP3    H265141   2.259   2.182   3.789 -0.6551 -1.5309 -0.2519
14576TIP3   OH265142   2.513   0.819   0.831  0.1254 -0.1033  0.4391
14576TIP3    H165143   2.442   0.831   0.894 -0.0456  1.7742 -0.0501
14576TIP3    H265144   2.478   0.756   0.768 -1.4881  1.4024 -0.2525
14577TIP3   OH265145   6.361   1.456  14.879  0.8162 -0.1926 -0.0208
14577TIP3    H165146   6.447   1.492  14.859  1.4988 -0.3690  2.2404
14577TIP3    H265147   6.368   1.364  14.856  0.7089  0.0984 -1.2553
14578TIP3   OH265148   1.075   3.982  12.379 -0.3733  0.5620 -0.0118
14578TIP3    H165149   0.988   3.980  12.420 -1.1929  1.6530 -1.6219
14578TIP3    H265150   1.070   4.052  12.314  0.8129 -1.1937 -2.1168
14579TIP3   OH265151   0.236   5.352   3.100  0.3282 -0.6375  0.2826
14579TIP3    H165152   0.323   5.313   3.090  0.8673  0.6356 -0.3094
14579TIP3    H265153   0.244   5.439   3.059 -1.0578 -0.2646  0.7387
14580TIP3   OH265154   4.853   5.058  15.072 -0.5224  0.4304  0.0274
14580TIP3    H165155   4.941   5.023  15.085  0.0621  1.4856 -0.8709
14580TIP3    H265156   4.805   5.033  15.150  0.4405 -0.5928  0.3096
14581TIP3   OH265157   3.952   1.104  15.882  0.0763 -0.3714 -0.1177
14581TIP3    H165158   3.957   1.154  15.800  1.2326 -0.6290 -0.2224
14581TIP3    H265159   4.030   1.049  15.881  0.0454 -0.4681  1.1107
14582TIP3   OH265160   1.395   1.200  11.332  0.3837 -0.2447 -0.1724
14582TIP3    H165161   1.350   1.130  11.381  2.2726 -0.9617  0.6510
14582TIP3    H265162   1.378   1.179  11.240 -2.0922  0.3377  0.0755
14583TIP3   OH265163   1.518   1.034  10.952 -0.2373  0.5637 -0.3616
14583TIP3    H165164   1.554   1.109  10.906  2.4462 -1.7472 -2.4180
14583TIP3    H265165   1.466   1.071  11.024  3.0304  4.3387  0.3757
14584TIP3   OH265166   2.251   6.270   3.404 -0.2625 -0.9068  0.0754
14584TIP3    H165167   2.257   6.319   3.486  0.0882 -0.6990 -0.0726
14584TIP3    H265168   2.340   6.271   3.369 -0.2919 -1.4962 -0.0186
14585TIP3   OH265169   5.588   5.235   3.112 -0.5989  0.1406 -0.2619
14585TIP3    H165170   5.500   5.242   3.076  0.0882  0.8421 -1.8694
14585TIP3    H265171   5.630   5.319   3.093  0.7915 -0.5847 -0.5703
14586TIP3   OH265172   5.767   3.210  11.310  0.1877  0.1175  0.2701
14586TIP3    H165173   5.804   3.122  11.301  1.8910  0.9896 -2.7103
14586TIP3    H265174   5.674   3.199  11.289  0.4550 -0.9315 -0.4591
14587TIP3   OH265175   3.869   3.882  11.273  0.0460 -0.5642 -0.2081
14587TIP3    H165176   3.792   3.851  11.226 -1.5653  1.1544  1.1132
14587TIP3    H265177   3.879   3.973  11.245  0.5601 -0.2694  0.8706
14588TIP3   OH265178   3.999   0.512   0.248 -0.3652 -0.5202 -0.5256
14588TIP3    H165179   4.028   0.462   0.325 -0.1211  1.4155  0.7095
14588TIP3    H265180   3.904   0.501   0.246 -0.3452 -0.7803 -0.0921
14589TIP3   OH265181   4.673   0.245   4.805 -0.5605 -0.2486 -0.1193
14589TIP3    H165182   4.729   0.219   4.731  0.6548  0.3087  0.5760
14589TIP3    H265183   4.714   0.324   4.839 -0.5963 -0.9496  1.6673
14590TIP3   OH265184   5.298   6.357   2.085 -0.1045  0.0551 -0.5915
14590TIP3    H165185   5.291   6.261   2.093 -0.2747 -0.0860 -2.1597
14590TIP3    H265186   5.392   6.375   2.093 -0.0795 -0.2296 -0.2053
14591TIP3   OH265187   4.204   2.670  15.831 -0.3514  0.3531  0.6237
14591TIP3    H165188   4.194   2.741  15.894 -0.8726  2.8846 -2.0590
14591TIP3    H265189   4.268   2.704  15.767 -1.1407 -1.2867 -1.1296
14592TIP3   OH265190   5.811   4.789   5.441 -0.3513 -0.3882 -0.2648
14592TIP3    H165191   5.852   4.875   5.430  0.1966 -0.6263 -0.1450
14592TIP3    H265192   5.841   4.759   5.527 -1.2883 -0.3031  0.1025
14593TIP3   OH265193   6.503   0.130   1.410  0.1913 -0.1279 -0.1913
14593TIP3    H165194   6.582   0.091   1.372 -1.0838 -2.8463 -0.2881
14593TIP3    H265195   6.443   0.140   1.336 -0.4313 -0.4314  0.2633
14594TIP3   OH265196   5.379   2.514   5.699  0.2208  0.2837 -0.3788
14594TIP3    H165197   5.374   2.589   5.758  0.1117 -0.6554  0.8396
14594TIP3    H265198   5.294   2.512   5.655  0.0076  0.5310  0.0128
14595TIP3   OH265199   5.556   0.435   4.745 -0.0072 -0.2026 -0.1399
14595TIP3    H165200   5.572   0.404   4.834 -2.7763 -1.0012  0.1701
14595TIP3    H265201   5.630   0.402   4.694 -0.3676 -3.2103  1.1156
14596TIP3   OH265202   4.576   6.574  15.257 -0.2669 -0.1097  0.0065
14596TIP3    H165203   4.609   6.484  15.258  0.6227  0.1897 -0.9087
14596TIP3    H265204   4.485   6.566  15.285 -0.6040 -1.4645 -1.3547
14597TIP3   OH265205   0.214   5.348   2.705  0.1545  0.4308 -0.3621
14597TIP3    H165206   0.143   5.348   2.769  0.6605  3.7431  0.4325
14597TIP3    H265207   0.189   5.414   2.641  1.1635 -0.5153 -1.7903
14598TIP3   OH265208   1.671   4.030  14.692 -0.2089 -0.6756 -0.3154
14598TIP3    H165209   1.736   4.057  14.627  0.4233 -1.1004  0.1354
14598TIP3    H265210   1.684   4.090  14.766  0.1857 -1.2392  0.0786
14599TIP3   OH265211   1.068   0.192  16.848 -0.1561  0.2046 -0.2414
14599TIP3    H165212   1.161   0.208  16.833  0.1219  0.7937  1.8269
14599TIP3    H265213   1.053   0.105  16.811  0.4217  1.2995 -3.4406
14600TIP3   OH265214   6.098   0.918  14.290 -0.5734 -0.5482 -0.6085
14600TIP3    H165215   6.154   0.991  14.264 -1.0492  0.4435  1.0138
14600TIP3    H265216   6.139   0.884  14.370 -0.3677 -2.0721 -1.3218
14601TIP3   OH265217   4.025   3.908   0.662  0.5628  0.0025  0.0298
14601TIP3    H165218   3.963   3.835   0.657  2.4908 -1.7711  0.5801
14601TIP3    H265219   4.112   3.867   0.657  1.7607  2.2149  0.8800
14602TIP3   OH265220   1.581   1.516  16.140 -0.1859 -0.0013 -0.3458
14602TIP3    H165221   1.578   1.505  16.045  0.0023 -1.3132 -0.2253
14602TIP3    H265222   1.630   1.440  16.171  0.5794  0.8955  0.7339
14603TIP3   OH265223   6.326   5.888  16.199 -0.2957 -0.1230 -0.0528
14603TIP3    H165224   6.374   5.934  16.269 -0.3109  1.8719 -1.2771
14603TIP3    H265225   6.393   5.864  16.136 -0.6634  1.5448 -1.1566
14604TIP3   OH265226   1.007   4.054  12.843  0.3271  0.4153  0.6616
14604TIP3    H165227   1.008   4.150  12.833  1.9304  0.3413 -0.3882
14604TIP3    H265228   0.946   4.024  12.775  0.4129  0.6680  0.4693
14605TIP3   OH265229   1.838   6.254   4.624 -0.2835  0.2591 -0.1940
14605TIP3    H165230   1.834   6.293   4.536  0.1329  0.4610 -0.1226
14605TIP3    H265231   1.792   6.317   4.680 -2.3589 -0.8116 -0.5947
14606TIP3   OH265232   1.051   4.270  17.260  0.1980 -0.4654 -0.3149
14606TIP3    H165233   1.056   4.305  17.349  1.9974  1.2639 -1.0255
14606TIP3    H265234   1.052   4.175  17.272 -1.4114 -0.3038  1.5491
14607TIP3   OH265235   1.047   6.237   6.099  0.1646  0.5264  0.5111
14607TIP3    H165236   1.096   6.296   6.156  0.8843  2.5725 -2.0134
14607TIP3    H265237   0.966   6.284   6.079 -0.7680 -0.8157  1.0161
14608TIP3   OH265238   1.115   1.866  12.317  0.4700 -0.2418  0.5441
14608TIP3    H165239   1.059   1.937  12.286 -0.8234 -1.4100  0.1160
14608TIP3    H265240   1.055   1.806  12.362  1.7318 -0.4520  2.0353
14609TIP3   OH265241   3.245   6.018  14.802 -0.4171 -0.1128  0.1503
14609TIP3    H165242   3.281   5.930  14.807 -0.1693 -0.0477 -0.4700
14609TIP3    H265243   3.153   6.005  14.776  0.5645 -0.0729 -4.0307
14610TIP3   OH265244   4.988   5.207  12.646 -0.2926 -0.0974  0.2905
14610TIP3    H165245   5.039   5.177  12.722  0.1643  0.8769  0.3783
14610TIP3    H265246   4.913   5.148  12.643  1.6651 -2.7350 -0.8663
14611TIP3   OH265247   4.614   6.249   4.881 -0.4851 -0.3943  0.0370
14611TIP3    H165248   4.522   6.271   4.895  0.2598  2.5856  0.8690
14611TIP3    H265249   4.638   6.295   4.800  0.5946 -0.0358  0.5453
14612TIP3   OH265250   4.104   4.909  14.592  0.1693 -0.4212  0.4215
14612TIP3    H165251   4.074   4.956  14.670 -2.3349 -1.8624  0.4522
14612TIP3    H265252   4.046   4.938  14.522  1.1599 -0.5532 -0.4795
14613TIP3   OH265253   6.265   3.438  15.817  0.1439  0.7485  0.0655
14613TIP3    H165254   6.255   3.460  15.910 -0.8831  2.3446 -0.3842
14613TIP3    H265255   6.191   3.380  15.799  1.3496 -1.0637  0.6160
14614TIP3   OH265256   2.689   2.289  16.145 -0.1885 -0.3697  0.2155
14614TIP3    H165257   2.697   2.196  16.121 -1.0141 -0.3916 -0.0272
14614TIP3    H265258   2.685   2.335  16.062  1.3701  0.0137  0.3329
14615TIP3   OH265259   2.350   2.696   2.409 -0.0479  0.2710 -0.0861
14615TIP3    H165260   2.423   2.705   2.347  0.4900 -1.3380  0.2556
14615TIP3    H265261   2.376   2.750   2.484  0.9101 -0.4301  0.1105
14616TIP3   OH265262   0.128   6.446   0.959 -0.0173 -0.1744  0.0554
14616TIP3    H165263   0.089   6.416   0.876 -0.6482 -2.0892  0.9949
14616TIP3    H265264   0.219   6.418   0.954  0.8835  2.6000 -1.3096
14617TIP3   OH265265   0.485   1.151   5.002 -0.1138 -0.2662 -0.1485
14617TIP3    H165266   0.552   1.102   5.050  0.0484 -0.4660 -0.5685
14617TIP3    H265267   0.487   1.113   4.914 -1.0458 -0.5391 -0.0621
14618TIP3   OH265268   1.244   2.204   5.980 -0.3545  0.2804 -0.4256
14618TIP3    H165269   1.171   2.234   5.926 -0.2231 -1.2701 -1.5415
14618TIP3    H265270   1.207   2.190   6.067 -0.6807  2.3638 -0.1774
14619TIP3   OH265271   4.329   4.220  11.516 -0.0052  0.3236  0.3578
14619TIP3    H165272   4.286   4.242  11.598 -0.2678 -1.5793  0.7849
14619TIP3    H265273   4.259   4.223  11.451 -0.3064 -0.4375  0.6336
14620TIP3   OH265274   0.520   6.311  12.028  0.0297  0.2319  0.2434
14620TIP3    H165275   0.546   6.346  12.113  1.4921  1.8060 -0.7953
14620TIP3    H265276   0.572   6.360  11.964 -1.4504 -0.4794 -1.6162
14621TIP3   OH265277   1.709   3.656  12.507  0.0840  0.0687  0.2352
14621TIP3    H165278   1.692   3.571  12.547 -0.6627  0.6118  1.1207
14621TIP3    H265279   1.758   3.704  12.575  0.0572  0.5166 -0.0635
14622TIP3   OH265280   3.267   0.741  11.532  0.2997 -0.5591  0.1240
14622TIP3    H165281   3.292   0.698  11.450 -0.6847  0.9669 -1.0513
14622TIP3    H265282   3.262   0.670  11.596  0.9489 -1.8256 -1.1679
14623TIP3   OH265283   6.156   2.152   3.372  0.1293 -0.1171 -0.1514
14623TIP3    H165284   6.212   2.221   3.408 -0.8134 -0.8843  3.1558
14623TIP3    H265285   6.067   2.181   3.392 -0.3823 -1.3224 -0.5898
14624TIP3   OH265286   2.149   3.853  14.671 -0.1254 -0.3899  0.3139
14624TIP3    H165287   2.155   3.915  14.744 -3.4528  1.0026 -0.4007
14624TIP3    H265288   2.239   3.826  14.655  0.9129  0.5479  3.7890
14625TIP3   OH265289   3.048   2.578   3.739  0.3922  0.6617  0.0700
14625TIP3    H165290   3.114   2.599   3.673  1.5016 -1.2837  0.4870
14625TIP3    H265291   3.021   2.663   3.774  3.4851  1.5166  0.6500
14626TIP3   OH265292   0.803   2.631   2.005 -0.2555  0.2865 -0.3368
14626TIP3    H165293   0.894   2.644   1.978  0.1359  0.2729  0.9186
14626TIP3    H265294   0.784   2.706   2.062 -0.5452 -0.4806  0.5936
14627TIP3   OH265295   5.579   3.812   4.698  0.1201  0.0371 -0.0895
14627TIP3    H165296   5.504   3.797   4.641 -0.8437  0.2387  1.0700
14627TIP3    H265297   5.577   3.906   4.716  0.9092  0.1135 -0.3772
14628TIP3   OH265298   4.598   4.421  15.065  0.0771  0.1010  0.0374
14628TIP3    H165299   4.586   4.385  15.153 -1.4551 -2.3323 -1.0676
14628TIP3    H265300   4.691   4.410  15.047  0.4302  0.7316  1.3392
14629TIP3   OH265301   6.503   1.128   5.910 -1.4760  0.9489  0.6776
14629TIP3    H165302   6.522   1.222   5.921 -2.1626  1.0765  0.7821
14629TIP3    H265303   6.575   1.096   5.855 -0.5127  1.2592  1.6968
14630TIP3   OH265304   3.518   1.095  11.692 -0.1793  0.8087  0.4763
14630TIP3    H165305   3.581   1.091  11.763 -0.0416 -0.5114  0.3114
14630TIP3    H265306   3.559   1.046  11.621 -0.4889  1.7538 -0.3825
14631TIP3   OH265307   2.501   4.166   0.801 -0.0030 -0.0544 -0.4981
14631TIP3    H165308   2.577   4.224   0.789 -0.6753  1.3152  1.3912
14631TIP3    H265309   2.539   4.078   0.804  1.7546  0.6766  1.7603
14632TIP3   OH265310   4.978   0.269  15.348  0.3685  0.1744 -0.1086
14632TIP3    H165311   5.052   0.275  15.287  0.5803  1.5199  0.2564
14632TIP3    H265312   4.925   0.347  15.330 -0.7274 -0.5297 -0.0370
14633TIP3   OH265313   6.661   1.952   1.123  0.4027 -0.3612 -0.0332
14633TIP3    H165314   6.585   1.945   1.066  0.6723  0.1110 -0.4665
14633TIP3    H265315   6.638   2.022   1.185 -0.1724 -1.3535  0.9044
14634TIP3   OH265316   5.163   5.021   0.622  0.2490  0.2889 -0.3461
14634TIP3    H165317   5.106   5.046   0.550 -0.9393  0.7212  0.7115
14634TIP3    H265318   5.132   4.934   0.647  0.0987  0.4865  0.1704
14635TIP3   OH265319   1.540   6.386   5.024  0.5722 -0.1828  0.0552
14635TIP3    H165320   1.560   6.477   5.001  0.2790  0.0701  0.8044
14635TIP3    H265321   1.459   6.390   5.074  0.2653 -0.9167 -0.3568
14636TIP3   OH265322   5.240   4.366  15.080  0.3760  0.0345 -0.1572
14636TIP3    H165323   5.206   4.394  14.995  1.1397 -2.2406 -1.2694
14636TIP3    H265324   5.170   4.386  15.142 -0.8907  0.1551 -1.5887
14637TIP3   OH265325   2.836   1.734   5.944  0.1901  0.4335  0.1401
14637TIP3    H165326   2.868   1.650   5.976 -0.6409  0.8102  2.0867
14637TIP3    H265327   2.747   1.715   5.912  0.9509  0.0929 -1.9650
14638TIP3   OH265328   0.634   6.601   2.324 -0.6059  0.9284  0.5954
14638TIP3    H165329   0.542   6.577   2.311 -0.2469  0.7138 -2.1000
14638TIP3    H265330   0.677   6.576   2.242  2.1060 -0.0467  2.1936
14639TIP3   OH265331   1.296   2.618   1.032 -0.0764 -0.2957  0.1275
14639TIP3    H165332   1.214   2.596   1.077 -0.0932  1.2149  0.8856
14639TIP3    H265333   1.297   2.713   1.026  1.2886 -0.3127 -0.5364
14640TIP3   OH265334   2.246   4.527   0.685 -0.0814 -0.2543  0.3695
14640TIP3    H165335   2.206   4.457   0.737  0.7130 -0.0130  1.3245
14640TIP3    H265336   2.337   4.528   0.712  0.6379 -0.8452 -1.8426
14641TIP3   OH265337   0.993   3.001  13.348 -0.2715  0.7979  0.3014
14641TIP3    H165338   1.041   2.950  13.282  0.3460  2.4929 -0.6066
14641TIP3    H265339   0.942   2.935  13.395 -0.2297 -0.5626 -1.4235
14642TIP3   OH265340   5.324   4.944   3.594 -0.3258 -0.1152  0.4239
14642TIP3    H165341   5.250   4.998   3.566 -1.6115 -1.4194  1.1773
14642TIP3    H265342   5.361   4.991   3.668  1.8223  2.2998 -1.9456
14643TIP3   OH265343   0.806   0.114   1.182  0.1783 -0.4627  0.7067
14643TIP3    H165344   0.871   0.045   1.168 -0.1473 -0.7839  0.7672
14643TIP3    H265345   0.733   0.070   1.224 -0.3782 -0.2552 -0.0319
14644TIP3   OH265346   6.562   3.968  15.884 -0.1029 -0.2628 -0.2799
14644TIP3    H165347   6.472   3.959  15.852 -0.5368  2.8308 -0.1779
14644TIP3    H265348   6.612   3.998  15.809  0.0532  1.5293  0.4972
14645TIP3   OH265349   4.512   0.698  14.556 -0.1508  0.0647 -0.0541
14645TIP3    H165350   4.467   0.697  14.471  0.6969  0.2615 -0.5091
14645TIP3    H265351   4.444   0.672  14.619 -1.1972  1.4174 -0.5870
14646TIP3   OH265352   0.928   4.034   1.429  0.2363 -0.6067  0.4845
14646TIP3    H165353   1.009   4.078   1.404  0.5126 -1.2811  0.1659
14646TIP3    H265354   0.936   3.947   1.391 -1.4632 -0.1070 -1.1482
14647TIP3   OH265355   3.945   0.583   4.659  0.0581  0.7892  0.0524
14647TIP3    H165356   3.973   0.606   4.571  1.6054 -0.3563  0.2009
14647TIP3    H265357   4.026   0.556   4.704 -1.0661 -1.4669  0.9140
14648TIP3   OH265358   1.372   1.683   4.908  0.1479 -0.4257 -0.3232
14648TIP3    H165359   1.432   1.712   4.839 -0.5929  0.5783 -0.5827
14648TIP3    H265360   1.326   1.608   4.869  1.3471 -1.3190 -0.0467
14649TIP3   OH265361   1.575   0.257   1.402 -0.0338 -0.5815  0.2130
14649TIP3    H165362   1.499   0.297   1.359  2.2105  1.6591 -2.0638
14649TIP3    H265363   1.567   0.283   1.494 -1.7367  0.0375 -0.0613
14650TIP3   OH265364   2.091   6.741  14.935 -0.6318 -0.1424 -0.3929
14650TIP3    H165365   2.032   6.754  14.861  0.1545  0.0643 -0.9867
14650TIP3    H265366   2.108   6.647  14.937 -0.7734 -0.1684 -0.3698
14651TIP3   OH265367   3.063   3.421  11.892  0.2390  0.0517  0.2367
14651TIP3    H165368   3.048   3.476  11.814  2.4079 -0.9407 -0.9780
14651TIP3    H265369   3.041   3.333  11.863  0.2189 -0.2126  1.0476
14652TIP3   OH265370   4.505   6.732  16.795  0.1035 -0.3490 -0.1814
14652TIP3    H165371   4.425   6.690  16.763 -1.4096  1.2499  1.2475
14652TIP3    H265372   4.490   6.825  16.778  1.3666  0.0395  0.7511
14653TIP3   OH265373   4.157   3.132   0.541 -0.8338  0.5112  0.5368
14653TIP3    H165374   4.080   3.149   0.488  0.5714  1.5574 -1.2871
14653TIP3    H265375   4.180   3.041   0.523  0.3195  1.1791 -1.7123
14654TIP3   OH265376   6.488   2.874  11.533 -0.4035  0.0578  0.4210
14654TIP3    H165377   6.396   2.873  11.507 -0.1452 -0.5505 -0.5319
14654TIP3    H265378   6.536   2.862  11.451  0.5267  0.3307  0.9094
14655TIP3   OH265379   1.006   6.450  15.461  0.1981 -0.2662  0.2000
14655TIP3    H165380   0.974   6.360  15.470 -0.1047 -0.1880 -0.0629
14655TIP3    H265381   0.939   6.504  15.503 -0.1047 -0.0880 -0.5016
14656TIP3   OH265382   5.814   1.252  14.799 -1.0936  0.2652  0.2450
14656TIP3    H165383   5.868   1.330  14.815 -0.7701  0.1920 -0.4628
14656TIP3    H265384   5.877   1.185  14.771 -1.2122 -0.5888  1.8874
14657TIP3   OH265385   5.926   0.354   1.412 -0.0995 -0.2129 -0.4056
14657TIP3    H165386   5.933   0.439   1.369  0.8419 -1.4511 -2.8811
14657TIP3    H265387   5.835   0.328   1.398 -0.2610  0.1390 -0.0563
14658TIP3   OH265388   2.674   3.030   0.048  0.4791  0.5705 -0.0430
14658TIP3    H165389   2.687   3.036  -0.047 -0.6991  0.0378 -0.2559
14658TIP3    H265390   2.595   2.977   0.058  0.0370  1.4312  1.2204
14659TIP3   OH265391   4.000   4.827  15.988  0.0667 -0.0780  0.1633
14659TIP3    H165392   4.065   4.842  16.056 -1.2149 -2.4920  2.0733
14659TIP3    H265393   4.018   4.739  15.956 -2.0245 -0.7390  0.6039
14660TIP3   OH265394   6.680   4.301  16.803  0.4715  0.1815 -0.3927
14660TIP3    H165395   6.644   4.214  16.820  0.9369 -0.1669 -1.1507
14660TIP3    H265396   6.604   4.355  16.782  0.0189  0.3077  1.4208
14661TIP3   OH265397   6.279   2.006  16.653  0.2357 -0.2998  0.4343
14661TIP3    H165398   6.256   2.037  16.565  0.7870  1.2214  0.7827
14661TIP3    H265399   6.213   1.940  16.674  0.0059 -0.5738 -1.0533
14662TIP3   OH265400   6.107   4.934  16.569  0.1357 -0.1907 -0.1308
14662TIP3    H165401   6.169   4.991  16.614  0.9107 -1.5292  0.5758
14662TIP3    H265402   6.070   4.879  16.638 -0.7887 -0.3678 -0.7475
14663TIP3   OH265403   5.283   1.884  15.574 -0.0830 -0.0292  0.1305
14663TIP3    H165404   5.326   1.850  15.652  1.4595 -0.8507 -1.0206
14663TIP3    H265405   5.275   1.808  15.516  0.1742  0.8387 -1.0819
14664TIP3   OH265406   6.472   6.065  15.622 -0.4925 -0.0371 -0.3313
14664TIP3    H165407   6.500   5.975  15.639  0.2696  0.1152 -0.7454
14664TIP3    H265408   6.505   6.085  15.535  0.2742  1.0096  0.1811
14665TIP3   OH265409   6.645   4.882   5.707 -0.1833 -0.5197  0.3976
14665TIP3    H165410   6.637   4.951   5.772  3.3834  2.7318 -2.1270
14665TIP3    H265411   6.562   4.884   5.659 -0.3189  1.9469  0.6007
14666TIP3   OH265412   0.475   2.073   5.395 -0.3607 -0.0213  0.4496
14666TIP3    H165413   0.483   2.167   5.405  0.9014  0.2075 -1.9520
14666TIP3    H265414   0.381   2.058   5.380 -0.2828  1.2460 -1.7868
14667TIP3   OH265415   5.498   5.011  17.115  0.2900  0.2282 -0.1130
14667TIP3    H165416   5.593   5.005  17.103  0.2156 -0.0304 -0.6224
14667TIP3    H265417   5.482   4.963  17.196  0.6503  0.7376  0.2697
14668TIP3   OH265418   3.992   2.886  12.841  0.1576  0.5423  0.7121
14668TIP3    H165419   3.907   2.845  12.850 -0.7572  2.1618 -0.1258
14668TIP3    H265420   4.026   2.890  12.930 -0.5061 -0.3586  1.0203
14669TIP3   OH265421   5.728   0.174  13.085  0.0562  0.6337  0.2863
14669TIP3    H165422   5.674   0.108  13.128 -0.1179 -2.0340 -3.5043
14669TIP3    H265423   5.666   0.231  13.039  0.2944 -0.3413 -1.3085
14670TIP3   OH265424   2.507   1.139   2.123  0.4982 -0.6477  0.2872
14670TIP3    H165425   2.602   1.142   2.128  0.6540 -2.7181 -0.5202
14670TIP3    H265426   2.486   1.046   2.116 -1.5643 -0.2073 -0.0165
14671TIP3   OH265427   1.310   1.999   5.805 -0.0533  0.6521  0.0412
14671TIP3    H165428   1.289   2.062   5.875  1.4691 -0.0820  1.2164
14671TIP3    H265429   1.388   1.953   5.837  0.9492  0.5687 -2.3613
14672TIP3   OH265430   2.853   2.904   1.975  0.2818  0.7050  0.1721
14672TIP3    H165431   2.758   2.909   1.961  0.3682  2.6210  0.0865
14672TIP3    H265432   2.889   2.975   1.923  1.7220  0.4294  0.7489
14673TIP3   OH265433   2.754   2.187  14.614  0.4109  0.3416 -0.4228
14673TIP3    H165434   2.676   2.144  14.647  1.0852 -0.1636  0.5616
14673TIP3    H265435   2.759   2.269  14.663  1.2672 -0.2877  0.5999
14674TIP3   OH265436   4.261   0.710  15.355  0.3845 -0.4704 -0.1183
14674TIP3    H165437   4.199   0.765  15.402  1.3157  0.5893 -0.0756
14674TIP3    H265438   4.221   0.623  15.355 -0.7072  0.0072  0.5996
14675TIP3   OH265439   0.871   5.181  14.134  0.2031  0.5198 -0.0218
14675TIP3    H165440   0.792   5.224  14.167  0.4484  0.8266  0.1692
14675TIP3    H265441   0.942   5.241  14.156  0.5851 -0.1208  0.5102
14676TIP3   OH265442   4.342   3.318  17.037 -0.1400  0.0985 -0.1209
14676TIP3    H165443   4.393   3.395  17.015 -1.7324  0.9175 -1.1089
14676TIP3    H265444   4.291   3.344  17.114 -1.0563  0.2211 -0.7590
14677TIP3   OH265445   0.315   6.178  14.745  0.0718 -0.1618  0.3350
14677TIP3    H165446   0.301   6.084  14.736  1.0851 -0.3110  0.1523
14677TIP3    H265447   0.301   6.196  14.837  0.2381 -0.5628  0.4396
14678TIP3   OH265448   5.074   5.957   3.577  0.5092  0.3619  0.8626
14678TIP3    H165449   5.075   6.041   3.530 -1.2437  0.7951  1.5535
14678TIP3    H265450   5.091   5.892   3.509  2.1483  1.2555  0.3480
14679TIP3   OH265451   4.449   5.762   3.662 -0.3188  0.1573 -0.4823
14679TIP3    H165452   4.414   5.759   3.751 -0.2799 -1.5007 -0.4918
14679TIP3    H265453   4.494   5.847   3.657 -1.3617  0.8084  0.6549
14680TIP3   OH265454   0.040   0.875  12.531  0.0551  0.0975  0.0182
14680TIP3    H165455  -0.004   0.959  12.546 -1.0526 -0.6707  1.2550
14680TIP3    H265456  -0.005   0.814  12.589  0.6985 -1.4170 -1.0416
14681TIP3   OH265457   5.172   3.120   5.660 -0.4911  0.6816 -0.4394
14681TIP3    H165458   5.267   3.132   5.668 -0.4812  0.2645  0.1046
14681TIP3    H265459   5.140   3.206   5.631  0.0400  0.8449 -0.5644
14682TIP3   OH265460   2.547   3.780  11.839 -0.4532  0.4416 -0.1638
14682TIP3    H165461   2.512   3.742  11.920  0.6070  0.1596  0.1776
14682TIP3    H265462   2.518   3.720  11.770  0.4053 -0.4801  0.2593
14683TIP3   OH265463   2.663   3.551  15.558  0.0643 -0.2992  0.7998
14683TIP3    H165464   2.599   3.506  15.613  0.3703  0.8172  2.1162
14683TIP3    H265465   2.747   3.533  15.601  0.1219  2.1617  1.8667
14684TIP3   OH265466   1.300   5.959   1.487 -0.4666 -0.1504 -0.3993
14684TIP3    H165467   1.343   5.913   1.560 -0.7125 -1.6980 -1.1870
14684TIP3    H265468   1.369   6.013   1.449  0.3695 -1.3267 -0.6195
14685TIP3   OH265469   3.168   6.059   5.637  0.0917 -0.5416  0.2530
14685TIP3    H165470   3.197   6.007   5.712  0.2023  1.0729  1.3835
14685TIP3    H265471   3.073   6.043   5.632  0.2804 -1.6490 -0.0917
14686TIP3   OH265472   5.791   2.334  16.249  0.2901  0.0808 -0.0266
14686TIP3    H165473   5.715   2.354  16.305 -0.5828  0.2332 -1.2147
14686TIP3    H265474   5.753   2.290  16.173  1.4029  0.2088 -0.6750
14687TIP3   OH265475   4.353   2.099  14.292  0.3293  0.2602  0.0667
14687TIP3    H165476   4.344   2.059  14.378 -0.7223  0.9836  0.3083
14687TIP3    H265477   4.437   2.146  14.297  0.1882  0.4496  0.7561
14688TIP3   OH265478   4.700   5.636   1.209 -0.2314 -0.3128  0.4009
14688TIP3    H165479   4.605   5.624   1.219 -0.5861 -0.0008 -1.9821
14688TIP3    H265480   4.728   5.560   1.157  0.5175  0.4213 -0.2999
14689TIP3   OH265481   6.210   6.502   0.382  0.0977  0.0775 -0.3465
14689TIP3    H165482   6.196   6.559   0.307  1.5368  0.7027 -0.1719
14689TIP3    H265483   6.295   6.530   0.418 -0.0443 -0.9407  0.8451
14690TIP3   OH265484   2.892   4.418   2.691 -0.0879 -0.2453 -0.4755
14690TIP3    H165485   2.837   4.425   2.769 -0.7861  0.1203 -0.9997
14690TIP3    H265486   2.831   4.411   2.618  0.5563 -1.2081 -0.9532
14691TIP3   OH265487   4.164   5.368  14.134 -0.0228 -0.3197  0.4174
14691TIP3    H165488   4.122   5.286  14.109  0.5076 -0.9350  1.4454
14691TIP3    H265489   4.165   5.365  14.230  2.1031 -0.2233  0.4491
14692TIP3   OH265490   3.948   3.750   5.617  0.2613 -0.3181 -0.2736
14692TIP3    H165491   3.941   3.737   5.711  0.0373  0.1785 -0.2245
14692TIP3    H265492   3.881   3.693   5.579  1.9144 -2.4056 -0.2802
14693TIP3   OH265493   5.371   2.536  15.882  0.5479 -0.0888  0.4307
14693TIP3    H165494   5.456   2.502  15.853  0.2444  2.2293 -3.8750
14693TIP3    H265495   5.392   2.596  15.954  2.2153 -1.1522  0.8942
14694TIP3   OH265496   4.812   3.155  10.668  0.0186  0.0307  0.4864
14694TIP3    H165497   4.746   3.115  10.723 -0.1376  0.7176  0.8142
14694TIP3    H265498   4.798   3.117  10.581  0.8188 -1.7086  1.0759
14695TIP3   OH265499   0.206   0.614  14.437 -0.8407 -0.5760 -0.2044
14695TIP3    H165500   0.126   0.582  14.478 -2.1285  2.8653  0.2870
14695TIP3    H265501   0.251   0.663  14.506  0.2761 -0.1288 -1.2158
14696TIP3   OH265502   4.041   3.083   6.310 -0.3424  0.0520  0.1525
14696TIP3    H165503   4.015   3.115   6.224  0.4440 -0.0713 -0.1446
14696TIP3    H265504   4.136   3.091   6.311 -0.2157 -1.1925  0.5001
14697TIP3   OH265505   1.432   5.831   3.218 -0.4707 -0.7542  0.4672
14697TIP3    H165506   1.403   5.885   3.145 -2.8293 -1.6921  0.6133
14697TIP3    H265507   1.441   5.743   3.182 -2.0289 -1.3049  1.3228
14698TIP3   OH265508   2.155   3.831   1.922  0.2980 -0.3290 -0.1308
14698TIP3    H165509   2.085   3.833   1.856  0.2661 -1.2526 -0.1485
14698TIP3    H265510   2.182   3.739   1.925  1.7718  0.0680 -0.3875
14699TIP3   OH265511   1.334   1.655  15.983 -0.4645  0.0957  0.1529
14699TIP3    H165512   1.394   1.730  15.990 -0.4814  0.1061  0.1869
14699TIP3    H265513   1.381   1.592  15.927 -0.7917  0.4684 -0.5603
14700TIP3   OH265514   1.733   1.742   5.041  0.6475  0.0186  0.0841
14700TIP3    H165515   1.741   1.819   5.097  1.2565 -0.0690  0.1233
14700TIP3    H265516   1.773   1.768   4.958 -0.6880  0.3096 -0.4853
14701TIP3   OH265517   5.572   1.452  13.026 -0.4290 -0.2229  0.4596
14701TIP3    H165518   5.622   1.449  13.108 -1.2372 -0.6729  0.9492
14701TIP3    H265519   5.508   1.382  13.034 -0.1334 -0.6725 -0.8292
14702TIP3   OH265520   2.236   6.489   2.019 -0.6858 -0.1007 -0.0922
14702TIP3    H165521   2.145   6.498   1.989 -0.7902  0.3002  0.3229
14702TIP3    H265522   2.228   6.468   2.112 -0.3690  2.1749  0.5248
14703TIP3   OH265523   0.463   5.535   0.693  1.2467 -0.2654  0.1490
14703TIP3    H165524   0.468   5.443   0.719  1.1219 -1.0195 -2.2072
14703TIP3    H265525   0.415   5.533   0.610  0.8788  1.9928  0.2469
14704TIP3   OH265526   2.926   5.420  11.940  0.4640  0.3546  0.0884
14704TIP3    H165527   2.898   5.500  11.983  1.7456  0.9295 -0.1115
14704TIP3    H265528   3.016   5.406  11.970 -0.0874 -1.6237  0.9987
14705TIP3   OH265529   4.897   0.527   4.547  0.2041  0.4569  0.2638
14705TIP3    H165530   4.878   0.619   4.566 -0.6607  0.9542 -2.4623
14705TIP3    H265531   4.931   0.528   4.457 -0.8334 -1.9596 -0.2418
14706TIP3   OH265532   4.657   6.699   2.327 -0.0216  0.5787  0.2933
14706TIP3    H165533   4.615   6.657   2.252 -0.3350  0.1325  0.7207
14706TIP3    H265534   4.666   6.791   2.300 -0.5417  0.5147 -0.1124
14707TIP3   OH265535   5.271   5.944   4.038 -0.1969 -0.2414 -0.1729
14707TIP3    H165536   5.241   6.023   3.993 -0.7022 -0.3868 -0.0936
14707TIP3    H265537   5.191   5.902   4.070  0.2039  0.4501  1.8602
14708TIP3   OH265538   4.540   5.555  14.148 -0.8196  0.2223 -0.4275
14708TIP3    H165539   4.523   5.600  14.230  2.4744  1.2843 -0.1931
14708TIP3    H265540   4.465   5.578  14.092 -1.9091  1.4790  1.4513
14709TIP3   OH265541   2.182   3.904  16.631 -0.2229 -0.6049  0.2944
14709TIP3    H165542   2.253   3.967  16.621 -0.3236 -0.6814 -1.1589
14709TIP3    H265543   2.223   3.828  16.671 -0.2222  0.5405  2.6494
14710TIP3   OH265544   6.672   4.526   0.305 -0.4628 -0.0786  0.5573
14710TIP3    H165545   6.752   4.518   0.253  0.4798 -0.2638  1.9730
14710TIP3    H265546   6.609   4.469   0.261  0.7351 -1.3355  0.3917
14711TIP3   OH265547   4.207   2.965  12.650 -0.2974  0.1372  0.4058
14711TIP3    H165548   4.130   2.937  12.699 -0.6974  1.2939  0.4685
14711TIP3    H265549   4.281   2.942  12.706 -0.7567  1.6593  1.7064
14712TIP3   OH265550   1.700   0.604   2.002  0.2795 -0.4551  0.2494
14712TIP3    H165551   1.679   0.532   2.061  2.1293 -1.7009 -0.5157
14712TIP3    H265552   1.759   0.660   2.053 -0.4017  0.0365  0.5178
14713TIP3   OH265553   3.556   4.759  16.111  0.4208  0.7793 -0.2362
14713TIP3    H165554   3.496   4.815  16.060  0.3962 -0.5238 -1.7095
14713TIP3    H265555   3.557   4.676  16.064  1.2495 -0.1495  1.3389
14714TIP3   OH265556   5.772   4.734  16.336 -0.0938  0.2531  0.9354
14714TIP3    H165557   5.689   4.708  16.376 -0.9072  1.4463  0.0852
14714TIP3    H265558   5.839   4.691  16.390 -1.2060  0.3223  2.4473
14715TIP3   OH265559   1.286   3.982  17.225  0.7176  0.7846 -0.5257
14715TIP3    H165560   1.276   3.896  17.185  2.2279 -0.0795  0.8243
14715TIP3    H265561   1.381   3.996  17.227  0.9295  0.0912  3.9195
14716TIP3   OH265562   1.844   2.808   6.522 -0.1076  0.1276 -0.1283
14716TIP3    H165563   1.804   2.800   6.608  1.0058 -0.9098  0.3281
14716TIP3    H265564   1.863   2.901   6.513 -1.0956  0.3838  0.3355
14717TIP3   OH265565   4.208   2.647   1.622  0.6554  0.2853 -0.2542
14717TIP3    H165566   4.216   2.675   1.713  0.1234 -1.0796  0.2428
14717TIP3    H265567   4.150   2.711   1.582 -2.4100 -1.2109  1.4222
14718TIP3   OH265568   3.070   3.215   0.854  0.2025 -0.1160  0.4073
14718TIP3    H165569   3.002   3.189   0.916  0.0496 -0.2314  0.1899
14718TIP3    H265570   3.147   3.164   0.880  0.7105  1.2159  1.7045
14719TIP3   OH265571   3.942   3.150   5.964 -0.1597  0.0818  0.2083
14719TIP3    H165572   3.913   3.219   6.024  3.3623  2.1884 -0.2593
14719TIP3    H265573   3.924   3.185   5.877  1.6482  0.4750 -0.0333
14720TIP3   OH265574   0.894   1.978  16.082  0.4345 -0.1352 -0.6754
14720TIP3    H165575   0.880   1.886  16.060  2.6543 -1.2878  2.1444
14720TIP3    H265576   0.919   2.018  15.999 -0.0304 -2.1874 -1.8761
14721TIP3   OH265577   1.096   3.028   2.071  0.1755 -0.0778 -0.3338
14721TIP3    H165578   1.051   3.058   1.993 -1.9753 -1.5129  0.2624
14721TIP3    H265579   1.060   3.082   2.142  0.4402 -0.2877 -0.0368
14722TIP3   OH265580   4.044   4.875   6.463 -0.1390  0.4221  0.2978
14722TIP3    H165581   4.024   4.928   6.386  0.8224 -1.1381 -1.0947
14722TIP3    H265582   3.986   4.909   6.531 -1.6464  1.2846 -1.3377
14723TIP3   OH265583   0.548   5.249  11.054 -0.1175  0.0150  0.2141
14723TIP3    H165584   0.619   5.282  11.109  0.0529 -0.4775  0.2938
14723TIP3    H265585   0.468   5.282  11.096  0.0105 -0.3360  0.7550
14724TIP3   OH265586   4.666   1.360  16.933 -0.1435 -0.1400 -0.1137
14724TIP3    H165587   4.578   1.353  16.972 -0.3789  1.4674 -0.2782
14724TIP3    H265588   4.725   1.350  17.008 -0.5766  2.1507  0.6144
14725TIP3   OH265589   6.504   5.240   1.623 -0.0929  0.1915  0.2260
14725TIP3    H165590   6.596   5.220   1.640  0.4685  3.4326  1.7914
14725TIP3    H265591   6.464   5.244   1.709 -1.4557 -0.1065 -0.3739
14726TIP3   OH265592   0.703   1.705  10.840  0.3073 -0.1162  0.2676
14726TIP3    H165593   0.645   1.678  10.768 -0.5663  0.1488  0.8625
14726TIP3    H265594   0.791   1.682  10.809  0.0057  0.4793 -1.1219
14727TIP3   OH265595   2.557   4.539  12.982 -0.3051 -0.3213  0.1148
14727TIP3    H165596   2.564   4.443  12.976 -2.1543 -0.5878  1.4358
14727TIP3    H265597   2.643   4.567  13.011 -0.1279 -1.7367  1.0719
14728TIP3   OH265598   4.978   2.848  13.739 -0.0973  0.0775  0.3247
14728TIP3    H165599   4.891   2.855  13.702 -0.0517 -2.9082 -0.6711
14728TIP3    H265600   5.037   2.858  13.664  0.4227  1.6697  0.9204
14729TIP3   OH265601   4.076   4.928  11.758 -0.1920 -0.2419 -0.1560
14729TIP3    H165602   4.124   4.952  11.837 -1.2735  0.0270  0.4443
14729TIP3    H265603   3.985   4.919  11.787 -0.7751  0.7735 -1.5523
14730TIP3   OH265604   0.621   1.042   0.956  0.0963 -0.5030 -0.2073
14730TIP3    H165605   0.622   0.972   0.891 -1.7842 -2.6179  1.8479
14730TIP3    H265606   0.528   1.058   0.973  0.4764 -0.5028  2.3157
14731TIP3   OH265607   2.569   5.178  16.149  0.2098  0.0138 -0.4463
14731TIP3    H165608   2.560   5.125  16.229  1.0739 -0.5471 -0.7126
14731TIP3    H265609   2.628   5.128  16.094  1.6901  1.6227 -0.4036
14732TIP3   OH265610   5.631   4.659   0.016  0.2112 -0.2949 -0.7043
14732TIP3    H165611   5.577   4.671  -0.061  0.7017 -0.9192 -1.1508
14732TIP3    H265612   5.659   4.568   0.012 -0.3018 -0.5329  0.5709
14733TIP3   OH265613   6.072   5.400  16.457  0.6565  0.0234  0.0017
14733TIP3    H165614   6.118   5.443  16.385  0.1714  0.2444 -0.1741
14733TIP3    H265615   5.979   5.414  16.439  0.5360  1.0643  1.2696
14734TIP3   OH265616   0.009   4.650  16.421  0.5477 -0.0270  0.2304
14734TIP3    H165617  -0.052   4.591  16.375 -0.9909  0.5741  1.4163
14734TIP3    H265618  -0.040   4.732  16.431  1.2440  0.2167  1.9222
14735TIP3   OH265619   0.118   2.113  12.624 -0.0355 -0.9140 -0.2823
14735TIP3    H165620   0.082   2.200  12.606  2.4949  0.3360  0.2665
14735TIP3    H265621   0.043   2.061  12.652 -1.5143  1.2867  0.0541
14736TIP3   OH265622   5.896   4.336  15.312  0.2407 -0.3490  0.7223
14736TIP3    H165623   5.854   4.253  15.333 -0.3330  0.1041  1.4051
14736TIP3    H265624   5.989   4.319  15.321  0.1731 -1.1389  0.0297
14737TIP3   OH265625   5.722   0.101  11.930 -0.5187  0.5366 -0.1779
14737TIP3    H165626   5.653   0.035  11.938  0.0617  0.1428  2.2717
14737TIP3    H265627   5.737   0.131  12.019  0.9157  2.2868 -0.9448
14738TIP3   OH265628   4.914   2.620   3.650  0.4591  0.3621  0.3576
14738TIP3    H165629   4.997   2.586   3.683 -0.5891 -0.6455  2.1595
14738TIP3    H265630   4.914   2.599   3.557  1.2994 -1.5876  0.7561
14739TIP3   OH265631   0.108   3.021  13.263  0.4735 -0.3865 -0.7659
14739TIP3    H165632   0.081   3.066  13.184 -0.8972 -0.3966 -0.3405
14739TIP3    H265633   0.163   2.948  13.233 -0.7895 -0.9541 -1.7936
14740TIP3   OH265634   5.797   0.308  17.055 -0.2663 -0.1482 -0.2288
14740TIP3    H165635   5.773   0.318  17.148  1.5219 -0.4984  0.3093
14740TIP3    H265636   5.857   0.381  17.038 -0.9222  0.1745 -1.2604
14741TIP3   OH265637   3.482   0.613  11.765 -0.0031 -0.0711  0.1273
14741TIP3    H165638   3.425   0.664  11.823 -0.6880 -0.2432 -0.3859
14741TIP3    H265639   3.509   0.538  11.818  0.3036  0.3665  0.5983
14742TIP3   OH265640   6.210   0.160   6.410 -0.9505  0.8420  0.0841
14742TIP3    H165641   6.249   0.083   6.367 -0.5334  1.3659 -0.4899
14742TIP3    H265642   6.135   0.125   6.458 -0.7660  0.0740 -0.1716
14743TIP3   OH265643   0.477   3.634  14.812 -0.0060  0.2387 -0.2869
14743TIP3    H165644   0.529   3.660  14.736 -0.8614  0.3931 -0.8310
14743TIP3    H265645   0.388   3.626  14.779 -0.3076 -0.2088  0.5884
14744TIP3   OH265646   2.091   6.679  12.814  0.4157 -0.0348 -0.4952
14744TIP3    H165647   2.141   6.615  12.865  1.6709  0.6112 -0.8662
14744TIP3    H265648   2.155   6.715  12.753 -0.5963  0.6185 -1.1947
14745TIP3   OH265649   1.354   0.570  12.194 -0.2739  0.7504  0.6551
14745TIP3    H165650   1.442   0.534  12.182 -1.0371 -1.6232  1.5827
14745TIP3    H265651   1.307   0.544  12.115 -0.9284 -0.6905  1.4827
14746TIP3   OH265652   6.615   2.588  15.978  0.1320  0.2470  0.0400
14746TIP3    H165653   6.695   2.627  16.013  0.3408 -0.4356  0.3189
14746TIP3    H265654   6.549   2.603  16.046  1.0993 -3.3334  2.0185
14747TIP3   OH265655   0.593   0.242   0.343  0.0335 -0.4782 -0.2564
14747TIP3    H165656   0.555   0.231   0.430  1.2274  0.6842  0.4564
14747TIP3    H265657   0.596   0.337   0.329 -0.4813 -0.6532 -1.7358
14748TIP3   OH265658   3.676   6.118   2.646 -0.0463 -0.0699  0.2800
14748TIP3    H165659   3.621   6.130   2.724 -0.7067 -0.3743 -0.1371
14748TIP3    H265660   3.716   6.032   2.658 -0.2283 -0.1611  0.2346
14749TIP3   OH265661   2.114   1.957   3.604  0.4541 -0.5061 -0.3074
14749TIP3    H165662   2.067   1.915   3.532 -0.3972 -2.0228  1.0478
14749TIP3    H265663   2.073   2.043   3.613 -1.5078 -1.4299  0.2261
14750TIP3   OH265664   6.167   0.119  15.633  0.0929 -0.4334  0.1005
14750TIP3    H165665   6.226   0.086  15.700 -2.3466  0.2705  2.7658
14750TIP3    H265666   6.173   0.214  15.640 -0.6132 -0.3542 -0.3139
14751TIP3   OH265667   6.310   0.391   3.050 -0.0480  0.6893  0.2689
14751TIP3    H165668   6.263   0.462   3.006  0.9098  1.0925 -0.1273
14751TIP3    H265669   6.349   0.433   3.127 -0.9071  0.2009  0.9864
14752TIP3   OH265670   3.152   0.123   1.449 -0.2510 -0.0544  0.1691
14752TIP3    H165671   3.101   0.161   1.520 -0.0521  1.6142 -0.5477
14752TIP3    H265672   3.104   0.043   1.425 -0.9925  0.0225  1.3263
14753TIP3   OH265673   4.256   1.525  14.371 -0.7995 -0.7854  0.3730
14753TIP3    H165674   4.317   1.467  14.416 -1.5295 -2.1978 -0.3737
14753TIP3    H265675   4.231   1.477  14.292 -2.7469 -0.1936  0.5727
14754TIP3   OH265676   5.322   3.104   2.077 -0.1793 -0.4667 -0.1705
14754TIP3    H165677   5.305   3.178   2.019  0.5131 -0.6501 -0.6275
14754TIP3    H265678   5.242   3.052   2.075 -1.7403  1.6726  2.3324
14755TIP3   OH265679   2.945   1.227  17.251 -0.7328 -0.3282 -0.2746
14755TIP3    H165680   3.017   1.282  17.281  1.7653 -3.0727 -0.7421
14755TIP3    H265681   2.946   1.238  17.155  0.0635 -1.4102 -0.4114
14756TIP3   OH265682   1.415   2.151  16.982 -0.4462 -0.9015  0.5705
14756TIP3    H165683   1.339   2.210  16.986 -0.8342 -1.1356 -1.9453
14756TIP3    H265684   1.488   2.208  16.959 -0.6983 -1.2630 -1.2202
14757TIP3   OH265685   2.245   5.972  12.135 -0.2428  0.1691 -0.0436
14757TIP3    H165686   2.249   5.881  12.166  0.1921  0.4827  0.8593
14757TIP3    H265687   2.331   5.989  12.098 -0.4442  0.1049 -0.5490
14758TIP3   OH265688   0.229   4.650   3.392  0.4699  0.2238  0.6106
14758TIP3    H165689   0.317   4.683   3.406 -0.2392  2.0125  1.1037
14758TIP3    H265690   0.172   4.709   3.442 -1.0352 -0.6775  0.0472
14759TIP3   OH265691   5.142   2.595  14.351 -0.4724  0.2056  0.3477
14759TIP3    H165692   5.059   2.554  14.372 -0.2653 -0.0932  0.5781
14759TIP3    H265693   5.197   2.582  14.429 -0.4270  0.9675  0.4517
14760TIP3   OH265694   0.757   5.031   3.657  0.1524  0.1623 -0.0191
14760TIP3    H165695   0.795   5.119   3.663  1.5873 -0.4534  0.5902
14760TIP3    H265696   0.702   5.023   3.735  1.1299  0.0487  0.6751
14761TIP3   OH265697   3.746   3.241  16.918  0.3166 -0.5477 -0.3830
14761TIP3    H165698   3.723   3.277  16.832 -0.5621 -1.7953 -0.6953
14761TIP3    H265699   3.724   3.312  16.979 -0.9554 -0.3614 -1.0146
14762TIP3   OH265700   2.685   5.524   2.550 -0.1279 -0.0377 -0.8745
14762TIP3    H165701   2.612   5.469   2.519 -1.3794  1.0451  0.0174
14762TIP3    H265702   2.735   5.544   2.471 -2.7505  1.9878 -2.2048
14763TIP3   OH265703   4.202   1.185   4.319  0.0295 -0.3249  0.0364
14763TIP3    H165704   4.242   1.186   4.406  0.2010 -0.1645 -0.0425
14763TIP3    H265705   4.108   1.184   4.335  0.0322  0.9959  0.2321
14764TIP3   OH265706   5.266   5.399  15.982  0.5506 -0.1131  0.1037
14764TIP3    H165707   5.297   5.485  15.952  1.2642 -0.7219 -0.9592
14764TIP3    H265708   5.220   5.418  16.064 -1.1772  1.5587 -1.1649
14765TIP3   OH265709   0.368   5.434   3.512  0.1270  0.5287  0.2144
14765TIP3    H165710   0.364   5.382   3.592 -1.6797  0.0126 -0.1691
14765TIP3    H265711   0.319   5.382   3.447  0.3786  1.5783 -0.8508
14766TIP3   OH265712   6.294   0.516   1.752  0.0912  0.3374 -0.1635
14766TIP3    H165713   6.376   0.525   1.800 -0.4073 -0.9366  1.0032
14766TIP3    H265714   6.318   0.531   1.660  1.7257 -0.4497  0.0999
14767TIP3   OH265715   5.458   0.812   0.959 -0.5514  0.6635 -0.0984
14767TIP3    H165716   5.386   0.770   0.912  0.1962 -0.5473 -0.2108
14767TIP3    H265717   5.445   0.906   0.945 -1.8196  0.4417 -0.5182
14768TIP3   OH265718   5.469   3.296   4.734  0.3248 -0.4682  0.2298
14768TIP3    H165719   5.558   3.330   4.745  0.3783  0.0530 -1.5584
14768TIP3    H265720   5.480   3.203   4.716  0.3455 -0.8687  2.0465
14769TIP3   OH265721   5.737   1.242   3.400  0.5727 -0.1469 -0.1674
14769TIP3    H165722   5.761   1.154   3.374  0.1260 -0.3588  0.1250
14769TIP3    H265723   5.705   1.233   3.490 -1.6670 -0.0943 -0.8948
14770TIP3   OH265724   1.836   2.097  15.168 -0.2747 -0.2584 -0.1130
14770TIP3    H165725   1.870   2.049  15.093  0.1828  1.5940 -1.1662
14770TIP3    H265726   1.912   2.110  15.224 -0.4150 -0.7958  0.2120
14771TIP3   OH265727   3.947   2.240  17.047  0.2570 -0.3245  0.2467
14771TIP3    H165728   4.025   2.252  17.103  0.2343 -1.0357  0.4401
14771TIP3    H265729   3.903   2.324  17.050  1.0006  0.0777  0.1731
14772TIP3   OH265730   4.180   6.655   1.467 -0.2559  0.7147 -0.0154
14772TIP3    H165731   4.261   6.615   1.436  0.6836  3.0782 -0.8283
14772TIP3    H265732   4.111   6.607   1.422  0.7344 -0.5982 -0.1992
14773TIP3   OH265733   4.747   3.343   4.962  0.1958 -0.2286 -0.1775
14773TIP3    H165734   4.691   3.400   5.014  0.1438  0.0728 -0.5561
14773TIP3    H265735   4.777   3.398   4.889  0.5629 -0.5353 -0.2639
14774TIP3   OH265736   4.395   4.472   4.810 -0.3416 -0.5539  0.1443
14774TIP3    H165737   4.330   4.414   4.770  0.8941 -2.6369  0.9924
14774TIP3    H265738   4.459   4.413   4.849  0.7108  1.4139  1.5659
14775TIP3   OH265739   3.606   5.911  17.054  0.2013  0.0553 -0.0935
14775TIP3    H165740   3.621   5.876  17.142 -0.3620 -1.2723 -0.5182
14775TIP3    H265741   3.534   5.974  17.065  0.2395  0.0108  0.4142
14776TIP3   OH265742   3.948   2.250  15.383 -0.0850  0.1416  0.3386
14776TIP3    H165743   3.997   2.171  15.406 -0.9445 -0.3366  0.5997
14776TIP3    H265744   3.868   2.217  15.341  0.2893  0.9288 -1.0583
14777TIP3   OH265745   2.886   6.650  12.001 -0.6930 -0.3022  0.4484
14777TIP3    H165746   2.809   6.659  12.056 -1.3842 -2.3764 -0.0590
14777TIP3    H265747   2.921   6.563  12.023  1.4612  0.5498  0.6036
14778TIP3   OH265748   0.031   5.359  13.235 -0.8053 -0.1466  0.0250
14778TIP3    H165749   0.037   5.313  13.318 -3.2806 -1.5257 -0.4610
14778TIP3    H265750  -0.025   5.435  13.254 -3.1212 -1.5799 -0.7183
14779TIP3   OH265751   4.344   6.573  11.704  0.6063 -0.0819 -0.5720
14779TIP3    H165752   4.270   6.567  11.764  1.7040  0.4638  0.9146
14779TIP3    H265753   4.385   6.486  11.707  1.7792  0.4655  1.0630
14780TIP3   OH265754   2.621   6.189  12.344 -0.1082  0.2516  0.2040
14780TIP3    H165755   2.670   6.108  12.326  2.1461  1.2084  1.5575
14780TIP3    H265756   2.653   6.217  12.430 -1.6757  1.9913  0.2703
14781TIP3   OH265757   6.186   5.597  14.700 -0.8029  0.1480  0.0913
14781TIP3    H165758   6.212   5.506  14.710  3.0647  0.9402 -1.1033
14781TIP3    H265759   6.215   5.639  14.780 -2.1570  0.4690  0.4414
14782TIP3   OH265760   3.987   6.662   0.887  0.1500 -0.3096  0.5022
14782TIP3    H165761   3.894   6.674   0.906  0.1659 -1.6238  1.5789
14782TIP3    H265762   3.988   6.604   0.810  0.1126  1.7789 -1.1701
14783TIP3   OH265763   1.423   0.238  11.825 -0.1517 -0.5064  0.1111
14783TIP3    H165764   1.404   0.281  11.742  2.1520  0.7677  0.1509
14783TIP3    H265765   1.379   0.153  11.820 -2.4761  0.7039 -1.1571
14784TIP3   OH265766   2.715   1.534  12.130  0.9342  0.5978  0.3052
14784TIP3    H165767   2.632   1.495  12.104  1.1364  1.1081 -1.1784
14784TIP3    H265768   2.691   1.615  12.175  0.5950 -0.0993  1.4264
14785TIP3   OH265769   4.498   5.981  11.068 -0.7093 -0.4193  0.2220
14785TIP3    H165770   4.562   6.000  10.998  2.1139  1.0106  2.9494
14785TIP3    H265771   4.503   5.886  11.078  2.7679 -0.2360  1.6913
14786TIP3   OH265772   4.051   0.344  14.238 -0.2606  0.2294 -0.0631
14786TIP3    H165773   4.004   0.402  14.299 -1.8483 -1.4645  0.4352
14786TIP3    H265774   3.985   0.279  14.213  1.6500 -1.8462  0.0622
14787TIP3   OH265775   6.300   0.986  16.152  0.2327 -0.4018  0.4655
14787TIP3    H165776   6.284   0.955  16.241  2.1051 -2.4852  0.1842
14787TIP3    H265777   6.370   1.051  16.161  0.5941 -0.7924  0.5176
14788TIP3   OH265778   5.074   0.501   6.184  0.1817 -0.1404 -0.3584
14788TIP3    H165779   5.066   0.596   6.179  2.2763  0.2175  1.4436
14788TIP3    H265780   5.140   0.479   6.119 -0.9211 -0.5197 -1.3880
14789TIP3   OH265781   3.206   3.316   1.179 -0.5148 -0.2508  0.2274
14789TIP3    H165782   3.136   3.361   1.132  0.5991  0.5069 -0.7660
14789TIP3    H265783   3.178   3.318   1.271 -1.3394  0.9043 -0.0174
14790TIP3   OH265784   2.294   0.362  15.402 -0.0805 -0.5411 -0.0284
14790TIP3    H165785   2.313   0.381  15.310  1.2927  0.8852  0.4814
14790TIP3    H265786   2.293   0.449  15.444 -4.0236 -0.7944  0.8014
14791TIP3   OH265787   0.607   1.728   4.874 -0.0283  0.1072  0.6482
14791TIP3    H165788   0.636   1.711   4.963  0.5685 -1.9400  0.1272
14791TIP3    H265789   0.675   1.689   4.819 -0.6073  0.9293 -0.7071
14792TIP3   OH265790   1.974   1.680   2.247 -0.2010  0.0800  0.3806
14792TIP3    H165791   2.038   1.616   2.277 -1.4669 -0.8442  1.1861
14792TIP3    H265792   2.027   1.747   2.202  1.3220 -0.5890  1.1002
14793TIP3   OH265793   4.120   1.026  12.215 -0.4489 -0.6584  0.1501
14793TIP3    H165794   4.119   1.099  12.154 -2.2834 -0.0526  0.8635
14793TIP3    H265795   4.079   1.059  12.295 -0.5271 -2.2126  0.8061
14794TIP3   OH265796   1.065   6.488  12.098 -0.6932 -0.2802  0.9470
14794TIP3    H165797   1.140   6.438  12.066 -0.8733 -0.8364  1.3835
14794TIP3    H265798   1.071   6.484  12.193 -1.2075 -0.2201  0.9864
14795TIP3   OH265799   4.071   2.627   5.867  0.3440  0.2943  0.2422
14795TIP3    H165800   4.027   2.626   5.782  0.2810 -1.4090  0.2654
14795TIP3    H265801   4.116   2.711   5.869 -0.1977  0.6547 -1.1863
14796TIP3   OH265802   0.386   4.909   3.907 -0.1729  0.5461  0.1079
14796TIP3    H165803   0.327   4.882   3.977  0.8384  0.4126  0.9331
14796TIP3    H265804   0.429   4.828   3.879  0.9360  0.8960  0.7688
14797TIP3   OH265805   2.517   5.102  16.397 -0.1004 -0.4887 -0.7409
14797TIP3    H165806   2.560   5.059  16.471  0.4750  0.8424 -0.2565
14797TIP3    H265807   2.521   5.195  16.418  0.3334 -0.0438 -2.5894
14798TIP3   OH265808   0.733   4.495   3.738 -0.5666 -0.0922  0.3590
14798TIP3    H165809   0.738   4.472   3.830  0.8586 -0.8080  0.1274
14798TIP3    H265810   0.796   4.566   3.727 -1.3182  0.5479  0.0852
14799TIP3   OH265811   2.165   5.319  15.232 -0.5838  0.6528  0.1871
14799TIP3    H165812   2.168   5.249  15.298 -0.6554 -1.1978 -1.6642
14799TIP3    H265813   2.074   5.349  15.233 -0.3417  1.4052  1.6428
14800TIP3   OH265814   3.805   2.751  11.745 -0.0071 -0.9228  0.4602
14800TIP3    H165815   3.826   2.658  11.753  1.5300 -0.5379  1.2208
14800TIP3    H265816   3.745   2.768  11.817 -2.1405 -1.7554 -0.9887
14801TIP3   OH265817   4.342   6.124   3.276  0.0378 -0.2612  0.1770
14801TIP3    H165818   4.270   6.153   3.332  0.0060  0.3401 -0.1577
14801TIP3    H265819   4.399   6.201   3.269  1.0849 -0.9365  1.0002
14802TIP3   OH265820   0.873   5.062   0.883  0.2543  0.1723  0.1522
14802TIP3    H165821   0.836   5.000   0.820 -0.7606  0.8760  0.0401
14802TIP3    H265822   0.902   5.136   0.830 -1.8609  1.3839  0.5784
14803TIP3   OH265823   0.162   3.931   6.092 -0.0462  0.0847 -0.1763
14803TIP3    H165824   0.176   4.019   6.128 -0.2779  0.0798 -0.0710
14803TIP3    H265825   0.221   3.875   6.143 -0.4606  0.0587  0.2876
14804TIP3   OH265826   6.388   1.324   1.320  0.4701  0.0069 -0.5689
14804TIP3    H165827   6.359   1.415   1.324  0.8303  0.1323 -0.7520
14804TIP3    H265828   6.317   1.278   1.277  0.8585  0.4511 -1.7364
14805TIP3   OH265829   1.758   5.703   0.066 -0.7170 -0.2376 -0.2809
14805TIP3    H165830   1.750   5.798   0.066  0.9705 -0.0710  0.0270
14805TIP3    H265831   1.847   5.686   0.095 -1.2188 -1.9446  0.4051
14806TIP3   OH265832   2.188   1.678   4.362 -0.0023  0.3901 -0.6745
14806TIP3    H165833   2.147   1.685   4.448  0.9486  0.3024 -0.1988
14806TIP3    H265834   2.125   1.629   4.309  0.1470 -1.0832  0.4681
14807TIP3   OH265835   2.637   1.312  14.856  0.7239 -0.5162  0.1743
14807TIP3    H165836   2.544   1.289  14.856  1.0018 -1.7498  1.3747
14807TIP3    H265837   2.666   1.298  14.946  1.7167  1.5059  0.2427
14808TIP3   OH265838   2.937   2.647   5.820 -0.4007  0.3159 -0.0737
14808TIP3    H165839   2.911   2.677   5.907 -0.7649 -0.8018  0.2173
14808TIP3    H265840   2.979   2.563   5.836 -0.3867  0.1466 -0.9775
14809TIP3   OH265841   1.579   2.655   4.830  0.0436 -0.2014 -0.2965
14809TIP3    H165842   1.504   2.612   4.871  0.1259  0.0982  0.1713
14809TIP3    H265843   1.545   2.687   4.746 -1.2456  2.6819  1.2096
14810TIP3   OH265844   2.637   6.294   5.258 -0.1390  0.3958 -0.0772
14810TIP3    H165845   2.610   6.329   5.173  1.2311  1.0657 -0.2627
14810TIP3    H265846   2.555   6.282   5.306 -1.0006 -0.7639 -1.7530
14811TIP3   OH265847   3.562   5.199   1.463 -0.3837 -0.2885  0.3775
14811TIP3    H165848   3.649   5.158   1.461  0.5479  1.4901  1.1755
14811TIP3    H265849   3.559   5.243   1.548 -2.1654 -0.4628  0.4360
14812TIP3   OH265850   6.256   6.421  14.915 -0.1909 -0.1180 -0.5975
14812TIP3    H165851   6.215   6.458  14.837 -0.8150  1.9482  0.6259
14812TIP3    H265852   6.189   6.425  14.982  0.3126 -1.9131  0.0860
14813TIP3   OH265853   2.833   5.774  13.804 -0.2128 -0.3774 -0.5569
14813TIP3    H165854   2.886   5.707  13.847 -0.6803  0.1105  0.8440
14813TIP3    H265855   2.778   5.810  13.874 -0.1345  1.3091 -1.3052
14814TIP3   OH265856   5.002   1.252   2.339  0.0861 -0.6714  0.7641
14814TIP3    H165857   4.940   1.266   2.268 -0.6878 -2.8542  0.9247
14814TIP3    H265858   5.079   1.215   2.297  0.6265  0.3935  0.7846
14815TIP3   OH265859   2.409   1.604   6.144  0.1645 -0.3827 -0.0785
14815TIP3    H165860   2.401   1.655   6.224 -0.2584 -0.2086 -0.2333
14815TIP3    H265861   2.322   1.568   6.129  0.9000 -2.9760  1.2274
14816TIP3   OH265862   3.813   0.714  14.889  0.4591 -0.6250  0.2249
14816TIP3    H165863   3.875   0.715  14.816 -0.4470  0.2140 -0.5500
14816TIP3    H265864   3.865   0.744  14.964  0.7712  1.0396 -0.6104
14817TIP3   OH265865   4.867   3.529   4.812  0.1915 -0.0456  0.1871
14817TIP3    H165866   4.809   3.590   4.766 -2.2638 -0.7438  2.1095
14817TIP3    H265867   4.926   3.585   4.862 -0.0681  0.7228 -0.3470
14818TIP3   OH265868   0.123   2.797   3.775  0.0029 -0.0885  0.3378
14818TIP3    H165869   0.152   2.707   3.759 -2.6460 -0.7774 -1.1311
14818TIP3    H265870   0.126   2.806   3.870  0.6441 -1.6243  0.4902
14819TIP3   OH265871   5.693   4.238  12.802 -0.4904  0.0169  0.1481
14819TIP3    H165872   5.742   4.214  12.880 -1.2227  0.2343  0.6927
14819TIP3    H265873   5.705   4.164  12.742  2.2344  0.9773 -0.6162
14820TIP3   OH265874   6.653   4.451  10.849  0.0295  0.6864 -0.0371
14820TIP3    H165875   6.579   4.473  10.906  0.9543  0.3119  1.3810
14820TIP3    H265876   6.727   4.498  10.888  0.6081  0.8079 -1.2443
14821TIP3   OH265877   3.531   1.157   6.782 -0.2105 -0.1186 -0.7888
14821TIP3    H165878   3.626   1.144   6.778 -0.4992 -2.5849 -1.2864
14821TIP3    H265879   3.512   1.217   6.710  0.9759  0.6654 -0.4802
14822TIP3   OH265880   1.864   2.977  12.408  0.0928 -0.4565 -0.3781
14822TIP3    H165881   1.915   2.965  12.488  1.3978 -0.2587 -1.1449
14822TIP3    H265882   1.885   2.901  12.354 -1.5290 -1.0787 -0.1672
14823TIP3   OH265883   3.843   2.140  13.479  0.6359  0.1010 -0.9786
14823TIP3    H165884   3.938   2.128  13.489  0.5093  0.2531  0.7514
14823TIP3    H265885   3.806   2.102  13.558 -0.5846  1.8988 -0.6269
14824TIP3   OH265886   4.365   2.477  17.271 -0.9065 -0.6037 -0.3692
14824TIP3    H165887   4.336   2.420  17.342 -1.8383  0.6386  0.2999
14824TIP3    H265888   4.383   2.561  17.314 -0.1381 -0.2244 -1.3979
14825TIP3   OH265889   2.779   2.481  13.170  0.0976  0.1896  0.1058
14825TIP3    H165890   2.749   2.476  13.079  0.3256 -0.8446  0.0724
14825TIP3    H265891   2.784   2.575  13.188 -0.3238  0.4079 -0.8231
14826TIP3   OH265892   3.982   6.648   5.588  0.1582 -0.0742  0.3882
14826TIP3    H165893   4.015   6.560   5.605 -0.1305  0.1023  1.9971
14826TIP3    H265894   3.986   6.657   5.493  2.8807 -0.7804  0.3645
14827TIP3   OH265895   6.361   6.002  12.617  0.3198  0.0080  0.6120
14827TIP3    H165896   6.414   5.923  12.609 -0.0761 -0.2053  0.0308
14827TIP3    H265897   6.414   6.070  12.574 -0.3249 -0.4319 -0.9593
14828TIP3   OH265898   1.695   6.732   1.624 -0.0677  0.4866  0.3005
14828TIP3    H165899   1.698   6.735   1.720 -0.1482 -0.5574  0.3434
14828TIP3    H265900   1.623   6.672   1.604  0.9308 -0.5169 -0.3964
14829TIP3   OH265901   0.141   3.007  11.269  0.8204 -0.4757 -0.0660
14829TIP3    H165902   0.091   2.972  11.196  1.4026 -1.1520 -0.1489
14829TIP3    H265903   0.099   3.091  11.289  0.3201 -0.5400 -0.8164
14830TIP3   OH265904   5.154   0.208   2.491 -0.3438  0.1898  0.3470
14830TIP3    H165905   5.194   0.121   2.498 -0.0482  0.0317 -2.3346
14830TIP3    H265906   5.224   0.268   2.518 -0.2993 -0.3388  1.4739
14831TIP3   OH265907   0.624   2.630   6.653 -0.1185  0.0002  0.9814
14831TIP3    H165908   0.708   2.667   6.679  0.2318 -0.6866  0.8482
14831TIP3    H265909   0.583   2.698   6.599 -0.0033  0.6508  1.7146
14832TIP3   OH265910   2.746   0.087   0.665 -0.3016  0.2059 -0.0203
14832TIP3    H165911   2.808   0.076   0.736 -1.0378  0.1045  0.6189
14832TIP3    H265912   2.660   0.082   0.707 -0.7468  1.8578 -0.6470
14833TIP3   OH265913   0.476   4.577   3.211  0.5308  0.1769 -0.1792
14833TIP3    H165914   0.517   4.603   3.293  0.1482  0.1036  0.0363
14833TIP3    H265915   0.543   4.525   3.167  1.6164  2.1580 -0.9883
14834TIP3   OH265916   5.557   2.824   2.085  0.5721  0.1589  0.0354
14834TIP3    H165917   5.547   2.887   2.156 -2.5289  0.3127 -0.4044
14834TIP3    H265918   5.575   2.741   2.129 -1.1171  0.2885  1.0479
14835TIP3   OH265919   3.645   3.594  11.350  0.2704 -0.2289 -0.8437
14835TIP3    H165920   3.551   3.611  11.357  0.7646  2.1835  3.0279
14835TIP3    H265921   3.682   3.674  11.312  0.9318 -0.1260 -0.0267
14836TIP3   OH265922   6.032   1.852   4.777  0.1627  0.0971 -0.3212
14836TIP3    H165923   6.085   1.859   4.856  0.4527 -0.6776 -0.4354
14836TIP3    H265924   6.010   1.942   4.755  0.9580  0.3956  0.0500
14837TIP3   OH265925   5.781   6.653  16.329 -0.4411  0.2817 -0.2832
14837TIP3    H165926   5.730   6.623  16.404 -0.6525 -1.4728 -1.0832
14837TIP3    H265927   5.826   6.575  16.297  0.1158  1.1109 -1.6170
14838TIP3   OH265928   4.739   2.514   3.193  0.3128 -0.4762 -0.3302
14838TIP3    H165929   4.700   2.431   3.167  0.0217 -0.2273 -0.7034
14838TIP3    H265930   4.664   2.569   3.219  0.5241 -0.4158  0.1568
14839TIP3   OH265931   0.922   1.239   2.995 -1.3009  0.1453 -0.1933
14839TIP3    H165932   0.857   1.268   2.931 -0.7357  2.3797  0.1600
14839TIP3    H265933   0.891   1.275   3.078 -1.1299 -1.2816  0.5161
14840TIP3   OH265934   0.027   3.475   3.740 -0.4647 -0.3975  0.5968
14840TIP3    H165935  -0.035   3.414   3.700 -3.0919  1.3345  1.7067
14840TIP3    H265936  -0.024   3.517   3.810  2.4136  0.2185  2.4686
14841TIP3   OH265937   5.485   5.259   1.170 -0.7076 -0.5248  0.0831
14841TIP3    H165938   5.448   5.299   1.249  0.7613 -1.4665  1.3298
14841TIP3    H265939   5.438   5.177   1.161 -0.5424 -0.6457  0.2929
14842TIP3   OH265940   6.389   4.815  13.563  0.0313  0.4356  0.2468
14842TIP3    H165941   6.403   4.747  13.629 -0.1647 -0.4009 -0.5579
14842TIP3    H265942   6.434   4.892  13.598  1.7440 -0.5853  0.3866
14843TIP3   OH265943   2.634   4.647  15.112 -0.0639 -0.2579 -0.0300
14843TIP3    H165944   2.541   4.668  15.106 -0.1940 -1.0418 -1.0739
14843TIP3    H265945   2.677   4.710  15.055 -0.3591 -2.0609 -2.4078
14844TIP3   OH265946   6.433   4.176  11.227 -0.0285 -0.4088 -0.6974
14844TIP3    H165947   6.338   4.169  11.232 -0.1555  1.4763  0.5941
14844TIP3    H265948   6.449   4.230  11.150 -0.1116  0.5073 -0.0864
14845TIP3   OH265949   3.235   2.718   6.253  0.3629 -0.4758 -0.2030
14845TIP3    H165950   3.267   2.801   6.288 -2.8756  1.0561 -0.4785
14845TIP3    H265951   3.260   2.653   6.317  1.2699  1.0472  1.0622
14846TIP3   OH265952   2.150   1.807  11.431  0.2245  0.3898 -0.2619
14846TIP3    H165953   2.169   1.771  11.344  0.8195 -0.4765  0.2102
14846TIP3    H265954   2.105   1.889  11.413 -1.1447 -0.5535 -1.3810
14847TIP3   OH265955   1.136   2.880  15.831 -0.2432  0.4533  0.3070
14847TIP3    H165956   1.114   2.972  15.819  1.1705  0.9017  0.8980
14847TIP3    H265957   1.129   2.841  15.744 -3.1278  0.5585  0.4190
14848TIP3   OH265958   0.294   1.967  14.451  0.4289  0.2516 -0.7707
14848TIP3    H165959   0.387   1.951  14.436  0.8171 -1.4421  2.6316
14848TIP3    H265960   0.284   2.062  14.442  2.2648  0.3825 -1.9189
14849TIP3   OH265961   5.567   1.610   5.445 -0.1706  0.2267  0.0479
14849TIP3    H165962   5.607   1.596   5.530  1.3597  0.6349 -0.5740
14849TIP3    H265963   5.490   1.553   5.445 -0.3374  0.3853  1.7634
14850TIP3   OH265964   0.503   0.946  11.825  0.3695 -0.4878 -0.2488
14850TIP3    H165965   0.441   0.976  11.892  0.8769  1.3825 -0.5682
14850TIP3    H265966   0.583   0.995  11.843  0.1667  0.9655 -2.8991
14851TIP3   OH265967   4.698   3.866  14.367 -0.0604  0.5509 -0.0690
14851TIP3    H165968   4.684   3.880  14.273  1.3574 -0.6672 -0.5037
14851TIP3    H265969   4.635   3.798  14.391 -0.3961  0.8326 -0.1501
14852TIP3   OH265970   6.532   5.446   4.949 -0.2251 -0.3143 -0.3948
14852TIP3    H165971   6.595   5.496   4.897  0.3840  2.8081  2.9690
14852TIP3    H265972   6.447   5.481   4.923 -0.1763 -0.7400 -1.1616
14853TIP3   OH265973   6.041   6.037  14.128  0.4425 -0.2245  0.1972
14853TIP3    H165974   6.015   6.021  14.218  0.3250 -0.2533  0.1573
14853TIP3    H265975   6.120   5.984  14.116 -0.4137 -1.4609 -0.1974
14854TIP3   OH265976   2.475   0.379  16.913  0.0124  0.2006  0.3260
14854TIP3    H165977   2.409   0.394  16.845  0.8464  0.7875 -0.3701
14854TIP3    H265978   2.436   0.311  16.969 -0.4526 -0.7347 -1.0643
14855TIP3   OH265979   1.103   4.003  11.023  0.1885 -0.4800 -0.9461
14855TIP3    H165980   1.021   3.955  11.013 -0.1168 -0.2405  0.2315
14855TIP3    H265981   1.098   4.074  10.959 -1.1079  0.2808 -0.0499
14856TIP3   OH265982   1.805   0.819   4.198  0.6967 -0.1522  0.0007
14856TIP3    H165983   1.887   0.789   4.159  0.7763 -1.3615  1.0119
14856TIP3    H265984   1.829   0.853   4.284  0.2201  0.1187  0.0342
14857TIP3   OH265985   1.467   2.984  16.763  0.0891  0.0927  0.1389
14857TIP3    H165986   1.515   3.062  16.792  1.4378  0.2256 -2.1555
14857TIP3    H265987   1.388   3.018  16.722  0.6604  0.3053 -0.8309
14858TIP3   OH265988   2.184   5.421  11.515 -0.0633 -0.2621 -0.8922
14858TIP3    H165989   2.093   5.395  11.529 -0.3650  1.4948  0.8345
14858TIP3    H265990   2.234   5.341  11.531 -1.2507 -1.1598 -1.4715
14859TIP3   OH265991   2.052   3.180  14.013 -0.1186  0.4673  0.1104
14859TIP3    H165992   2.131   3.210  13.969  0.0095  1.1316  0.7631
14859TIP3    H265993   2.008   3.124  13.949  0.4727  0.7396 -0.5442
14860TIP3   OH265994   2.445   1.969  12.823  0.1995  0.0143  0.4427
14860TIP3    H165995   2.457   1.957  12.917  1.0853 -1.2723  0.1845
14860TIP3    H265996   2.413   1.884  12.792  2.1929 -0.3471 -0.7669
14861TIP3   OH265997   4.167   2.119   1.855 -0.2216 -0.1143  0.1834
14861TIP3    H165998   4.152   2.125   1.949  0.2993 -0.1338  0.2695
14861TIP3    H265999   4.089   2.159   1.816 -1.1206 -1.4376  0.5814
14862TIP3   OH266000   2.116   4.784  11.699  0.4933  0.4768  0.1773
14862TIP3    H166001   2.134   4.760  11.790 -1.4008  0.8198  0.6768
14862TIP3    H266002   2.075   4.707  11.661  0.7565  0.5337 -0.2270
14863TIP3   OH266003   6.650   1.630   4.220  0.3629  0.1256  0.0282
14863TIP3    H166004   6.673   1.708   4.269  2.4316  0.8417 -1.9334
14863TIP3    H266005   6.714   1.564   4.248  0.3724 -0.0199 -0.3298
14864TIP3   OH266006   4.720   1.488  16.424 -0.3569  0.2172 -0.2654
14864TIP3    H166007   4.654   1.555  16.443  1.4956  2.0621  0.0425
14864TIP3    H266008   4.689   1.410  16.470 -1.5089  1.4709  1.1843
14865TIP3   OH266009   1.961   6.208   4.883  0.2368 -0.2782 -0.2413
14865TIP3    H166010   2.045   6.244   4.857  0.5481 -0.9021 -0.1204
14865TIP3    H266011   1.906   6.215   4.805 -0.2025  1.8323  0.1970
14866TIP3   OH266012   5.933   4.007   2.939  0.2816  0.6694 -0.0367
14866TIP3    H166013   5.923   3.928   2.886  0.5367 -0.1825  1.1248
14866TIP3    H266014   5.844   4.030   2.965  0.0789  1.5620 -1.4653
14867TIP3   OH266015   1.252   0.238   4.601  0.9534 -0.2991  0.7009
14867TIP3    H166016   1.186   0.282   4.654 -0.1399  0.8746 -1.4927
14867TIP3    H266017   1.225   0.254   4.511  3.6882 -0.6725 -0.2778
14868TIP3   OH266018   2.103   4.110   3.340 -0.3163  0.0728 -0.5642
14868TIP3    H166019   2.183   4.106   3.394 -0.3817  2.9008 -0.1080
14868TIP3    H266020   2.109   4.034   3.283  2.8039  0.2227 -0.6157
14869TIP3   OH266021   4.145   5.773   1.834  0.0764 -0.1996 -0.2102
14869TIP3    H166022   4.102   5.748   1.752  0.3690 -1.6905  0.0649
14869TIP3    H266023   4.211   5.705   1.848 -1.3122 -1.1741  2.2946
14870TIP3   OH266024   5.757   6.097  14.097  0.1150  0.0926  0.0685
14870TIP3    H166025   5.850   6.078  14.110  0.0645  0.2196  0.6009
14870TIP3    H266026   5.718   6.094  14.184 -0.3622  0.1597 -0.1358
14871TIP3   OH266027   1.757   0.447   5.372  0.2285  0.6982  0.3081
14871TIP3    H166028   1.664   0.461   5.355  0.0258  0.4999  1.1868
14871TIP3    H266029   1.778   0.365   5.327 -0.5098 -0.2981  1.7173
14872TIP3   OH266030   0.268   5.567  11.723  0.9088  0.2897  0.1518
14872TIP3    H166031   0.242   5.654  11.754  2.2747  1.1234 -0.9016
14872TIP3    H266032   0.237   5.564  11.632  1.3185 -0.1106  0.0221
14873TIP3   OH266033   1.022   3.992  11.775 -0.1714 -0.2508  0.4652
14873TIP3    H166034   1.007   4.055  11.845 -0.3517 -0.6205  0.7628
14873TIP3    H266035   1.118   3.986  11.768 -0.1141  1.5745 -0.9574
14874TIP3   OH266036   1.784   0.041  13.515  0.3709 -0.1175 -0.3699
14874TIP3    H166037   1.779   0.086  13.600 -0.9343 -1.7761  0.4943
14874TIP3    H266038   1.763   0.109  13.451  0.7457  1.0277  0.6798
14875TIP3   OH266039   2.782   4.491  16.175  0.0110 -0.4640  0.0490
14875TIP3    H166040   2.731   4.481  16.255  0.9299 -0.9559  0.5834
14875TIP3    H266041   2.723   4.460  16.106 -0.9926  0.4994  0.4426
14876TIP3   OH266042   5.820   5.318   2.347  0.0599 -0.1475  1.0613
14876TIP3    H166043   5.824   5.352   2.257  2.3051 -1.5461  0.5542
14876TIP3    H266044   5.732   5.281   2.355  0.5413 -2.0953 -1.4248
14877TIP3   OH266045   5.641   3.288   3.335 -0.1078 -0.1263  0.2402
14877TIP3    H166046   5.670   3.268   3.424 -3.1529 -0.2037  1.3195
14877TIP3    H266047   5.628   3.383   3.335 -0.5171 -0.1813  0.0072
14878TIP3   OH266048   4.730   5.001  15.604  0.1404 -0.1361 -0.3961
14878TIP3    H166049   4.656   5.019  15.662 -0.4375 -1.9283 -0.5349
14878TIP3    H266050   4.807   5.004  15.661 -0.3620 -1.2843  0.3619
14879TIP3   OH266051   2.327   4.699  14.989 -0.1631  0.6542  0.3672
14879TIP3    H166052   2.317   4.663  14.900  2.1535 -1.2206  0.7436
14879TIP3    H266053   2.347   4.792  14.975  2.7457 -0.0887 -1.3593
14880TIP3   OH266054   5.859   3.898   0.101  0.1108  0.3098 -0.3779
14880TIP3    H166055   5.943   3.936   0.075  0.1312  2.0089  1.8789
14880TIP3    H266056   5.795   3.967   0.083 -0.6002 -0.3912 -0.6134
14881TIP3   OH266057   1.619   1.693  15.176 -0.2225  0.0116 -0.5649
14881TIP3    H166058   1.585   1.632  15.111 -2.0163  0.0498  0.2790
14881TIP3    H266059   1.581   1.663  15.259  0.7878  0.8720  0.2426
14882TIP3   OH266060   5.188   0.496  10.492 -0.3952 -0.9796 -0.2088
14882TIP3    H166061   5.219   0.568  10.547  1.3658 -2.2674  0.5977
14882TIP3    H266062   5.095   0.491  10.511 -0.3576  0.3976  0.5319
14883TIP3   OH266063   0.362   6.705   4.127 -0.4876  0.3432  0.1783
14883TIP3    H166064   0.356   6.782   4.071 -2.4316  0.7064  0.8236
14883TIP3    H266065   0.444   6.717   4.176  0.2924  0.9286 -1.2259
14884TIP3   OH266066   2.691   2.926  12.274  0.2233  0.2670 -0.3009
14884TIP3    H166067   2.641   2.952  12.197  0.0722 -0.0754 -0.3241
14884TIP3    H266068   2.650   2.844  12.302  1.1243 -0.3211 -0.6516
14885TIP3   OH266069   2.905   0.444   4.705 -0.4969  0.3834  0.1381
14885TIP3    H166070   2.867   0.359   4.679 -2.2614  1.0100  0.4922
14885TIP3    H266071   2.868   0.506   4.643 -1.0241  1.2080  1.2543
14886TIP3   OH266072   0.367   0.637   3.626  0.3376  0.0049  0.2657
14886TIP3    H166073   0.300   0.683   3.677  0.1298 -1.4723  1.3734
14886TIP3    H266074   0.319   0.600   3.552  0.2522  0.3349  0.1508
14887TIP3   OH266075   5.512   4.212   3.528  0.9306  0.0265 -0.7688
14887TIP3    H166076   5.584   4.199   3.466  1.4765  1.1507 -0.4006
14887TIP3    H266077   5.433   4.192   3.477  1.4755 -0.8980 -1.2765
14888TIP3   OH266078   5.531   1.429  13.741 -0.5323 -0.3258 -0.0282
14888TIP3    H166079   5.565   1.352  13.695 -0.3292 -0.5826  0.5458
14888TIP3    H266080   5.474   1.471  13.677 -2.1728 -1.9965  0.2517
14889TIP3   OH266081   1.022   2.446  16.204  0.3285 -0.5277 -0.0442
14889TIP3    H166082   1.059   2.361  16.179  1.3700 -0.4168  1.0635
14889TIP3    H266083   1.052   2.506  16.135 -0.1237 -0.9733 -0.6424
14890TIP3   OH266084   2.710   0.472  12.293 -0.4608 -0.5005  0.1845
14890TIP3    H166085   2.805   0.484  12.299 -0.7272  1.2310  1.5414
14890TIP3    H266086   2.674   0.559  12.308 -2.2624 -0.8978 -1.4366
14891TIP3   OH266087   3.516   4.245   3.247  0.0667  0.2930 -0.2412
14891TIP3    H166088   3.477   4.158   3.246  1.1886 -0.2304 -0.6051
14891TIP3    H266089   3.473   4.292   3.176 -3.6286  1.5308  2.5107
14892TIP3   OH266090   5.772   4.881   4.229  0.0860  0.0262 -0.0392
14892TIP3    H166091   5.796   4.870   4.321  0.9643  1.5096 -0.0618
14892TIP3    H266092   5.729   4.967   4.225 -0.0647 -0.0735 -0.9998
14893TIP3   OH266093   3.734   3.803  13.527 -0.5892 -0.8565 -0.0625
14893TIP3    H166094   3.785   3.744  13.582 -0.9435 -1.6859 -0.6085
14893TIP3    H266095   3.686   3.858  13.588  0.3745 -0.5691  0.4587
14894TIP3   OH266096   5.762   3.593  16.215 -0.2262  0.3551  0.5410
14894TIP3    H166097   5.820   3.637  16.277  1.4284 -1.6283  0.4880
14894TIP3    H266098   5.765   3.501  16.240 -2.1756 -0.0277 -0.4355
14895TIP3   OH266099   3.895   6.665   1.391  0.3832  0.0106 -0.0034
14895TIP3    H166100   3.803   6.680   1.413  0.1302 -0.6656 -0.5301
14895TIP3    H266101   3.903   6.694   1.300  0.6271 -0.1547 -0.0365
14896TIP3   OH266102   3.714   5.517  12.365 -0.1658 -0.6983  0.0523
14896TIP3    H166103   3.637   5.530  12.420 -0.6209 -0.1010 -0.7137
14896TIP3    H266104   3.745   5.606  12.345  0.0252 -0.9073 -0.6060
14897TIP3   OH266105   5.311   2.340   2.866 -0.2959 -0.1895 -0.3960
14897TIP3    H166106   5.361   2.422   2.877 -2.1651  0.8158  1.0843
14897TIP3    H266107   5.366   2.287   2.809  1.7601  1.4483 -0.0737
14898TIP3   OH266108   5.485   1.713  17.385 -0.2950 -0.1815  0.3058
14898TIP3    H166109   5.574   1.698  17.354 -0.2283 -0.3080  0.5630
14898TIP3    H266110   5.442   1.628  17.381 -0.3874 -0.1335  0.2444
14899TIP3   OH266111   1.072   1.107   2.742 -0.0731 -0.3058 -0.0754
14899TIP3    H166112   1.063   1.151   2.657 -1.1208 -1.0906 -0.3957
14899TIP3    H266113   1.158   1.065   2.738  0.2800  0.4259 -0.3733
14900TIP3   OH266114   1.046   0.622  12.082  0.0715  0.0900 -0.4312
14900TIP3    H166115   0.971   0.678  12.063 -0.1298  0.2870  0.8403
14900TIP3    H266116   1.122   0.676  12.061 -0.1278  0.6382  0.2169
14901TIP3   OH266117   4.655   0.862   2.351  0.2359 -0.5603 -0.3689
14901TIP3    H166118   4.617   0.835   2.267  0.6037 -1.5244 -0.2391
14901TIP3    H266119   4.711   0.936   2.329  0.5183 -0.9595 -1.0226
14902TIP3   OH266120   2.317   5.301  16.062 -0.0994  0.2793  0.0719
14902TIP3    H166121   2.303   5.224  16.118 -1.8497 -0.0670 -0.7708
14902TIP3    H266122   2.406   5.330  16.083 -0.2120 -0.6271  2.0401
14903TIP3   OH266123   6.430   3.875   0.885  0.2906  0.6572  0.0398
14903TIP3    H166124   6.367   3.915   0.824  0.3717  0.9106  0.1205
14903TIP3    H266125   6.467   3.802   0.836  1.0072  1.3931 -0.5536
14904TIP3   OH266126   5.905   4.226  10.501  0.0757 -0.2418  0.3155
14904TIP3    H166127   5.867   4.307  10.466 -0.9722 -0.7318  0.2641
14904TIP3    H266128   5.911   4.241  10.595  1.4507  0.5020  0.1343
14905TIP3   OH266129   6.546   6.328  11.873 -0.3961  0.1774  0.3782
14905TIP3    H166130   6.566   6.294  11.960 -0.8232 -1.0802  0.0090
14905TIP3    H266131   6.604   6.403  11.863  0.6482 -0.4810  1.2206
14906TIP3   OH266132   3.160   3.728   6.369  0.5471  0.1380  0.3817
14906TIP3    H166133   3.212   3.652   6.395  1.1896  0.0582 -1.0737
14906TIP3    H266134   3.106   3.697   6.297  0.6205  0.9786 -0.0509
14907TIP3   OH266135   2.790   6.308  16.829 -0.2738  0.1887  0.5323
14907TIP3    H166136   2.786   6.403  16.821 -2.1607  0.0226 -1.2815
14907TIP3    H266137   2.753   6.275  16.747  0.8782 -2.1389  0.8396
14908TIP3   OH266138   5.595   1.145  12.274 -0.1540 -0.1913 -0.5407
14908TIP3    H166139   5.593   1.099  12.190 -1.9681 -0.1823 -0.5470
14908TIP3    H266140   5.583   1.237  12.252 -0.4622 -0.1689 -0.2847
14909TIP3   OH266141   5.262   6.027  14.920  0.3830  0.1410  0.5061
14909TIP3    H166142   5.175   5.990  14.907 -0.1748  1.1546  1.3079
14909TIP3    H266143   5.316   5.985  14.852 -0.6795 -0.6130  0.1097
14910TIP3   OH266144   5.863   5.790  16.519  0.0803  0.0910  0.3504
14910TIP3    H166145   5.860   5.706  16.564 -0.2204 -0.7833 -1.2677
14910TIP3    H266146   5.775   5.803  16.485 -0.0933  1.4529  1.2299
14911TIP3   OH266147   3.135   5.077  13.755  0.2366 -0.1803 -0.5573
14911TIP3    H166148   3.223   5.042  13.750 -0.6872 -2.7496 -0.0850
14911TIP3    H266149   3.146   5.164  13.795  2.5841 -0.0710 -1.3237
14912TIP3   OH266150   6.132   5.104   0.358 -0.1163 -0.4563  0.2500
14912TIP3    H166151   6.189   5.028   0.348 -0.8141 -0.9631  0.0105
14912TIP3    H266152   6.156   5.162   0.286  0.5284 -0.3797  0.5275
14913TIP3   OH266153   5.776   4.964  17.140 -0.2571  0.4762  0.1441
14913TIP3    H166154   5.838   4.926  17.078  1.2291  1.3063  1.0439
14913TIP3    H266155   5.829   5.026  17.191 -1.4556 -0.0303  2.0987
14914TIP3   OH266156   4.088   0.442   0.729 -0.0261  0.0524 -0.5120
14914TIP3    H166157   4.037   0.519   0.753  0.9859  0.3713  0.6419
14914TIP3    H266158   4.071   0.431   0.635 -2.7897 -0.2819 -0.0583
14915TIP3   OH266159   2.016   5.927  16.312  0.2486 -0.3274  0.3847
14915TIP3    H166160   2.062   5.893  16.389 -1.4299  0.4228  1.7905
14915TIP3    H266161   2.017   6.022  16.324 -2.0836 -0.3048  0.7704
14916TIP3   OH266162   1.703   6.213  12.045 -0.2067  0.1324 -0.8097
14916TIP3    H166163   1.670   6.248  11.962  0.5470 -0.5262 -1.4029
14916TIP3    H266164   1.656   6.262  12.113  0.0396  1.5383 -1.6162
14917TIP3   OH266165   2.854   3.365  17.163 -0.6627  0.0962 -0.1984
14917TIP3    H166166   2.892   3.325  17.085  0.1749  0.6064 -0.0535
14917TIP3    H266167   2.772   3.317  17.177 -0.9054  0.1033 -1.4808
14918TIP3   OH266168   3.038   1.655  12.311  0.0211  0.1365  0.1817
14918TIP3    H166169   3.101   1.701  12.366 -0.8905 -0.7169  2.0327
14918TIP3    H266170   2.953   1.679  12.346 -0.5900 -0.6836 -0.6717
14919TIP3   OH266171   6.091   5.721   1.964  0.3116 -0.0431 -0.0613
14919TIP3    H166172   6.088   5.708   1.869 -1.7970  1.4900 -0.2691
14919TIP3    H266173   6.119   5.637   1.999 -0.0486 -1.0054 -1.9703
14920TIP3   OH266174   3.526   0.234   5.528 -0.2836  0.1602 -0.2146
14920TIP3    H166175   3.501   0.222   5.437  0.2227  0.0609 -0.3434
14920TIP3    H266176   3.514   0.328   5.543  0.8055  0.3983 -0.7502
14921TIP3   OH266177   1.448   4.703  11.865  0.2686  0.2781 -0.3037
14921TIP3    H166178   1.429   4.609  11.861 -0.8282  0.4710  0.0664
14921TIP3    H266179   1.388   4.743  11.802  0.0823  0.8250  0.2107
14922TIP3   OH266180   0.684   6.243   1.771  0.3025  0.3010 -0.2840
14922TIP3    H166181   0.612   6.184   1.748  0.4025  0.0564  0.0262
14922TIP3    H266182   0.703   6.223   1.862  2.1330 -1.1149 -0.8999
14923TIP3   OH266183   5.151   5.332   1.781 -0.5529 -0.5420 -0.4429
14923TIP3    H166184   5.074   5.288   1.817  0.5627 -1.3336  1.1069
14923TIP3    H266185   5.153   5.417   1.824 -0.3418 -0.6895 -0.1550
14924TIP3   OH266186   1.271   5.785  14.564  0.7352 -0.6778 -0.4586
14924TIP3    H166187   1.288   5.868  14.609 -1.3243 -0.3778 -0.1694
14924TIP3    H266188   1.293   5.718  14.629  1.8392 -0.3782 -0.4961
14925TIP3   OH266189   6.054   3.578   2.362  0.6211 -0.3411  0.1461
14925TIP3    H166190   6.078   3.643   2.296 -0.7357 -0.9714 -1.0346
14925TIP3    H266191   5.976   3.614   2.404 -0.7189 -1.5719 -1.1748
14926TIP3   OH266192   1.106   6.496   0.033  0.3475  0.0174  1.0511
14926TIP3    H166193   1.061   6.528  -0.046 -0.5139  0.9193  1.8601
14926TIP3    H266194   1.050   6.426   0.066  1.5183 -1.4448  0.0396
14927TIP3   OH266195   6.416   6.438  13.713 -0.3626  0.1340  0.2309
14927TIP3    H166196   6.447   6.408  13.627  2.7529 -0.5531  1.4547
14927TIP3    H266197   6.387   6.358  13.757 -2.0808  0.5029 -0.1454
14928TIP3   OH266198   5.510   5.738   5.984  0.3068  0.0192  0.0661
14928TIP3    H166199   5.512   5.826   6.021  1.3918  0.2703 -0.5418
14928TIP3    H266200   5.417   5.720   5.970  0.0324  3.1078 -4.4422
14929TIP3   OH266201   1.894   2.976  16.777 -0.2431  0.1241  0.7265
14929TIP3    H166202   1.927   2.929  16.700 -1.1500 -0.2901  0.5811
14929TIP3    H266203   1.906   3.068  16.755 -1.2765  0.0307 -0.2774
14930TIP3   OH266204   0.776   1.579  13.217 -0.0496  0.3866  0.6367
14930TIP3    H166205   0.714   1.649  13.195  0.5016  0.3973 -1.0880
14930TIP3    H266206   0.725   1.516  13.267 -1.4988  0.3720 -0.7605
14931TIP3   OH266207   0.514   4.761   4.372 -0.2101 -0.7114 -0.4759
14931TIP3    H166208   0.605   4.734   4.369  1.1969  3.3935 -0.8587
14931TIP3    H266209   0.479   4.742   4.285  1.0227 -0.1536 -1.1034
14932TIP3   OH266210   0.600   4.707  13.011  1.0005 -0.1289  0.1464
14932TIP3    H166211   0.644   4.622  13.003 -0.0280 -0.6199 -0.4382
14932TIP3    H266212   0.535   4.695  13.080 -0.3482 -0.3762 -1.1114
14933TIP3   OH266213   3.362   2.900   2.834  0.0410  0.2864  0.2273
14933TIP3    H166214   3.385   2.907   2.927  0.8534 -1.4151  0.1881
14933TIP3    H266215   3.440   2.930   2.787  0.1626 -0.2055  0.1053
14934TIP3   OH266216   4.319   1.697  10.769  0.1140 -0.4475  0.0056
14934TIP3    H166217   4.349   1.692  10.860 -1.0214  0.3107  0.4444
14934TIP3    H266218   4.277   1.612  10.753 -0.8125 -0.1212  0.6232
14935TIP3   OH266219   4.050   2.515   2.218 -0.2610  0.9755  0.0891
14935TIP3    H166220   4.117   2.583   2.208  0.4828  0.4660  1.3031
14935TIP3    H266221   4.023   2.522   2.309 -1.2860  0.6319 -0.1821
14936TIP3   OH266222   1.207   3.784   3.974  0.2812  0.6032  0.8663
14936TIP3    H166223   1.228   3.702   4.020  0.1541  0.9153  1.4783
14936TIP3    H266224   1.163   3.755   3.894  1.5516  0.0099  0.3616
14937TIP3   OH266225   3.082   2.284   2.235 -0.3088 -0.2975  0.1113
14937TIP3    H166226   2.991   2.302   2.256 -0.2153 -0.0109  0.2642
14937TIP3    H266227   3.099   2.199   2.276 -0.3819 -0.1528  0.4453
14938TIP3   OH266228   0.231   3.288  15.775 -0.3039  0.2177 -0.2048
14938TIP3    H166229   0.143   3.325  15.784 -0.6755 -0.9545  1.5216
14938TIP3    H266230   0.279   3.321  15.851  1.4574  2.4523 -2.1302
14939TIP3   OH266231   3.683   0.029  17.297 -0.7799 -0.4001  1.5141
14939TIP3    H166232   3.739   0.081  17.241 -2.0236  1.2696  1.7677
14939TIP3    H266233   3.705  -0.062  17.275 -0.4235  0.1910 -0.8174
14940TIP3   OH266234   0.542   5.660   0.162  1.1684  0.2978 -0.3767
14940TIP3    H166235   0.535   5.671   0.257  1.2064  1.0151 -0.4462
14940TIP3    H266236   0.481   5.590   0.141 -0.6976  1.7638 -0.1117
14941TIP3   OH266237   2.553   2.166   2.362  0.3384 -0.2103  0.1635
14941TIP3    H166238   2.577   2.085   2.317  1.9879  1.2532 -1.7901
14941TIP3    H266239   2.637   2.210   2.379 -0.5330  1.4127  0.4988
14942TIP3   OH266240   0.064   2.465  15.290  0.0386  0.0932 -0.2424
14942TIP3    H166241   0.128   2.490  15.223 -0.8314 -1.7917 -1.8802
14942TIP3    H266242   0.116   2.444  15.367  1.3405 -0.6624 -1.2966
14943TIP3   OH266243   3.085   0.364   2.402  0.4314  0.1517  0.4313
14943TIP3    H166244   3.147   0.434   2.383 -0.2362  0.6795  0.1296
14943TIP3    H266245   3.042   0.392   2.483 -0.9487  0.9045 -0.5112
14944TIP3   OH266246   3.661   6.039   3.425 -0.0117  0.1070  0.0519
14944TIP3    H166247   3.585   6.093   3.449 -0.0948 -0.7578  1.8101
14944TIP3    H266248   3.688   5.997   3.506  2.1385  0.0849 -0.6145
14945TIP3   OH266249   6.478   5.303  15.066 -0.2596 -0.0595 -0.0268
14945TIP3    H166250   6.470   5.268  15.155  0.3396  0.5608  0.2832
14945TIP3    H266251   6.463   5.227  15.009 -2.7372 -0.0825  0.5367
14946TIP3   OH266252   0.861   0.324  16.723  0.3428  0.0137  0.2193
14946TIP3    H166253   0.945   0.306  16.766  1.8323  0.4277 -2.3045
14946TIP3    H266254   0.845   0.417  16.739 -0.1624 -0.2852  1.5261
14947TIP3   OH266255   3.214   3.710  14.816 -0.1068  0.0497  0.9574
14947TIP3    H166256   3.231   3.799  14.847  2.0650 -0.1392  0.4316
14947TIP3    H266257   3.300   3.670  14.809 -0.8680 -1.4117 -0.8602
14948TIP3   OH266258   4.502   1.234  13.736  0.0801 -0.1239 -0.1740
14948TIP3    H166259   4.567   1.177  13.776  0.4962  0.0707 -0.5655
14948TIP3    H266260   4.546   1.270  13.659  0.1943  1.5172  0.6108
14949TIP3   OH266261   1.525   3.630  13.810 -0.4089 -0.3778 -0.2683
14949TIP3    H166262   1.529   3.681  13.729  0.6665 -0.5152 -0.3177
14949TIP3    H266263   1.571   3.549  13.789 -2.3948 -1.5682 -0.3009
14950TIP3   OH266264   5.136   1.885   0.510 -0.3198 -0.8044  0.0217
14950TIP3    H166265   5.148   1.980   0.504  1.0040 -1.0422 -1.5463
14950TIP3    H266266   5.112   1.870   0.601 -0.1179  0.9896  0.4035
14951TIP3   OH266267   3.378   4.390  14.578 -0.4174 -0.2412 -0.5306
14951TIP3    H166268   3.416   4.387  14.666  0.3078 -2.3796 -0.8514
14951TIP3    H266269   3.313   4.459  14.582  0.9840  1.0813  1.1100
14952TIP3   OH266270   5.182   4.031  17.202 -0.3716  0.2758  0.5514
14952TIP3    H166271   5.269   4.012  17.167  0.3906  2.2214  1.2320
14952TIP3    H266272   5.176   3.977  17.281  0.6620  0.8871  1.0707
14953TIP3   OH266273   4.935   6.473   4.429  0.2772  0.3928 -0.0527
14953TIP3    H166274   4.959   6.564   4.447 -1.2056  0.2279  3.5947
14953TIP3    H266275   5.017   6.424   4.442  0.5222  0.9588  0.6347
14954TIP3   OH266276   3.756   6.565   1.148  0.1818  0.2955  0.1577
14954TIP3    H166277   3.848   6.591   1.152 -0.4068  2.7137 -0.2827
14954TIP3    H266278   3.731   6.575   1.056 -0.7472  0.5768  0.4265
14955TIP3   OH266279   3.852   6.714   5.029 -0.6238  0.0329 -0.1163
14955TIP3    H166280   3.774   6.731   4.976 -1.6327  1.3777  1.6686
14955TIP3    H266281   3.820   6.662   5.103  0.5988 -1.1534 -0.3835
14956TIP3   OH266282   0.059   5.485   5.920  0.1651  0.0012 -0.7418
14956TIP3    H166283   0.073   5.577   5.899 -0.3348 -0.0067 -1.1142
14956TIP3    H266284   0.069   5.480   6.015 -1.5009  0.7576 -0.4944
14957TIP3   OH266285   0.504   5.052  15.195 -0.0540 -1.0492  0.0118
14957TIP3    H166286   0.575   5.000  15.157 -0.5066  0.2949 -2.9437
14957TIP3    H266287   0.426   4.998  15.182 -0.1093 -0.8912 -0.3141
14958TIP3   OH266288   3.046   6.251  15.747 -0.5649  0.1262 -0.0200
14958TIP3    H166289   2.964   6.254  15.699 -0.5969  0.0171  0.0266
14958TIP3    H266290   3.023   6.279  15.836 -0.9370 -1.7644  0.5171
14959TIP3   OH266291   0.850   4.238   5.794  0.1434  0.3408  0.3479
14959TIP3    H166292   0.821   4.295   5.722  2.1612 -2.2476 -2.7839
14959TIP3    H266293   0.771   4.192   5.821 -0.3139 -0.4786 -2.1227
14960TIP3   OH266294   3.090   3.654   2.099 -0.4224 -0.0403  0.6608
14960TIP3    H166295   3.012   3.607   2.127  0.0920 -1.8266 -0.7248
14960TIP3    H266296   3.160   3.589   2.102  0.7432  1.1650  0.5636
14961TIP3   OH266297   1.234   3.862  11.266  0.2568 -0.3975 -0.1863
14961TIP3    H166298   1.192   3.885  11.183  0.5442  1.9774  0.2567
14961TIP3    H266299   1.285   3.939  11.289 -2.2659  0.4069  3.7607
14962TIP3   OH266300   0.743   5.503  15.894 -0.7539 -0.3900 -0.6904
14962TIP3    H166301   0.665   5.547  15.860 -0.2839  0.3863 -0.7889
14962TIP3    H266302   0.720   5.411  15.895 -2.2191 -0.0605  0.6763
14963TIP3   OH266303   1.767   0.278   6.020  0.0337  0.5152  0.0463
14963TIP3    H166304   1.673   0.294   6.017  0.1289  1.1238  0.1117
14963TIP3    H266305   1.800   0.339   6.086  0.2506 -0.9332  1.3389
14964TIP3   OH266306   3.764   1.838   4.629  0.5489  0.1302  0.2756
14964TIP3    H166307   3.792   1.926   4.656  1.7952 -0.2682  0.3520
14964TIP3    H266308   3.689   1.818   4.685 -1.0167  1.9031 -1.0573
14965TIP3   OH266309   5.083   1.752   1.010  0.0670 -0.3254 -0.1900
14965TIP3    H166310   5.045   1.820   0.953 -0.1531 -0.4374 -0.1771
14965TIP3    H266311   5.024   1.749   1.085 -0.6961 -1.4768 -0.8094
14966TIP3   OH266312   2.671   2.955  15.669 -0.7403 -0.1271  0.2377
14966TIP3    H166313   2.580   2.983  15.672 -1.2250 -1.5765  0.0430
14966TIP3    H266314   2.721   3.031  15.696 -1.9288  1.0609 -0.7764
14967TIP3   OH266315   0.283   1.141   1.878 -0.1949  0.0080  0.1999
14967TIP3    H166316   0.304   1.066   1.934 -0.8028 -0.6632 -0.4523
14967TIP3    H266317   0.347   1.208   1.903 -1.5032  0.3990  2.9462
14968TIP3   OH266318   0.942   6.037   4.463  0.3167  0.0359  0.2541
14968TIP3    H166319   1.031   6.005   4.477  0.7027  0.9961  0.1004
14968TIP3    H266320   0.885   5.966   4.494  1.0832  0.8081  3.9912
14969TIP3   OH266321   5.858   2.591  14.834  0.2452 -0.3582 -0.6499
14969TIP3    H166322   5.890   2.572  14.922 -0.6868  0.4746 -0.1189
14969TIP3    H266323   5.795   2.662  14.845 -1.5321 -1.6633 -1.6970
14970TIP3   OH266324   6.245   1.442   2.449  0.0160  0.1226  0.1322
14970TIP3    H166325   6.312   1.510   2.443 -1.5508  1.7858  0.5262
14970TIP3    H266326   6.242   1.404   2.361 -0.8191  2.3809 -0.8952
14971TIP3   OH266327   3.606   3.467  14.174 -0.2943 -0.4528 -0.3679
14971TIP3    H166328   3.643   3.551  14.200 -0.7704 -0.3858  0.1269
14971TIP3    H266329   3.561   3.436  14.252 -1.6286 -0.3280 -1.0509
14972TIP3   OH266330   0.548   4.039   1.509 -0.0206  0.5633 -0.6845
14972TIP3    H166331   0.589   4.107   1.455  0.1811  1.2799  0.3334
14972TIP3    H266332   0.544   3.962   1.452 -1.9679  1.9104 -2.5295
14973TIP3   OH266333   2.194   4.650  15.522 -0.8720  0.2600  0.4649
14973TIP3    H166334   2.142   4.599  15.585  0.6201 -1.9118  0.0351
14973TIP3    H266335   2.193   4.598  15.442  1.5077  0.3921  0.2829
14974TIP3   OH266336   5.026   1.433  15.903  0.3543  0.1020  0.2357
14974TIP3    H166337   5.098   1.376  15.929 -1.3330 -1.3427  2.0368
14974TIP3    H266338   5.025   1.503  15.969  0.0352  0.0366  0.3045
14975TIP3   OH266339   1.449   5.159   5.696 -0.0454 -0.1492 -0.3332
14975TIP3    H166340   1.538   5.194   5.696 -0.9277  2.3662  0.6555
14975TIP3    H266341   1.397   5.228   5.654 -1.9096 -0.2820  1.5943
14976TIP3   OH266342   2.671   0.682   4.797 -0.0371 -0.4404  0.1085
14976TIP3    H166343   2.670   0.589   4.818 -1.1451 -0.7014 -1.0073
14976TIP3    H266344   2.682   0.685   4.702  0.5709  0.5923  0.1964
14977TIP3   OH266345   0.062   4.696  15.348 -0.1931 -0.1443 -0.0490
14977TIP3    H166346  -0.024   4.657  15.333 -0.9536  0.8220  1.5297
14977TIP3    H266347   0.044   4.790  15.357  1.1433  0.1639 -0.4392
14978TIP3   OH266348   3.916   3.681  11.870 -0.1438 -0.0078  0.1574
14978TIP3    H166349   3.892   3.741  11.799 -0.2332  0.7980  0.8606
14978TIP3    H266350   3.839   3.623  11.879 -0.0439 -0.2584 -0.5396
14979TIP3   OH266351   1.996   6.593  16.370 -0.0730 -0.3978 -0.2826
14979TIP3    H166352   2.022   6.553  16.287 -0.9623 -0.4607 -0.5406
14979TIP3    H266353   1.907   6.562  16.384 -0.4240  0.7229  0.0024
14980TIP3   OH266354   6.079   4.933  15.526  0.3019  0.1480  0.2707
14980TIP3    H166355   6.109   5.018  15.558 -1.7416  0.1797  2.2835
14980TIP3    H266356   6.150   4.873  15.549  1.5273  1.1538 -0.6819
14981TIP3   OH266357   0.169   3.984   5.093  0.1151  0.2509  0.4617
14981TIP3    H166358   0.240   3.994   5.029  1.2483  1.8959  1.8784
14981TIP3    H266359   0.143   4.074   5.113  0.1842 -0.1718  2.6845
14982TIP3   OH266360   4.150   2.409  13.208  0.5510 -0.1333 -0.6090
14982TIP3    H166361   4.081   2.343  13.215  0.6909 -0.2317 -0.1614
14982TIP3    H266362   4.107   2.491  13.232  0.0699  0.1551 -2.2900
14983TIP3   OH266363   3.941   4.118   3.852 -0.2988 -0.0594 -0.0083
14983TIP3    H166364   3.924   4.024   3.857  0.2204 -0.1775 -0.3692
14983TIP3    H266365   3.944   4.147   3.943 -1.4186 -0.2095  0.0925
14984TIP3   OH266366   3.940   5.140  12.408  0.1925  0.1404 -0.2166
14984TIP3    H166367   3.888   5.059  12.400 -0.2746  0.2603  1.1964
14984TIP3    H266368   3.906   5.197  12.340  2.6351 -1.8641 -3.3883
14985TIP3   OH266369   4.210   2.784   3.325 -0.1022 -0.0907  0.3157
14985TIP3    H166370   4.169   2.705   3.361 -0.7871  0.1746  0.1314
14985TIP3    H266371   4.137   2.837   3.293  0.4595 -0.1970 -1.2538
14986TIP3   OH266372   2.485   2.285  13.438  0.0834 -0.2696 -0.1568
14986TIP3    H166373   2.472   2.317  13.349  1.0412  0.7994  0.0666
14986TIP3    H266374   2.576   2.305  13.458 -0.2877  0.1383  1.2960
14987TIP3   OH266375   4.344   3.447  13.967  0.2790 -0.3544 -0.4612
14987TIP3    H166376   4.314   3.533  13.937 -0.3382 -0.3906  0.0442
14987TIP3    H266377   4.346   3.454  14.062  0.8007 -0.7171 -0.4365
14988TIP3   OH266378   0.770   1.066  11.209 -0.2829  0.3175  0.0924
14988TIP3    H166379   0.789   1.120  11.132 -1.4391  1.7977  0.8104
14988TIP3    H266380   0.791   0.977  11.180 -0.3541  0.8675 -1.8307
14989TIP3   OH266381   3.153   2.385  17.125  0.0556  0.1241 -0.7500
14989TIP3    H166382   3.222   2.344  17.073 -1.4523 -1.2050 -1.7968
14989TIP3    H266383   3.157   2.341  17.210  0.2069 -0.2332 -0.9433
14990TIP3   OH266384   5.912   3.945   0.886  0.1320 -0.0801  0.9948
14990TIP3    H166385   5.911   3.926   0.792  1.7807  0.9771  0.7042
14990TIP3    H266386   5.829   3.990   0.902 -1.6791 -3.0804  0.7821
14991TIP3   OH266387   1.309   5.110   4.759  0.0992  0.5733 -0.1400
14991TIP3    H166388   1.398   5.111   4.793 -0.2437 -0.0238  0.8215
14991TIP3    H266389   1.256   5.146   4.830 -0.7367 -1.4157  0.3199
14992TIP3   OH266390   4.156   4.730  12.202  0.2510 -0.0817 -0.3468
14992TIP3    H166391   4.093   4.660  12.220  0.1142  0.1610  0.1361
14992TIP3    H266392   4.102   4.808  12.190  0.4583  0.1421  0.1419
14993TIP3   OH266393   5.387   3.700   3.702  0.6684 -0.5796 -0.1098
14993TIP3    H166394   5.408   3.676   3.793 -0.6716 -1.2133  0.0555
14993TIP3    H266395   5.381   3.617   3.656 -2.0218 -0.5484  0.0139
14994TIP3   OH266396   3.325   1.202   4.604 -0.0745 -0.4161 -0.3470
14994TIP3    H166397   3.249   1.255   4.628  0.8683  0.7165  0.2128
14994TIP3    H266398   3.336   1.141   4.677  1.4926  1.6028  1.2218
14995TIP3   OH266399   4.512   2.506   4.059 -0.1226 -0.2437 -0.4586
14995TIP3    H166400   4.504   2.571   3.989 -0.8171 -1.0666 -1.1796
14995TIP3    H266401   4.554   2.553   4.131 -1.2572  1.2114 -0.6902
14996TIP3   OH266402   0.788   6.175  15.378  0.6265 -0.0668 -0.5911
14996TIP3    H166403   0.866   6.138  15.419  0.5580  0.2220 -0.1934
14996TIP3    H266404   0.808   6.176  15.284  0.2225 -2.0667 -0.7456
14997TIP3   OH266405   6.273   1.707   4.954 -0.6504 -0.1650  0.4318
14997TIP3    H166406   6.270   1.635   5.017 -0.1526 -1.3393 -0.8327
14997TIP3    H266407   6.274   1.664   4.869 -0.3506  1.3570 -0.3689
14998TIP3   OH266408   6.484   0.956   3.114 -0.3446 -0.0058 -0.4293
14998TIP3    H166409   6.557   0.897   3.130 -0.7175 -0.0018  1.5367
14998TIP3    H266410   6.450   0.929   3.028  0.4175 -1.6459 -0.2605
14999TIP3   OH266411   5.719   1.081   4.141 -0.0180  0.0070 -0.1598
14999TIP3    H166412   5.676   1.079   4.226 -0.6891  3.1101 -0.2992
14999TIP3    H266413   5.647   1.078   4.078  0.2009  1.2200 -0.4923
15000TIP3   OH266414   0.717   1.507   2.840 -0.0206  0.1912 -0.0074
15000TIP3    H166415   0.740   1.529   2.749 -0.4572 -1.6644 -0.6118
15000TIP3    H266416   0.771   1.566   2.893 -1.6013  3.1232 -1.4300
15001TIP3   OH266417   1.403   0.590   4.099 -0.1268  0.5488 -0.0189
15001TIP3    H166418   1.473   0.656   4.098 -0.4488  0.8957 -0.3719
15001TIP3    H266419   1.329   0.634   4.058 -0.4128  0.0286 -0.0671
15002TIP3   OH266420   4.784   6.456  12.268  0.4929 -0.1847 -0.1980
15002TIP3    H166421   4.800   6.518  12.339 -2.1528  1.4458 -0.9144
15002TIP3    H266422   4.827   6.495  12.192  0.9064 -0.4812 -0.1178
15003TIP3   OH266423   6.209   2.367   2.062 -0.2837  0.2365 -0.0586
15003TIP3    H166424   6.211   2.451   2.109  1.3399 -0.0073  0.3819
15003TIP3    H266425   6.264   2.382   1.985  0.4494 -0.5403  0.2927
15004TIP3   OH266426   2.748   2.904   2.379 -0.4550 -0.6881  0.6657
15004TIP3    H166427   2.796   2.956   2.314  1.0620 -3.4193 -0.5825
15004TIP3    H266428   2.795   2.920   2.461  0.9695 -1.2157 -0.0057
15005TIP3   OH266429   2.165   1.178   0.883 -0.2643 -0.0800  0.3002
15005TIP3    H166430   2.114   1.209   0.809  0.2312  0.1327  0.0413
15005TIP3    H266431   2.255   1.177   0.851 -0.0269  0.1664  0.9418
15006TIP3   OH266432   6.521   3.887  15.316 -0.1185 -0.2080  0.1148
15006TIP3    H166433   6.537   3.938  15.236  0.2047  0.8385  0.8229
15006TIP3    H266434   6.603   3.893  15.364 -0.0939 -1.3789  0.2516
15007TIP3   OH266435   4.008   3.832   4.433  0.1394 -0.0479  0.1004
15007TIP3    H166436   3.920   3.803   4.409  0.3611 -1.1263  0.5145
15007TIP3    H266437   4.000   3.860   4.524 -0.2615  2.0957 -0.5510
15008TIP3   OH266438   4.855   3.500   1.934 -0.2940 -0.4226  0.0503
15008TIP3    H166439   4.939   3.493   1.978 -1.1823 -1.2499  1.7035
15008TIP3    H266440   4.835   3.410   1.907 -1.3123 -0.5026  1.0115
15009TIP3   OH266441   5.636   3.389  13.738  0.4410  0.0628  0.2143
15009TIP3    H166442   5.619   3.468  13.686 -0.3921 -0.6945 -0.6975
15009TIP3    H266443   5.704   3.415  13.799  2.5502  0.6069 -2.1969
15010TIP3   OH266444   3.026   1.492   1.069  0.1996  0.4837 -0.5864
15010TIP3    H166445   3.114   1.490   1.106  0.1405 -1.0866 -0.4680
15010TIP3    H266446   3.003   1.400   1.056 -0.2687  0.9259 -3.3915
15011TIP3   OH266447   1.712   5.353  11.871 -0.0773 -0.0513 -0.2390
15011TIP3    H166448   1.696   5.393  11.956  0.2883  0.1407 -0.2579
15011TIP3    H266449   1.634   5.300  11.854 -0.3101  0.1960  0.0485
15012TIP3   OH266450   3.273   4.018  14.210  0.2640 -0.3921 -0.3810
15012TIP3    H166451   3.273   4.107  14.176  0.4321 -1.1128 -2.3708
15012TIP3    H266452   3.279   4.029  14.305  1.5347  1.6804 -0.6389
15013TIP3   OH266453   3.067   0.522   3.711 -0.0884 -0.4795  0.4266
15013TIP3    H166454   3.029   0.538   3.625 -1.4211  0.0490  1.0904
15013TIP3    H266455   3.126   0.597   3.725 -2.2913  1.2223  1.2721
15014TIP3   OH266456   4.841   1.501  14.058 -0.7605 -0.0584 -0.0939
15014TIP3    H166457   4.769   1.438  14.055 -0.6162 -0.1988 -0.7001
15014TIP3    H266458   4.812   1.574  14.004 -0.9712  0.4550  0.6942
15015TIP3   OH266459   3.436   1.690   5.761  0.0646  0.0065  0.1649
15015TIP3    H166460   3.374   1.702   5.833 -1.1159  0.9291 -0.9465
15015TIP3    H266461   3.385   1.642   5.695  0.0260  2.0368 -1.3576
15016TIP3   OH266462   3.842   2.701   2.007  0.5930  0.1436  0.2635
15016TIP3    H166463   3.834   2.760   2.082  0.8295 -0.0630  0.4518
15016TIP3    H266464   3.865   2.616   2.045 -1.5716 -0.5597  0.1852
15017TIP3   OH266465   3.980   4.948  13.825 -0.1555 -0.0276 -0.1109
15017TIP3    H166466   3.908   4.904  13.780 -1.2505  1.9814 -0.4611
15017TIP3    H266467   4.005   5.018  13.765  1.8578 -0.4333  0.1920
15018TIP3   OH266468   2.600   1.166  16.081  0.5801  0.0280 -0.6024
15018TIP3    H166469   2.510   1.197  16.077  0.2725 -0.4963  1.2291
15018TIP3    H266470   2.653   1.246  16.084  0.0608  0.3590 -0.0044
15019TIP3   OH266471   0.825   3.365  14.090 -0.2953 -0.0711  0.5514
15019TIP3    H166472   0.770   3.359  14.168 -0.5645  0.0931  0.3757
15019TIP3    H266473   0.766   3.342  14.017  0.1464 -1.0015  0.4685
15020TIP3   OH266474   3.035   6.396   4.369 -0.8386  0.1622 -1.0177
15020TIP3    H166475   3.015   6.340   4.294  0.3739 -0.3245 -1.0041
15020TIP3    H266476   3.107   6.352   4.414 -0.5901  1.1732 -0.3754
15021TIP3   OH266477   3.190   4.036   5.646 -0.9371 -0.5805 -0.1608
15021TIP3    H166478   3.119   4.056   5.585 -1.5059  0.2106  0.7215
15021TIP3    H266479   3.187   4.107   5.710  0.8697 -0.3382 -0.2783
15022TIP3   OH266480   1.485   3.639  12.054 -0.0885 -0.2489 -0.4599
15022TIP3    H166481   1.408   3.636  12.111  0.8024 -2.4295  0.7668
15022TIP3    H266482   1.548   3.693  12.102  0.8166 -2.4286  0.9860
15023TIP3   OH266483   0.519   1.977   3.304  0.6162  0.9328  0.1027
15023TIP3    H166484   0.613   1.977   3.324  1.4443  0.7397 -3.2420
15023TIP3    H266485   0.507   1.903   3.245 -1.8208  0.5279  1.0053
15024TIP3   OH266486   2.207   3.811   5.698  0.0484  0.3307 -0.4560
15024TIP3    H166487   2.270   3.883   5.695 -1.0576  1.3933  0.7495
15024TIP3    H266488   2.190   3.798   5.792  1.4134 -2.6027 -0.5174
15025TIP3   OH266489   6.471   4.140   1.526  0.3622  0.6111 -0.2522
15025TIP3    H166490   6.401   4.188   1.571 -0.6361  1.1220 -2.2105
15025TIP3    H266491   6.435   4.053   1.511  0.7456  0.3948  0.0745
15026TIP3   OH266492   1.427   2.576   0.632  0.1732  0.3368  0.1884
15026TIP3    H166493   1.466   2.659   0.659 -0.5867  0.8739 -0.3202
15026TIP3    H266494   1.411   2.587   0.538  0.4509 -0.5459  0.0273
15027TIP3   OH266495   6.374   6.270   6.673  0.3966  0.1328 -0.3706
15027TIP3    H166496   6.320   6.313   6.607 -0.3083 -0.7516 -0.3859
15027TIP3    H266497   6.383   6.336   6.742  0.2428  0.6875 -0.8717
15028TIP3   OH266498   2.143   3.805   6.618  0.3781 -0.4183  0.4736
15028TIP3    H166499   2.185   3.789   6.533  0.8956  0.2810  0.5892
15028TIP3    H266500   2.055   3.834   6.596  0.0697 -1.4896  0.2171
15029TIP3   OH266501   4.920   5.507  16.925  0.3722 -0.2216  0.1268
15029TIP3    H166502   4.916   5.603  16.920  2.3583 -0.0651  0.6398
15029TIP3    H266503   4.846   5.482  16.980  1.0832  1.2286  1.8168
15030TIP3   OH266504   5.310   2.554   2.578  0.5353 -0.1171 -0.0522
15030TIP3    H166505   5.293   2.604   2.499 -1.0544 -1.8114 -0.8569
15030TIP3    H266506   5.238   2.575   2.637  0.3113 -0.8035 -0.0732
15031TIP3   OH266507   6.215   2.894  16.492 -0.8637 -0.0811  0.3172
15031TIP3    H166508   6.292   2.839  16.476 -1.7048 -0.9421 -1.0146
15031TIP3    H266509   6.198   2.886  16.586 -0.0451 -0.8672  0.4097
15032TIP3   OH266510   0.731   6.415   2.895  0.1692 -0.2689 -0.0873
15032TIP3    H166511   0.814   6.373   2.871  0.6620  1.2305 -1.1175
15032TIP3    H266512   0.667   6.344   2.888  0.9824 -0.9086 -1.6911
15033TIP3   OH266513   6.038   0.127  12.079  0.0093 -0.3781  0.4269
15033TIP3    H166514   6.130   0.150  12.094  0.0353  0.0567 -0.3627
15033TIP3    H266515   5.988   0.196  12.123  0.0853  0.9791 -1.4889
15034TIP3   OH266516   4.321   6.731  11.450  0.6285 -0.4647  0.0993
15034TIP3    H166517   4.251   6.698  11.394  0.6008 -0.7019  0.2721
15034TIP3    H266518   4.310   6.683  11.533 -0.4908  1.1803  0.9660
15035TIP3   OH266519   6.307   4.281  10.954 -0.2881  0.1430  0.4729
15035TIP3    H166520   6.318   4.224  10.878  0.4971  2.2973 -1.1307
15035TIP3    H266521   6.234   4.242  11.003 -0.7468 -1.3765 -1.3135
15036TIP3   OH266522   2.483   2.559  16.624 -0.0530  0.4799 -0.1388
15036TIP3    H166523   2.497   2.580  16.532  0.3786 -1.1130 -0.4742
15036TIP3    H266524   2.453   2.468  16.623 -1.0156  0.7454  1.2404
15037TIP3   OH266525   0.334   5.006  14.272  0.1256  0.6311  0.3051
15037TIP3    H166526   0.385   5.057  14.336 -0.3828  1.3609  0.1407
15037TIP3    H266527   0.257   4.978  14.321  0.3486  0.1147  0.3613
15038TIP3   OH266528   4.535   3.102  12.141  0.9140  0.2319  0.1674
15038TIP3    H166529   4.538   3.091  12.236  1.1267 -0.5605  0.0723
15038TIP3    H266530   4.590   3.032  12.106  1.9416  1.3224 -0.4962
15039TIP3   OH266531   1.106   1.812   5.838  0.0872  0.4165  0.4214
15039TIP3    H166532   1.015   1.841   5.845 -0.3877 -0.6813 -0.8322
15039TIP3    H266533   1.151   1.884   5.795 -1.1799 -0.7146 -3.1334
15040TIP3   OH266534   2.565   5.393   2.304 -0.6254  0.3518 -0.1162
15040TIP3    H166535   2.590   5.301   2.306  2.7170  1.1475  1.1495
15040TIP3    H266536   2.597   5.424   2.219 -1.6364  0.4133 -0.4884
15041TIP3   OH266537   2.986   1.404   4.258 -0.0004 -0.1054  0.0359
15041TIP3    H166538   2.978   1.319   4.302  2.0121  0.0446  0.8084
15041TIP3    H266539   3.079   1.426   4.267 -0.9259  3.6064  2.6484
15042TIP3   OH266540   2.332   4.289   6.044  0.2659  0.5991  0.4485
15042TIP3    H166541   2.394   4.284   6.117  0.9997 -1.0571 -0.2299
15042TIP3    H266542   2.251   4.254   6.080  0.1083  1.4433  0.9453
15043TIP3   OH266543   6.430   4.268  12.674 -0.6598 -0.0533  0.3747
15043TIP3    H166544   6.525   4.264  12.686 -0.4074  0.3389 -1.2228
15043TIP3    H266545   6.405   4.355  12.707  0.1147  1.3030 -2.3011
15044TIP3   OH266546   3.508   1.947  10.692 -0.1676  0.1831  0.5989
15044TIP3    H166547   3.426   1.925  10.648 -0.4861 -0.0396  1.2987
15044TIP3    H266548   3.493   1.925  10.784 -0.0960  2.1733  1.1500
15045TIP3   OH266549   3.378   4.225   0.707 -0.2500  0.1492 -0.0267
15045TIP3    H166550   3.296   4.242   0.753  1.2347 -0.7868  3.2935
15045TIP3    H266551   3.395   4.132   0.720  0.2339 -0.2497 -2.7862
15046TIP3   OH266552   4.253   4.876  10.768 -0.5717  0.7185  0.0092
15046TIP3    H166553   4.280   4.802  10.714  1.2395  2.2413 -1.3476
15046TIP3    H266554   4.261   4.845  10.858  1.0984 -0.4843 -0.5027
15047TIP3   OH266555   2.623   0.091   3.071  0.3358  0.1093  0.0262
15047TIP3    H166556   2.641   0.016   3.014 -0.7605 -1.2160  1.3316
15047TIP3    H266557   2.639   0.058   3.159 -3.1674  0.3574  0.9126
15048TIP3   OH266558   2.476   4.064   2.130  0.4155 -0.5652 -0.0010
15048TIP3    H166559   2.504   4.153   2.149  1.2168 -0.6338 -0.7776
15048TIP3    H266560   2.381   4.070   2.121  0.2591 -0.1186  1.6078
15049TIP3   OH266561   2.140   1.348   5.249 -0.0648  0.5523 -0.4685
15049TIP3    H166562   2.079   1.372   5.179 -0.0085 -2.1399 -1.5586
15049TIP3    H266563   2.193   1.278   5.212  1.4744  0.5354  1.5732
15050TIP3   OH266564   5.024   1.453   3.317 -0.6404 -0.3616  0.9501
15050TIP3    H166565   5.105   1.404   3.329 -0.1796 -0.0679 -0.7212
15050TIP3    H266566   4.965   1.391   3.274 -0.0928  0.4278 -1.0685
15051TIP3   OH266567   1.624   1.379   5.681  0.0809  0.2879  0.2164
15051TIP3    H166568   1.550   1.318   5.683  0.1710  0.1370 -0.6776
15051TIP3    H266569   1.701   1.324   5.695  0.0906  0.3298  0.3296
15052TIP3   OH266570   4.812   0.105  15.135 -0.3155  0.1628 -0.3954
15052TIP3    H166571   4.847   0.156  15.208 -1.0783 -0.5131  0.4590
15052TIP3    H266572   4.733   0.153  15.109 -0.1618  0.2830 -0.6505
15053TIP3   OH266573   6.452   5.074   6.518  0.1389  0.0297  0.3570
15053TIP3    H166574   6.380   5.137   6.513  0.3337  0.2318  0.0083
15053TIP3    H266575   6.421   5.005   6.577  0.0338  0.5932  0.9585
15054TIP3   OH266576   1.002   6.031  15.465  1.1202 -0.1557  0.2358
15054TIP3    H166577   1.093   6.016  15.439  1.5451  0.1329  1.5209
15054TIP3    H266578   0.959   5.947  15.449  1.3637 -0.0191 -1.3134
15055TIP3   OH266579   0.072   0.288   1.792 -0.2995 -0.4828  0.1737
15055TIP3    H166580   0.052   0.272   1.700  1.6513 -0.7682 -0.2424
15055TIP3    H266581  -0.012   0.278   1.837 -1.4132  0.3207 -1.6335
15056TIP3   OH266582   0.616   0.719   1.590  0.0678  0.4942  0.0051
15056TIP3    H166583   0.538   0.719   1.535 -1.1859  0.1087  1.7379
15056TIP3    H266584   0.614   0.804   1.635 -0.1160 -0.0826  1.0967
15057TIP3   OH266585   2.586   0.666  15.629 -0.8629  0.9634  0.6328
15057TIP3    H166586   2.602   0.576  15.658 -0.6981  0.3331 -1.2644
15057TIP3    H266587   2.671   0.708  15.632 -0.0032 -0.2756 -2.5826
15058TIP3   OH266588   0.828   0.213   4.351  0.1064 -0.1705 -0.1224
15058TIP3    H166589   0.833   0.118   4.338  1.1293 -0.3194  1.1596
15058TIP3    H266590   0.748   0.227   4.401  1.0110 -0.6070  1.5001
15059TIP3   OH266591   3.995   1.774   0.379 -0.2477 -0.1846 -0.4207
15059TIP3    H166592   4.034   1.811   0.459  0.7617 -0.9533 -0.5414
15059TIP3    H266593   3.948   1.696   0.410  1.3665 -1.3382 -0.7209
15060TIP3   OH266594   2.709   4.417  15.029  0.2916  0.0723 -0.1876
15060TIP3    H166595   2.686   4.490  15.086  0.2899  0.5440 -0.7818
15060TIP3    H266596   2.678   4.339  15.075  0.8883  0.3901  0.7600
15061TIP3   OH266597   0.539   1.047   0.522  0.1236 -0.1772 -0.0260
15061TIP3    H166598   0.482   1.111   0.566  0.6270  1.0882 -1.1513
15061TIP3    H266599   0.497   1.032   0.438  0.1340 -1.1770  0.1434
15062TIP3   OH266600   3.754   0.469   1.988 -0.3751  0.1281  0.2625
15062TIP3    H166601   3.787   0.537   1.929 -0.8639  0.7742  0.7241
15062TIP3    H266602   3.784   0.495   2.075  0.7338 -1.0632  0.2724
15063TIP3   OH266603   2.831   3.541   5.632 -0.0543  0.1642 -0.0138
15063TIP3    H166604   2.920   3.567   5.608 -0.2728  0.8491 -0.0983
15063TIP3    H266605   2.833   3.535   5.728  1.0699 -3.4835 -0.1053
15064TIP3   OH266606   3.171   4.943   5.298  0.7009  0.1027 -0.6985
15064TIP3    H166607   3.148   4.865   5.248 -0.3799  0.0337 -0.1132
15064TIP3    H266608   3.248   4.978   5.253  0.7113 -0.8417 -1.4472
15065TIP3   OH266609   5.436   0.763   2.081  0.0083  0.5179  1.1437
15065TIP3    H166610   5.410   0.680   2.121  0.7688  0.5347  1.6981
15065TIP3    H266611   5.387   0.767   1.999 -0.0349 -0.4723  1.1153
15066TIP3   OH266612   1.689   6.139  12.751 -0.0406  0.5100 -0.3496
15066TIP3    H166613   1.595   6.128  12.762 -0.1693  2.5416  0.9389
15066TIP3    H266614   1.699   6.204  12.681  0.3323  1.4430  0.5412
15067TIP3   OH266615   4.346   6.028  13.762 -0.1636 -0.4831 -0.0659
15067TIP3    H166616   4.337   5.933  13.763 -1.6427 -0.3641  0.3097
15067TIP3    H266617   4.275   6.058  13.705  0.0813  0.4160  0.0938
15068TIP3   OH266618   0.309   4.080   1.099  0.0805 -0.0198 -0.3300
15068TIP3    H166619   0.380   4.072   1.162  0.8134  2.6857 -0.6607
15068TIP3    H266620   0.350   4.063   1.014 -0.3844 -1.4335 -0.2816
15069TIP3   OH266621   3.654   1.499  11.324 -0.1546  0.6087  0.3448
15069TIP3    H166622   3.692   1.415  11.297 -0.8451  0.5805 -0.5897
15069TIP3    H266623   3.588   1.476  11.389 -0.8055  0.3446 -0.3892
15070TIP3   OH266624   1.389   2.074  11.585  0.0058  0.3370 -0.2112
15070TIP3    H166625   1.389   2.144  11.651 -0.2137  0.6084 -0.4983
15070TIP3    H266626   1.446   2.007  11.623  1.7178  1.4291 -0.7216
15071TIP3   OH266627   4.506   1.786   5.346 -0.5320 -0.3024 -0.0000
15071TIP3    H166628   4.492   1.849   5.275  0.5101  0.6563  0.6048
15071TIP3    H266629   4.550   1.712   5.305  1.7137  0.9984 -0.0804
15072TIP3   OH266630   6.408   6.522  12.869 -0.3278  0.0583 -0.2932
15072TIP3    H166631   6.371   6.577  12.939  0.9317 -1.1159  1.3684
15072TIP3    H266632   6.333   6.472  12.837 -1.1499  1.4272 -0.6148
15073TIP3   OH266633   0.825   1.603   0.288  0.4279  0.7105 -0.4260
15073TIP3    H166634   0.796   1.694   0.296 -0.6297  0.3780 -0.3638
15073TIP3    H266635   0.912   1.602   0.328  0.1670  1.5559  0.1787
15074TIP3   OH266636   1.190   1.908   2.498  0.2816  0.2310  0.1972
15074TIP3    H166637   1.201   2.001   2.518  0.8039 -0.2251  2.2729
15074TIP3    H266638   1.120   1.880   2.556 -0.0282 -0.6428 -0.5813
15075TIP3   OH266639   4.942   5.659  10.802  0.2942  0.9008 -0.6131
15075TIP3    H166640   4.894   5.628  10.878  1.2175  1.2582  0.1256
15075TIP3    H266641   4.881   5.717  10.756 -0.3360  0.5062 -0.2685
15076TIP3   OH266642   1.364   5.805   0.700 -0.3119  0.2952  0.1080
15076TIP3    H166643   1.367   5.810   0.604  0.7034 -0.6167  0.0724
15076TIP3    H266644   1.346   5.895   0.728  0.2882  0.7577 -0.9065
15077TIP3   OH266645   4.920   4.861   5.610 -0.0279  0.1564  0.2927
15077TIP3    H166646   4.933   4.779   5.658  0.2164 -0.4139 -0.7305
15077TIP3    H266647   4.991   4.917   5.639 -0.9690  0.5168  2.0249
15078TIP3   OH266648   1.463   5.986   2.837  0.3234  0.2012 -0.1719
15078TIP3    H166649   1.501   5.954   2.755  0.9120  1.2576 -0.3267
15078TIP3    H266650   1.369   5.983   2.822  0.1439 -3.6583  0.6560
15079TIP3   OH266651   5.394   5.390   1.390 -0.2495 -0.2995 -0.1585
15079TIP3    H166652   5.313   5.391   1.440  1.0548 -0.0912  2.0949
15079TIP3    H266653   5.462   5.368   1.454  1.8778  2.3467 -1.2863
15080TIP3   OH266654   4.829   1.189  15.151  0.5608 -0.4874  0.0215
15080TIP3    H166655   4.873   1.223  15.229 -0.7390  0.5683  0.3413
15080TIP3    H266656   4.755   1.140  15.186  1.6595 -2.6003 -0.4889
15081TIP3   OH266657   0.813   3.554  11.834 -0.7222  0.2487  0.1874
15081TIP3    H166658   0.817   3.646  11.858  0.1478  0.5850 -1.1564
15081TIP3    H266659   0.820   3.553  11.739 -2.4610 -1.1225  0.0271
15082TIP3   OH266660   2.512   5.572   1.899  0.4991 -0.1870 -0.2081
15082TIP3    H166661   2.525   5.579   1.994 -0.4913  0.1141 -0.0881
15082TIP3    H266662   2.583   5.624   1.861 -0.6572  1.9321  0.4329
15083TIP3   OH266663   2.005   0.414   2.176 -0.0750 -0.1745 -0.0775
15083TIP3    H166664   1.929   0.468   2.199  0.3508  0.4624 -0.1395
15083TIP3    H266665   2.067   0.426   2.248  0.8090  0.9637 -0.9766
15084TIP3   OH266666   2.280   3.053   5.913  0.1568 -0.1637 -0.1701
15084TIP3    H166667   2.271   3.124   5.850 -0.2626  2.1034  2.2450
15084TIP3    H266668   2.190   3.036   5.943  0.3678 -1.0164  0.0042
15085TIP3   OH266669   2.365   0.823  16.354  0.0628 -0.0275  0.7311
15085TIP3    H166670   2.429   0.894  16.345  0.7793 -0.5882  1.2059
15085TIP3    H266671   2.387   0.762  16.284 -2.2870  1.4435 -1.4594
15086TIP3   OH266672   2.740   1.155  12.715  0.0614  0.3391 -0.2306
15086TIP3    H166673   2.764   1.168  12.623  1.3824 -0.9125 -0.0962
15086TIP3    H266674   2.790   1.078  12.742 -1.1095  0.0534  1.2516
15087TIP3   OH266675   4.868   2.574   2.835  0.0232 -0.0701  0.0556
15087TIP3    H166676   4.813   2.607   2.906  0.5719 -1.0080  0.9404
15087TIP3    H266677   4.854   2.480   2.836  1.8558 -0.3814  0.5195
15088TIP3   OH266678   4.446   5.916   5.332  0.1033 -0.1332  0.2357
15088TIP3    H166679   4.417   5.875   5.251  1.6541 -2.7723  0.8739
15088TIP3    H266680   4.521   5.969   5.306 -0.1035 -0.0605 -0.2219
15089TIP3   OH266681   5.435   1.284   0.939  0.0335  0.2563 -0.3585
15089TIP3    H166682   5.514   1.229   0.940  0.2584  0.4831 -2.3301
15089TIP3    H266683   5.395   1.268   1.025  1.9576 -0.2279  0.5243
15090TIP3   OH266684   5.690   3.636   2.680  0.0227 -0.1679  0.7775
15090TIP3    H166685   5.603   3.674   2.666  0.7952  1.8214  1.0166
15090TIP3    H266686   5.699   3.632   2.775  1.9640  4.3867  1.0456
15091TIP3   OH266687   0.433   5.003   5.711 -0.3656 -0.1007 -0.3198
15091TIP3    H166688   0.431   5.044   5.625 -1.8456 -3.8834 -2.3587
15091TIP3    H266689   0.342   5.001   5.740 -0.1275 -0.5074  0.4468
15092TIP3   OH266690   2.989   2.658   1.171  0.2770  0.3136 -0.3648
15092TIP3    H166691   3.039   2.583   1.203  1.0549  0.5127 -1.0681
15092TIP3    H266692   2.916   2.666   1.231  0.1346 -1.0667 -0.3294
15093TIP3   OH266693   2.862   2.541  15.601 -0.2767 -0.1165 -0.0372
15093TIP3    H166694   2.827   2.596  15.671 -3.1117 -2.5446  0.6504
15093TIP3    H266695   2.913   2.474  15.647 -2.4889 -1.9685 -0.1356
15094TIP3   OH266696   2.702   2.412  14.791  0.5350  0.5918 -0.0961
15094TIP3    H166697   2.681   2.340  14.850  1.1002 -0.5084 -1.1997
15094TIP3    H266698   2.692   2.491  14.845 -2.2398 -0.1132  0.5373
15095TIP3   OH266699   3.643   3.009  14.993  0.6067 -0.1244 -0.3716
15095TIP3    H166700   3.697   3.086  14.975  0.0679  0.2985 -0.2189
15095TIP3    H266701   3.699   2.935  14.970  1.0682  0.3152 -0.7081
15096TIP3   OH266702   5.052   4.318  11.781 -0.5049 -0.0405 -0.3496
15096TIP3    H166703   4.988   4.250  11.762  0.7595 -0.9112 -1.7278
15096TIP3    H266704   5.116   4.276  11.839  0.6012 -0.2631 -1.6732
15097TIP3   OH266705   2.366   4.415   5.625  0.3149  0.5407  0.0512
15097TIP3    H166706   2.440   4.431   5.566  1.0681 -2.4446  0.0090
15097TIP3    H266707   2.398   4.442   5.711  0.4267  1.8110 -0.3720
15098TIP3   OH266708   3.074   2.063  16.019  0.6697  0.2751 -0.4464
15098TIP3    H166709   3.117   2.014  16.090  0.7192  0.2216 -0.5143
15098TIP3    H266710   3.005   2.005  15.988  0.6728  0.2835 -0.4691
15099TIP3   OH266711   0.564   3.161  17.080  0.3854  0.2316  0.0727
15099TIP3    H166712   0.471   3.154  17.102  0.7461 -0.2261  1.6006
15099TIP3    H266713   0.577   3.096  17.012 -0.0709 -0.9895  1.1104
15100TIP3   OH266714   1.407   2.882   0.511 -0.3346 -0.6453  0.5239
15100TIP3    H166715   1.324   2.893   0.464 -0.0166  0.1312  0.1351
15100TIP3    H266716   1.382   2.888   0.603 -1.0899 -3.0270  0.5487
15101TIP3   OH266717   5.810   6.538   2.737 -0.3522 -0.0526  0.3425
15101TIP3    H166718   5.847   6.486   2.666 -1.0588 -0.5448  0.3238
15101TIP3    H266719   5.839   6.494   2.817 -0.1046  0.1139  0.3423
15102TIP3   OH266720   3.385   1.653   1.840  0.2299 -0.2303 -0.0503
15102TIP3    H166721   3.434   1.571   1.851 -1.2531 -1.3886 -1.5246
15102TIP3    H266722   3.339   1.642   1.757 -3.2873  0.3284  1.6536
15103TIP3   OH266723   2.740   4.584  15.395 -0.1156  0.3063  0.0537
15103TIP3    H166724   2.686   4.637  15.336 -0.0801 -0.0267 -0.2785
15103TIP3    H266725   2.801   4.646  15.434 -0.1006  0.5164 -0.3024
15104TIP3   OH266726   6.397   4.469  17.225  0.0281 -0.3454  0.3187
15104TIP3    H166727   6.338   4.542  17.245  1.3419  0.7096  0.4664
15104TIP3    H266728   6.368   4.437  17.140 -1.0655 -0.1896  0.6090
15105TIP3   OH266729   3.296   6.624  13.871  0.0687 -0.5460 -0.1693
15105TIP3    H166730   3.343   6.706  13.857 -1.8833  0.3987 -1.7308
15105TIP3    H266731   3.363   6.557  13.865  1.4495  0.8224 -0.7492
15106TIP3   OH266732   0.326   3.107  17.225 -0.6441 -0.0933  0.0913
15106TIP3    H166733   0.406   3.073  17.264 -1.2015 -1.6528 -0.0656
15106TIP3    H266734   0.272   3.133  17.300  0.2672  1.6810  0.1820
15107TIP3   OH266735   0.494   4.818  14.176 -0.4413  0.2739  0.1344
15107TIP3    H166736   0.491   4.745  14.237 -0.9797 -0.2767 -0.5425
15107TIP3    H266737   0.422   4.875  14.202 -2.8120 -1.5660 -1.9388
15108TIP3   OH266738   3.899   6.063  15.371  0.1145 -0.2321 -0.3650
15108TIP3    H166739   3.813   6.032  15.344 -1.2159  1.3643  1.7106
15108TIP3    H266740   3.919   6.134  15.310 -1.0736  0.7991  0.3966
15109TIP3   OH266741   0.997   0.035  16.074 -0.0564 -0.1510  0.0100
15109TIP3    H166742   1.059   0.098  16.110 -0.9138 -0.7394  2.7719
15109TIP3    H266743   1.033  -0.050  16.097  0.6757 -0.7461 -2.9579
15110TIP3   OH266744   6.679   4.219   0.429  0.0340 -0.2814  0.1743
15110TIP3    H166745   6.733   4.297   0.418  0.6229 -0.6749  0.2473
15110TIP3    H266746   6.677   4.178   0.342 -1.0859  0.3275 -0.1046
15111TIP3   OH266747   6.659   1.840  14.392  0.5318  0.5096 -0.2726
15111TIP3    H166748   6.702   1.910  14.343  1.6264 -0.7882 -1.2231
15111TIP3    H266749   6.725   1.808  14.454  0.1041  0.1844  0.0277
15112TIP3   OH266750   3.292   2.295   1.841  0.0368 -0.3448 -0.1035
15112TIP3    H166751   3.261   2.372   1.888 -0.1755 -0.0995 -0.6420
15112TIP3    H266752   3.303   2.229   1.909 -1.3337 -0.3365  0.1526
15113TIP3   OH266753   3.709   6.076  15.850 -0.2441  0.4924  0.1528
15113TIP3    H166754   3.639   6.094  15.788 -2.3718  2.5573  2.8691
15113TIP3    H266755   3.771   6.148  15.838 -0.5734  0.8023  0.2878
15114TIP3   OH266756   4.924   6.619  16.410 -0.2892 -0.5238  0.2334
15114TIP3    H166757   4.927   6.647  16.502  2.3104 -1.1653  0.4372
15114TIP3    H266758   4.912   6.524  16.415 -2.2819 -0.3431 -0.2257
15115TIP3   OH266759   0.311   5.976  17.188  0.4728 -0.2088 -0.2052
15115TIP3    H166760   0.345   5.902  17.138  0.9069  0.2093 -0.5454
15115TIP3    H266761   0.216   5.971  17.177  0.4790 -0.8735  0.0058
15116TIP3   OH266762   1.889   1.144   2.092 -0.4145  0.1195 -0.4326
15116TIP3    H166763   1.876   1.085   2.017 -0.8600 -1.4820  0.8421
15116TIP3    H266764   1.983   1.162   2.092 -0.0702 -1.4843 -0.2560
15117TIP3   OH266765   3.609   3.820  17.253 -0.6806  0.2066  0.2779
15117TIP3    H166766   3.656   3.781  17.180 -1.1617  0.1572 -0.0046
15117TIP3    H266767   3.635   3.912  17.252  0.3320 -0.0567  0.8495
15118TIP3   OH266768   0.842   6.334  11.557 -0.3576  0.0151  0.2071
15118TIP3    H166769   0.771   6.327  11.620 -0.5530 -1.1803 -0.1259
15118TIP3    H266770   0.910   6.383  11.604 -1.0198  0.3304  0.8631
15119TIP3   OH266771   2.788   2.312   0.736 -0.5620 -0.0656 -0.0965
15119TIP3    H166772   2.843   2.381   0.773  0.8305 -1.5942  0.8008
15119TIP3    H266773   2.836   2.280   0.660 -0.7468 -0.6483  0.0230
15120TIP3   OH266774   5.027   0.877  12.365  0.6593 -0.0616  0.8662
15120TIP3    H166775   5.093   0.809  12.384  0.8574 -0.9691 -2.4739
15120TIP3    H266776   5.079   0.955  12.348  0.7975 -0.3636 -0.1545
15121TIP3   OH266777   4.339   4.805   6.303  0.0665  0.0358  0.1450
15121TIP3    H166778   4.431   4.800   6.276 -0.0185  0.1111 -0.1645
15121TIP3    H266779   4.289   4.787   6.223 -0.1895  0.3502  0.2322
15122TIP3   OH266780   5.671   1.342  14.547  0.5526  0.7878 -0.8547
15122TIP3    H166781   5.700   1.266  14.597 -0.0135  0.2121 -1.3869
15122TIP3    H266782   5.690   1.417  14.604 -0.7565  0.1042  0.5540
15123TIP3   OH266783   1.877   4.570  13.903  0.0543  0.1783  0.3599
15123TIP3    H166784   1.841   4.609  13.823  2.2379 -0.4567 -1.0290
15123TIP3    H266785   1.947   4.630  13.929  0.1434 -0.2404  1.1033
15124TIP3   OH266786   0.087   4.241  17.183 -0.1377 -0.5834  0.3945
15124TIP3    H166787   0.007   4.293  17.179 -1.0307 -1.9265  0.0651
15124TIP3    H266788   0.136   4.278  17.257 -1.1861  0.0770  0.7857
15125TIP3   OH266789   0.227   1.631  15.709  0.3278  0.2590 -0.1651
15125TIP3    H166790   0.292   1.567  15.739 -0.4102 -0.1595  0.5677
15125TIP3    H266791   0.277   1.691  15.653  1.4733  0.2942  0.8571
15126TIP3   OH266792   1.711   1.850  10.327 -0.0846 -0.2022 -0.2470
15126TIP3    H166793   1.745   1.932  10.291  0.0753  0.0732  0.5141
15126TIP3    H266794   1.778   1.822  10.389 -0.7221 -0.2360  0.4408
15127TIP3   OH266795   1.619   3.291  17.294 -0.3601 -0.1346  0.4099
15127TIP3    H166796   1.640   3.211  17.343 -0.7277 -1.1444 -1.0100
15127TIP3    H266797   1.524   3.287  17.283 -0.3758  0.4980  0.2956
15128TIP3   OH266798   0.642   3.386   2.587  0.5090 -0.2357 -0.2106
15128TIP3    H166799   0.638   3.462   2.645  1.6539 -0.0322 -0.3783
15128TIP3    H266800   0.630   3.422   2.499 -1.3486 -0.5586 -0.1190
15129TIP3   OH266801   3.595   6.655  15.714 -0.1374 -1.4628  0.1652
15129TIP3    H166802   3.509   6.638  15.675 -0.6587  0.6426  0.2600
15129TIP3    H266803   3.575   6.687  15.802  0.7573 -1.1985  0.2817
15130TIP3   OH266804   1.985   0.478   0.913 -0.1878  0.1053 -0.0368
15130TIP3    H166805   1.941   0.493   0.998  1.7518  1.6470  0.7698
15130TIP3    H266806   1.959   0.553   0.860 -2.8521 -1.7309 -1.5743
15131TIP3   OH266807   6.523   1.980  14.681  0.5221  0.0692 -0.2903
15131TIP3    H166808   6.604   1.946  14.718  0.7194  2.4941  1.7582
15131TIP3    H266809   6.545   2.069  14.652 -0.5171 -0.5205 -3.2538
15132TIP3   OH266810   1.365   3.164  11.970  0.1359  0.3583  0.0725
15132TIP3    H166811   1.294   3.220  12.003  1.0151  1.0472  0.8945
15132TIP3    H266812   1.341   3.076  11.997 -1.1615  0.3411 -1.0330
15133TIP3   OH266813   1.721   6.196   3.125  0.6640  0.2448  0.6670
15133TIP3    H166814   1.713   6.141   3.203  1.3761  0.7348  1.0973
15133TIP3    H266815   1.797   6.162   3.079 -0.5073 -0.8748 -0.5216
15134TIP3   OH266816   3.273   3.375   5.648  0.1481 -0.2393  0.1193
15134TIP3    H166817   3.215   3.418   5.586  2.6413  0.1603 -2.1160
15134TIP3    H266818   3.276   3.283   5.621  0.9286 -0.1497 -0.1433
15135TIP3   OH266819   4.479   1.657  14.461 -0.4958 -0.0022  0.0213
15135TIP3    H166820   4.399   1.609  14.439  1.0444 -2.1233 -1.2869
15135TIP3    H266821   4.541   1.634  14.393  1.4656  1.0558  1.3501
15136TIP3   OH266822   6.690   2.816  12.897  0.4891 -0.4075  0.3307
15136TIP3    H166823   6.749   2.873  12.847 -1.3233  1.2711 -0.0265
15136TIP3    H266824   6.604   2.829  12.856 -0.1855 -2.6427  0.9262
15137TIP3   OH266825   6.125   6.208  15.252  0.0022 -0.1350 -0.1158
15137TIP3    H166826   6.032   6.198  15.272  0.2692 -0.5221  1.0349
15137TIP3    H266827   6.165   6.127  15.283  0.6813 -0.1212 -0.9247
15138TIP3   OH266828   2.274   1.329  15.347  0.0797 -0.3243 -0.4551
15138TIP3    H166829   2.349   1.388  15.336  1.0291 -1.3627  0.2806
15138TIP3    H266830   2.312   1.242  15.350 -1.1586 -0.8660  0.0603
15139TIP3   OH266831   2.493   4.190   2.657  0.0110 -0.3431  0.2147
15139TIP3    H166832   2.501   4.182   2.752 -0.4238 -0.2649  0.2607
15139TIP3    H266833   2.533   4.275   2.637 -1.8707  0.7117  0.6135
15140TIP3   OH266834   3.475   4.652  16.526 -0.1941 -0.2044  0.4491
15140TIP3    H166835   3.570   4.661  16.531 -0.2893  0.6269  1.1343
15140TIP3    H266836   3.448   4.721  16.465 -0.4777  0.5575  1.4186
15141TIP3   OH266837   1.363   2.562  16.229 -0.2548 -0.5952  0.2714
15141TIP3    H166838   1.382   2.493  16.165  0.8901  0.4638 -0.5837
15141TIP3    H266839   1.297   2.524  16.287 -0.2632 -2.0997 -0.6790
15142TIP3   OH266840   3.345   2.857  11.283  0.9973 -0.5448 -0.7910
15142TIP3    H166841   3.408   2.927  11.300 -1.9602  2.2422 -0.4367
15142TIP3    H266842   3.318   2.870  11.192  1.5665 -2.3409 -1.2665
15143TIP3   OH266843   5.562   4.495   2.604 -0.0206  0.7140  0.9845
15143TIP3    H166844   5.564   4.489   2.508 -1.4917  0.5049  0.9503
15143TIP3    H266845   5.640   4.547   2.626  0.4573  0.5786 -0.3007
15144TIP3   OH266846   2.863   2.411   1.390  0.1150  0.5228 -0.7127
15144TIP3    H166847   2.916   2.341   1.352 -0.2126  1.0789 -2.2798
15144TIP3    H266848   2.912   2.439   1.467 -0.1685 -1.9813  0.4957
15145TIP3   OH266849   0.791   5.059   6.014  0.0545  0.0827 -0.2901
15145TIP3    H166850   0.810   5.064   6.108  1.5311 -0.3107 -0.5450
15145TIP3    H266851   0.876   5.041   5.973 -0.3288  1.5080 -1.8218
15146TIP3   OH266852   2.300   1.252   5.985 -0.2765  0.5316  0.4034
15146TIP3    H166853   2.268   1.331   6.031  0.0348 -0.5292  2.5767
15146TIP3    H266854   2.325   1.192   6.055 -0.0949 -1.3660 -1.1959
15147TIP3   OH266855   0.105   1.546   2.029 -0.1360 -0.3971 -0.6491
15147TIP3    H166856   0.090   1.548   1.934 -2.8116  0.9866 -0.2929
15147TIP3    H266857   0.089   1.455   2.053 -0.1172 -0.6217 -1.4470
15148TIP3   OH266858   4.401   4.283   1.299 -0.1074  0.7871 -0.2713
15148TIP3    H166859   4.405   4.241   1.213  0.0425 -0.7190  0.4254
15148TIP3    H266860   4.325   4.341   1.295  0.7829  1.9189 -1.8955
15149TIP3   OH266861   4.623   4.976   4.718 -0.6099 -0.0189  0.2934
15149TIP3    H166862   4.655   4.896   4.677  0.3658  0.5405 -0.0646
15149TIP3    H266863   4.558   4.946   4.781 -1.7391 -0.9573 -1.2323
15150TIP3   OH266864   5.042   4.532  14.853  0.2835 -0.1489  0.9889
15150TIP3    H166865   5.020   4.624  14.843  0.9828  0.0648  1.3506
15150TIP3    H266866   5.015   4.491  14.771 -1.1524  0.1492  1.2876
15151TIP3   OH266867   5.482   2.651  14.948  0.1218 -0.2710 -0.3453
15151TIP3    H166868   5.444   2.734  14.919 -0.3071  0.1625  1.3626
15151TIP3    H266869   5.467   2.591  14.875 -1.7866  0.4930 -0.6401
15152TIP3   OH266870   5.283   0.399   4.330  0.0348  0.5085  0.5482
15152TIP3    H166871   5.255   0.374   4.242  0.1800  0.7710  0.4286
15152TIP3    H266872   5.298   0.315   4.374  0.7085  0.3754  0.0867
15153TIP3   OH266873   3.774   2.312  14.107  0.0170  0.1746  0.4658
15153TIP3    H166874   3.821   2.237  14.070 -0.7509 -1.1385  2.0428
15153TIP3    H266875   3.684   2.281  14.120  0.0078  0.8608  2.4593
15154TIP3   OH266876   1.894   5.335  15.230 -0.3094 -0.3292  0.1998
15154TIP3    H166877   1.868   5.247  15.258  1.8792 -1.1413 -0.1433
15154TIP3    H266878   1.864   5.392  15.301 -2.9116 -1.1200 -0.1639
15155TIP3   OH266879   3.266   6.068  12.131  0.1755 -0.3691  0.0471
15155TIP3    H166880   3.174   6.090  12.115 -0.0924 -1.7403 -0.4516
15155TIP3    H266881   3.310   6.152  12.139 -0.8802  0.3208 -1.1412
15156TIP3   OH266882   4.408   4.509   2.207  0.0319 -0.1820  0.5275
15156TIP3    H166883   4.438   4.419   2.219  0.7496 -0.1592 -0.8107
15156TIP3    H266884   4.462   4.560   2.267 -0.2922 -0.6176  1.2067
15157TIP3   OH266885   2.763   3.962   3.879 -0.7012  0.2921  0.4790
15157TIP3    H166886   2.674   3.953   3.911 -0.7637  2.0511  0.9073
15157TIP3    H266887   2.816   3.910   3.939 -1.2839  0.4130  1.1087
15158TIP3   OH266888   4.689   1.137   3.917 -0.1365  0.1154 -0.2541
15158TIP3    H166889   4.695   1.048   3.953  0.8972 -0.2111 -1.1925
15158TIP3    H266890   4.780   1.164   3.904 -0.2889  2.2750  2.2190
15159TIP3   OH266891   5.259   4.188   4.668  0.0127  0.3437 -0.0217
15159TIP3    H166892   5.190   4.136   4.707  0.1589  0.4387  0.3701
15159TIP3    H266893   5.213   4.254   4.615 -0.1583 -0.6467 -1.1460
15160TIP3   OH266894   5.367   4.425  14.760 -0.1293 -0.0704 -0.8088
15160TIP3    H166895   5.300   4.359  14.740 -0.7027  0.0075  0.7058
15160TIP3    H266896   5.365   4.485  14.686 -0.2587 -1.2339 -1.7741
15161TIP3   OH266897   5.149   0.895  11.190 -0.5763 -0.1465 -0.2309
15161TIP3    H166898   5.069   0.942  11.163 -0.0819  0.0607 -1.4068
15161TIP3    H266899   5.220   0.942  11.145  0.5541  1.3247  2.8027
15162TIP3   OH266900   1.033   2.881  11.148  0.7211 -0.0272  0.3662
15162TIP3    H166901   1.015   2.890  11.055 -0.7963 -1.6168  0.4381
15162TIP3    H266902   0.977   2.947  11.190  1.2033  0.5077  0.1674
15163TIP3   OH266903   5.433   6.723   1.781 -0.2998  0.0373  0.4870
15163TIP3    H166904   5.364   6.790   1.785 -0.4854 -0.0759 -0.5901
15163TIP3    H266905   5.387   6.642   1.763  0.1092 -0.0326 -0.2758
15164TIP3   OH266906   5.543   5.792   5.071 -0.2840  0.0326  0.6783
15164TIP3    H166907   5.475   5.847   5.031 -0.8600 -1.5432 -0.6094
15164TIP3    H266908   5.567   5.838   5.151 -0.6222  2.2308 -0.4125
15165TIP3   OH266909   0.393   2.573  13.925  0.4306 -0.3979 -0.1043
15165TIP3    H166910   0.348   2.648  13.886 -1.2445 -0.3282  1.7523
15165TIP3    H266911   0.460   2.613  13.982 -0.0898 -0.3080  0.4565
15166TIP3   OH266912   0.719   6.013  16.726  0.0472 -0.0882  0.0735
15166TIP3    H166913   0.720   6.016  16.821  0.2992 -0.0151  0.0673
15166TIP3    H266914   0.806   5.980  16.702 -0.6909 -2.0799 -0.0652
15167TIP3   OH266915   3.858   2.353   0.793  0.7050  0.1922 -0.5798
15167TIP3    H166916   3.898   2.374   0.878  0.5011  0.8643 -0.6418
15167TIP3    H266917   3.784   2.297   0.815  0.8202  0.1337 -0.3347
15168TIP3   OH266918   0.921   3.255  12.409 -0.3043  0.3790 -0.6622
15168TIP3    H166919   1.003   3.300  12.388  0.2812  0.5611  1.7637
15168TIP3    H266920   0.862   3.279  12.337  1.6672  0.3811 -2.4001
15169TIP3   OH266921   6.359   1.557   2.132  0.7273 -0.3627  0.2542
15169TIP3    H166922   6.316   1.477   2.162  1.1165 -0.4434  0.6058
15169TIP3    H266923   6.383   1.602   2.213 -3.5648  2.4201  0.3352
15170TIP3   OH266924   0.957   1.028  11.430 -0.6063 -0.6037  0.3020
15170TIP3    H166925   0.987   1.033  11.521 -0.7817 -0.2254  0.3387
15170TIP3    H266926   0.951   1.119  11.401 -0.8230 -0.7122 -0.0010
15171TIP3   OH266927   0.126   6.273  12.309 -0.0699  0.1866  0.4854
15171TIP3    H166928   0.170   6.292  12.392 -0.6367 -0.1833  0.8742
15171TIP3    H266929   0.078   6.192  12.325  0.2489 -0.1789 -0.3736
15172TIP3   OH266930   4.752   5.745  17.282  0.2803  0.2743 -0.0703
15172TIP3    H166931   4.673   5.788  17.315  0.9182  0.7883  0.8230
15172TIP3    H266932   4.816   5.755  17.352  1.5132  0.9360 -1.2475
15173TIP3   OH266933   3.062   5.865   1.899  0.4339  0.1377  0.8104
15173TIP3    H166934   3.038   5.820   1.818 -1.4933 -0.4557  1.6547
15173TIP3    H266935   3.095   5.950   1.871 -0.8073  0.1884 -0.5860
15174TIP3   OH266936   5.981   4.583  15.436 -0.0924 -0.5245  0.1652
15174TIP3    H166937   5.957   4.493  15.413  1.0572 -0.8351  0.1405
15174TIP3    H266938   5.902   4.618  15.479 -0.6307 -1.4628 -0.0286
15175TIP3   OH266939   0.471   3.772  16.667 -0.0707 -0.3548 -0.8126
15175TIP3    H166940   0.532   3.722  16.612  0.3046  0.5517 -1.2448
15175TIP3    H266941   0.524   3.802  16.741 -0.9008 -2.8191  0.9073
15176TIP3   OH266942   5.898   4.331  12.605 -0.2564  0.5964  0.6704
15176TIP3    H166943   5.955   4.260  12.635  0.0371  0.2261 -0.7138
15176TIP3    H266944   5.811   4.306  12.635  0.1934  0.9147  2.3626
15177TIP3   OH266945   1.464   6.589  15.706  0.3385  0.3238 -0.7081
15177TIP3    H166946   1.413   6.508  15.710 -0.1061  0.5167 -2.0265
15177TIP3    H266947   1.442   6.635  15.787  1.2508 -1.2427  0.4645
15178TIP3   OH266948   4.533   3.237  16.443 -0.4865 -0.0974  0.0629
15178TIP3    H166949   4.610   3.247  16.499  0.0860 -0.1637 -0.7058
15178TIP3    H266950   4.517   3.325  16.409 -0.6461 -0.1206  0.0766
15179TIP3   OH266951   6.115   6.544   2.385 -0.1656 -0.4159  0.6179
15179TIP3    H166952   6.178   6.523   2.317 -0.2398 -0.6559  0.6225
15179TIP3    H266953   6.092   6.636   2.369  0.3922 -0.2435  0.7862
15180TIP3   OH266954   3.559   3.249  11.841  0.4411 -0.0269  0.4928
15180TIP3    H166955   3.608   3.171  11.866 -0.0227 -0.1735  0.9717
15180TIP3    H266956   3.487   3.253  11.904 -0.0869  0.2548 -0.1124
15181TIP3   OH266957   1.606   4.323   0.570  0.3299  0.1950  0.1355
15181TIP3    H166958   1.603   4.260   0.498  0.8989 -0.4376  0.6589
15181TIP3    H266959   1.516   4.327   0.602  0.5626 -1.6470  1.1846
15182TIP3   OH266960   6.701   2.882  17.254 -0.0712  0.2005 -0.7857
15182TIP3    H166961   6.722   2.863  17.345  0.2977  2.6241 -0.3086
15182TIP3    H266962   6.618   2.836  17.238 -0.7900  0.7302  1.1625
15183TIP3   OH266963   0.358   0.355   1.617  0.5969  0.1737 -0.2122
15183TIP3    H166964   0.312   0.413   1.678  0.1109 -0.2901 -0.1223
15183TIP3    H266965   0.316   0.372   1.533 -0.6944 -1.2007  0.1063
15184TIP3   OH266966   3.094   1.512   0.730  0.4579 -0.3113  0.1921
15184TIP3    H166967   3.136   1.518   0.644  0.3070 -0.8649  0.0725
15184TIP3    H266968   3.001   1.525   0.712  0.4344 -0.3545  0.2812
15185TIP3   OH266969   2.114   3.341  15.961  0.1038 -0.4654  0.5570
15185TIP3    H166970   2.162   3.263  15.988  2.1409  0.2640 -0.7526
15185TIP3    H266971   2.080   3.318  15.874  2.6970  0.7817 -0.9123
15186TIP3   OH266972   6.411   1.107  14.989  0.5612  1.0256 -0.7601
15186TIP3    H166973   6.373   1.058  14.915  0.0664 -1.0442  0.7606
15186TIP3    H266974   6.503   1.116  14.966  0.6938 -0.7380 -1.1011
15187TIP3   OH266975   3.921   1.815   2.377 -0.0626 -0.5251  0.5302
15187TIP3    H166976   3.954   1.864   2.452 -1.8860 -0.9027  1.6451
15187TIP3    H266977   3.890   1.882   2.316 -0.6296 -0.2382  1.1219
15188TIP3   OH266978   3.859   1.072  11.652  0.3599  0.1368 -0.3840
15188TIP3    H166979   3.937   1.111  11.612 -0.1192  0.6694 -0.8181
15188TIP3    H266980   3.894   1.014  11.720  1.1191  0.8591 -0.1300
15189TIP3   OH266981   5.349   2.654  15.313  0.2923 -0.0062 -0.4180
15189TIP3    H166982   5.373   2.723  15.252  0.4710  3.5347  3.2630
15189TIP3    H266983   5.254   2.648  15.305  0.3219  0.2944 -1.1037
15190TIP3   OH266984   2.841   4.766   5.549  0.1777  0.2320  0.1558
15190TIP3    H166985   2.902   4.693   5.538  0.3526  0.2815  0.7907
15190TIP3    H266986   2.872   4.832   5.486 -0.5695 -0.6076 -1.1371
15191TIP3   OH266987   2.458   3.802  15.190  0.4498  0.2577 -0.9538
15191TIP3    H166988   2.455   3.783  15.096  0.7335  1.1065 -1.1461
15191TIP3    H266989   2.544   3.769  15.218  0.5969  0.4921 -1.1165
15192TIP3   OH266990   2.990   2.282   3.212  0.2080 -0.0742 -0.4867
15192TIP3    H166991   3.007   2.195   3.177 -0.0510 -0.2696 -0.1443
15192TIP3    H266992   3.077   2.319   3.228  0.4333 -1.6220  2.6375
15193TIP3   OH266993   2.814   0.329  14.032 -0.2761  0.2117  0.1504
15193TIP3    H166994   2.860   0.373  13.960  0.6836 -1.0279 -0.0147
15193TIP3    H266995   2.794   0.400  14.093 -1.2634  1.3240 -1.3797
15194TIP3   OH266996   0.550   1.399   2.390  0.1876 -0.2519 -0.2558
15194TIP3    H166997   0.528   1.442   2.473 -1.2262 -0.2489 -0.6152
15194TIP3    H266998   0.543   1.305   2.409  1.0806 -0.2885 -0.0612
15195TIP3   OH266999   2.694   6.495   3.196  0.5981  0.0130  0.4303
15195TIP3    H167000   2.687   6.484   3.101  0.6466 -0.0514  0.4346
15195TIP3    H267001   2.611   6.461   3.230 -0.1255  1.5038  0.2910
15196TIP3   OH267002   6.388   6.652   5.946 -0.1121  0.3904 -0.0823
15196TIP3    H167003   6.473   6.614   5.926  0.1464  0.8195  0.2133
15196TIP3    H267004   6.354   6.597   6.017 -0.2517 -0.0123 -0.4500
15197TIP3   OH267005   3.073   4.167   5.931  0.0016  0.2237 -0.7398
15197TIP3    H167006   3.081   4.240   5.869 -0.6356 -1.3727 -2.8427
15197TIP3    H267007   3.002   4.113   5.894  1.4815 -2.2640 -0.1539
15198TIP3   OH267008   5.787   2.867   3.919 -0.0402  0.0317  0.4799
15198TIP3    H167009   5.830   2.939   3.964  1.2649 -1.0692  1.0749
15198TIP3    H267010   5.789   2.795   3.982 -1.5897 -0.4633  0.0253
15199TIP3   OH267011   5.509   0.807  12.493  0.2676  0.0602 -0.5420
15199TIP3    H167012   5.498   0.729  12.548  0.3741  0.4517  0.0477
15199TIP3    H267013   5.592   0.793  12.448  0.4794  0.0007 -0.1423
15200TIP3   OH267014   4.497   5.753  14.344  0.0456  0.3772 -0.4438
15200TIP3    H167015   4.490   5.810  14.268  0.2433  0.3457 -0.4853
15200TIP3    H267016   4.511   5.813  14.418 -1.3678  0.4977 -0.2466
15201TIP3   OH267017   0.966   1.628  12.455 -0.0126  1.1049 -0.7580
15201TIP3    H167018   0.959   1.567  12.382  0.7949 -0.1918  0.1937
15201TIP3    H267019   0.878   1.663  12.466 -1.0009 -1.2997 -0.2022
15202TIP3   OH267020   6.687   6.190  14.850 -0.4192 -0.0712 -0.0904
15202TIP3    H167021   6.667   6.132  14.776 -1.7745 -1.2198  1.1192
15202TIP3    H267022   6.640   6.271  14.831  0.8607  0.3908 -1.4239
15203TIP3   OH267023   0.950   0.930   2.446  0.4295  0.1692 -0.1805
15203TIP3    H167024   1.008   0.975   2.509  0.1522 -0.8289  0.8160
15203TIP3    H267025   0.869   0.982   2.449  0.1988 -0.2163  0.7729
15204TIP3   OH267026   1.052   1.128  16.868 -0.3216  0.3494 -0.1616
15204TIP3    H167027   1.061   1.072  16.790  0.1509 -1.0713  0.8790
15204TIP3    H267028   1.134   1.176  16.871 -0.7194  1.1258 -1.0494
15205TIP3   OH267029   3.009   6.206   3.674  0.1152 -0.6944  0.1140
15205TIP3    H167030   2.983   6.297   3.690  2.5724  0.0193  0.5751
15205TIP3    H267031   2.952   6.177   3.603 -1.5294  0.7955  0.7386
15206TIP3   OH267032   3.707   1.115  17.009  0.4429  0.2342 -0.6803
15206TIP3    H167033   3.775   1.174  16.976  1.1332 -0.9857 -1.5044
15206TIP3    H267034   3.752   1.062  17.075  0.5122 -1.0655 -1.7315
15207TIP3   OH267035   0.528   4.781   3.424  0.2095  0.1952  0.2849
15207TIP3    H167036   0.611   4.776   3.470  0.1109  2.3774  0.8424
15207TIP3    H267037   0.527   4.869   3.385 -1.8317  0.2621  0.3447
15208TIP3   OH267038   5.075   3.387   1.763  0.2870 -0.1919 -0.2050
15208TIP3    H167039   5.115   3.471   1.740  0.0095 -0.0026  0.0110
15208TIP3    H267040   5.107   3.367   1.851  0.1933 -0.2156 -0.1759
15209TIP3   OH267041   2.637   3.463   2.682  0.0698  0.7341  0.4311
15209TIP3    H167042   2.543   3.464   2.661  0.2802 -0.4576 -0.6867
15209TIP3    H267043   2.644   3.404   2.757  0.1335 -0.8503 -0.7769
15210TIP3   OH267044   0.713   6.314  12.942  0.2015  0.4543 -0.1365
15210TIP3    H167045   0.657   6.329  12.866 -1.1993 -0.3976  0.6841
15210TIP3    H267046   0.707   6.220  12.959  0.3969  0.6375  1.0692
15211TIP3   OH267047   1.253   4.476   1.830  0.2023 -0.1337 -0.3487
15211TIP3    H167048   1.311   4.422   1.778 -0.8742 -0.8383 -0.8394
15211TIP3    H267049   1.224   4.419   1.901 -1.6726 -0.5623 -1.3870
15212TIP3   OH267050   2.713   5.130   2.305 -0.7074 -0.3279 -0.2454
15212TIP3    H167051   2.638   5.080   2.337 -2.2440  1.2075 -1.3142
15212TIP3    H267052   2.705   5.129   2.210  0.4195  0.1942 -0.3715
15213TIP3   OH267053   0.955   6.460  12.954  0.2056  0.0932 -0.1895
15213TIP3    H167054   1.038   6.423  12.924 -0.3465 -1.4320  0.0591
15213TIP3    H267055   0.895   6.385  12.957 -0.1026  0.2752  3.5379
15214TIP3   OH267056   2.637   2.371   4.501  0.5777  0.1315 -0.8834
15214TIP3    H167057   2.718   2.401   4.460  0.0371  1.4194 -1.0653
15214TIP3    H267058   2.601   2.449   4.543 -1.3057 -0.0391 -2.0723
15215TIP3   OH267059   2.152   4.020   4.017  0.0664 -0.7052  0.2355
15215TIP3    H167060   2.073   4.069   3.995 -0.3048 -1.0197  0.8272
15215TIP3    H267061   2.223   4.084   4.009 -0.2751 -0.3609 -0.0781
15216TIP3   OH267062   6.617   6.219   4.304 -0.0658 -0.3563  0.3887
15216TIP3    H167063   6.676   6.147   4.325  0.9409  0.9256  2.2909
15216TIP3    H267064   6.533   6.177   4.287  0.2184 -1.9617  2.5373
15217TIP3   OH267065   0.963   1.877  17.301  0.6331  0.3929 -0.2566
15217TIP3    H167066   0.994   1.953  17.350 -0.4147  1.1553 -0.7314
15217TIP3    H267067   1.036   1.853  17.244  0.7998  1.3707 -0.4760
15218TIP3   OH267068   3.908   1.458  13.058 -0.8008 -0.2283  0.4341
15218TIP3    H167069   3.902   1.469  12.963 -2.0827  0.7276  0.5933
15218TIP3    H267070   3.926   1.365  13.070  0.7563 -0.1375 -0.7671
15219TIP3   OH267071   4.453   6.565  12.429 -0.1952  0.3577  0.2643
15219TIP3    H167072   4.380   6.515  12.394 -0.0750  0.7667 -0.6097
15219TIP3    H267073   4.422   6.598  12.514 -1.0939  0.6645 -0.1683
15220TIP3   OH267074   0.364   0.173   3.202  0.1693  0.4602  0.2292
15220TIP3    H167075   0.445   0.191   3.155  0.7701  2.5576  1.8994
15220TIP3    H267076   0.298   0.166   3.134  1.2025  2.1017 -1.0251
15221TIP3   OH267077   0.319   5.755  13.034 -0.0532  0.7499  0.1089
15221TIP3    H167078   0.243   5.812  13.025 -0.7978 -0.2193  0.0918
15221TIP3    H267079   0.283   5.672  13.065  1.0538  0.4061  0.5147
15222TIP3   OH267080   2.036   2.790  15.703  0.6621  0.2999  0.5441
15222TIP3    H167081   1.977   2.865  15.717  0.4001  0.3950 -0.9025
15222TIP3    H267082   1.990   2.716  15.743  0.1513  0.6063  0.5357
15223TIP3   OH267083   1.468   3.234   1.134 -0.0777  0.3589  0.3377
15223TIP3    H167084   1.401   3.168   1.115 -1.1202  0.7772  2.3023
15223TIP3    H267085   1.503   3.257   1.048 -0.9211 -1.4451 -0.5623
15224TIP3   OH267086   6.068   2.001  14.740 -0.0565  0.0866 -0.0445
15224TIP3    H167087   5.985   1.962  14.712  0.1979 -0.0574 -0.6147
15224TIP3    H267088   6.052   2.031  14.829 -0.2645 -1.3118  0.4074
15225TIP3   OH267089   2.883   4.388  11.685  0.5711  0.0259 -0.7750
15225TIP3    H167090   2.848   4.469  11.649  1.9042  0.1359 -1.8667
15225TIP3    H267091   2.842   4.319  11.632 -1.0328 -0.1008  0.5403
15226TIP3   OH267092   6.427   2.117   2.782  0.5190 -0.4149 -0.3048
15226TIP3    H167093   6.406   2.066   2.860  1.4138 -1.9003 -0.9983
15226TIP3    H267094   6.346   2.165   2.761  0.0816 -0.4862  1.1438
15227TIP3   OH267095   4.805   3.069  11.564 -0.1768 -0.3658 -0.3762
15227TIP3    H167096   4.777   3.159  11.547 -1.1261 -0.6061 -0.1360
15227TIP3    H267097   4.867   3.049  11.494 -1.6558 -0.2804 -1.7631
15228TIP3   OH267098   1.905   4.368   4.363 -0.3726 -0.1297 -0.2705
15228TIP3    H167099   1.914   4.372   4.458 -0.8321  1.6292 -0.2680
15228TIP3    H267100   1.981   4.318   4.334 -0.0439 -0.3931  0.9930
15229TIP3   OH267101   5.166   5.458   3.144 -0.2725  0.3539  0.6181
15229TIP3    H167102   5.082   5.417   3.165 -0.1442  0.4402  1.3597
15229TIP3    H267103   5.185   5.512   3.221 -0.8644  2.5357 -0.6573
15230TIP3   OH267104   4.079   5.919  17.099 -0.1274  0.4252  0.0262
15230TIP3    H167105   4.136   5.928  17.023  0.2501  0.4473  0.3080
15230TIP3    H267106   3.996   5.889  17.064  0.4219 -0.8160 -0.2607
15231TIP3   OH267107   0.542   3.548   2.797 -0.3345  0.1704 -0.6007
15231TIP3    H167108   0.456   3.559   2.757  0.5449  0.4027 -2.5500
15231TIP3    H267109   0.565   3.635   2.828 -1.1084 -0.0500  0.6425
15232TIP3   OH267110   1.365   4.018   5.650  0.4337  0.0318 -0.4604
15232TIP3    H167111   1.368   3.929   5.615  0.4543 -1.0458  2.1222
15232TIP3    H267112   1.457   4.045   5.654  0.5895 -0.6569  0.7179
15233TIP3   OH267113   3.994   4.430   1.663 -0.6811 -0.7123 -0.0175
15233TIP3    H167114   3.900   4.444   1.657 -0.7326  0.6372  2.8137
15233TIP3    H267115   4.025   4.494   1.727  1.8976 -2.3000  0.4758
15234TIP3   OH267116   3.932   4.583  12.234 -0.9404  0.4787 -0.8853
15234TIP3    H167117   3.875   4.519  12.192  0.7472 -1.5889 -0.1760
15234TIP3    H267118   3.884   4.609  12.313 -1.5907  0.0209 -1.1186
15235TIP3   OH267119   4.352   3.051  14.801  0.5007 -0.7603 -0.0072
15235TIP3    H167120   4.287   3.115  14.831 -0.7595 -0.5435 -2.9450
15235TIP3    H267121   4.433   3.101  14.796 -0.3597  0.5698 -1.8006
15236TIP3   OH267122   5.066   5.186   6.500  0.3138  0.4837  0.3341
15236TIP3    H167123   5.141   5.147   6.545 -0.4179 -0.5628  0.6708
15236TIP3    H267124   5.005   5.209   6.571 -1.3860 -2.2790 -0.0940
15237TIP3   OH267125   0.558   2.322  16.395 -0.6946  0.1571 -0.2677
15237TIP3    H167126   0.633   2.345  16.340  0.4511 -0.6488  0.8988
15237TIP3    H267127   0.491   2.295  16.333  0.6596 -1.0240 -1.3015
15238TIP3   OH267128   1.951   4.468  11.032 -0.7740  0.0129  0.2103
15238TIP3    H167129   1.938   4.390  11.086  1.3907  0.8217  2.0263
15238TIP3    H267130   1.884   4.530  11.063  0.0018  0.2211  1.5549
15239TIP3   OH267131   6.428   0.279   4.079  0.5520 -0.6074  0.7820
15239TIP3    H167132   6.392   0.227   4.007  1.0797 -2.3224  1.6817
15239TIP3    H267133   6.521   0.286   4.060  0.1176  2.6919 -0.8587
15240TIP3   OH267134   3.852   0.737  11.032 -0.3340 -1.2604  0.2685
15240TIP3    H167135   3.891   0.780  10.956  0.7617 -2.2288  0.2625
15240TIP3    H267136   3.892   0.781  11.108 -0.0818 -1.4920  0.2705
15241TIP3   OH267137   1.390   3.969   2.602 -0.0655  0.3108  0.0302
15241TIP3    H167138   1.384   3.909   2.676  2.1213  1.4964  1.2800
15241TIP3    H267139   1.427   3.916   2.531 -1.4056 -0.6282  0.0065
15242TIP3   OH267140   5.562   5.995  14.965 -0.1872  0.3177  0.3478
15242TIP3    H167141   5.577   5.903  14.987 -3.0012 -0.4952 -0.6804
15242TIP3    H267142   5.502   6.026  15.033 -0.9239  0.7392 -0.4737
15243TIP3   OH267143   2.295   3.576  14.220  0.3667 -0.1362 -0.0352
15243TIP3    H167144   2.372   3.628  14.243  0.8040 -0.3420 -0.9763
15243TIP3    H267145   2.221   3.627  14.253  0.9125 -0.0970  1.1665
15244TIP3   OH267146   0.526   3.488  17.024  0.7912 -0.1253  0.0361
15244TIP3    H167147   0.561   3.456  16.941 -1.3452 -3.1304  0.1437
15244TIP3    H267148   0.581   3.448  17.091  1.1917  0.5583  0.1253
15245TIP3   OH267149   0.348   3.310  14.641  1.0028  0.1322  0.2986
15245TIP3    H167150   0.278   3.288  14.580  3.5719  0.1733 -2.9577
15245TIP3    H267151   0.309   3.374  14.701 -2.0688 -0.9312 -0.4060
15246TIP3   OH267152   1.282   4.363  16.202  0.0538 -0.0882 -0.3767
15246TIP3    H167153   1.264   4.341  16.293  2.2526 -1.0885 -0.1193
15246TIP3    H267154   1.240   4.293  16.152  0.8848 -0.8939  0.0280
15247TIP3   OH267155   3.912   1.639  15.377  0.6072  0.1952  0.2883
15247TIP3    H167156   3.870   1.638  15.291  1.8358  0.0486 -0.3475
15247TIP3    H267157   3.992   1.588  15.364  0.7387  0.0578  1.5657
15248TIP3   OH267158   0.301   5.286   0.391 -0.3136 -0.1481 -0.1635
15248TIP3    H167159   0.254   5.338   0.456 -2.2076 -1.6976 -0.2103
15248TIP3    H267160   0.380   5.337   0.373 -2.1086  2.8498 -0.3593
15249TIP3   OH267161   6.263   1.572  16.893  0.1954  0.4368 -0.1909
15249TIP3    H167162   6.295   1.607  16.810  0.1960  1.5185  0.2455
15249TIP3    H267163   6.334   1.517  16.925  0.8345  1.2621 -0.1648
15250TIP3   OH267164   2.756   5.272  14.228 -0.0084 -0.3122 -0.0756
15250TIP3    H167165   2.751   5.312  14.141  1.8823  0.2059  0.0258
15250TIP3    H267166   2.827   5.208  14.221 -1.4331 -2.0164  0.4322
15251TIP3   OH267167   5.571   5.951   5.560  0.3846  0.8384  0.0072
15251TIP3    H167168   5.610   5.908   5.636 -0.2815 -2.1970 -1.2100
15251TIP3    H267169   5.483   5.976   5.589 -0.9590 -2.8326 -0.3435
15252TIP3   OH267170   0.740   3.870  11.199  0.3487 -0.0062 -0.3291
15252TIP3    H167171   0.747   3.950  11.147  1.0698  0.1836  0.0428
15252TIP3    H267172   0.741   3.799  11.135  2.0173  0.1844 -0.5497
15253TIP3   OH267173   4.307   5.778  12.816 -0.4855 -0.1820 -0.4777
15253TIP3    H167174   4.283   5.730  12.737  0.0539  0.0443 -0.7887
15253TIP3    H267175   4.399   5.754  12.831 -0.4680  0.0864 -0.1491
15254TIP3   OH267176   1.330   2.539   4.556  0.3904 -0.5831 -0.1360
15254TIP3    H167177   1.310   2.626   4.523 -0.1557 -0.7060 -0.1360
15254TIP3    H267178   1.360   2.490   4.479  1.8613 -0.0634  0.0750
15255TIP3   OH267179   4.103   5.231   3.115 -0.4272 -0.7453 -0.3080
15255TIP3    H167180   4.148   5.308   3.081 -2.4723  1.1563  1.0175
15255TIP3    H267181   4.087   5.251   3.207 -0.5564 -3.0082  0.2206
15256TIP3   OH267182   1.008   4.839   1.156 -0.2567  0.3488 -0.4201
15256TIP3    H167183   1.035   4.812   1.245  0.2814  1.0170 -0.3767
15256TIP3    H267184   1.074   4.800   1.099 -1.2387 -1.0503 -0.6497
15257TIP3   OH267185   1.455   5.138  15.259  0.2746  0.1388 -0.0249
15257TIP3    H167186   1.442   5.043  15.260  0.8113  0.0665  0.2078
15257TIP3    H267187   1.496   5.156  15.175  1.3329  0.0039  0.4521
15258TIP3   OH267188   4.733   3.854  11.402  0.2252  0.6435  0.1073
15258TIP3    H167189   4.662   3.897  11.449 -0.7499 -1.3684  0.5938
15258TIP3    H267190   4.691   3.782  11.355  1.7603  0.2284 -0.7084
15259TIP3   OH267191   6.050   5.314  14.578  0.2107 -0.0937  0.0734
15259TIP3    H167192   6.026   5.236  14.629  0.3738  0.5240  1.1187
15259TIP3    H267193   6.144   5.323  14.590  0.2310  0.1350 -0.2367
15260TIP3   OH267194   6.666   3.830  16.979 -0.4766  0.2057 -0.1087
15260TIP3    H167195   6.688   3.739  16.996 -0.0382 -0.0096 -1.6673
15260TIP3    H267196   6.661   3.870  17.066  3.0133 -0.4269  0.5024
15261TIP3   OH267197   4.516   1.332   0.303 -0.2963 -0.4506 -1.0491
15261TIP3    H167198   4.480   1.272   0.237 -0.3975 -1.9322  0.2836
15261TIP3    H267199   4.598   1.291   0.330  0.1351  0.5446 -0.8019
15262TIP3   OH267200   2.662   3.672  17.138  0.1506 -0.0656 -0.2422
15262TIP3    H167201   2.664   3.744  17.075 -1.9980  0.0731 -0.2251
15262TIP3    H267202   2.653   3.594  17.084  1.7135 -0.2737 -0.2283
15263TIP3   OH267203   5.208   1.763   3.046 -0.2199 -0.4270  0.1621
15263TIP3    H167204   5.225   1.768   3.141 -0.7950 -0.6859  0.2785
15263TIP3    H267205   5.147   1.690   3.036 -2.6375  1.4916 -0.0498
15264TIP3   OH267206   4.904   4.258   1.691  0.1745 -0.5153 -0.3667
15264TIP3    H167207   4.854   4.298   1.762 -0.5183 -0.6476 -0.7693
15264TIP3    H267208   4.887   4.164   1.700 -1.4785 -0.4059 -1.8329
15265TIP3   OH267209   4.359   3.297   1.434 -0.4377 -0.3934 -0.6369
15265TIP3    H167210   4.281   3.298   1.489 -0.3924  3.8168 -0.3005
15265TIP3    H267211   4.431   3.281   1.495 -0.5675  2.3988  0.4184
15266TIP3   OH267212   3.511   3.436   2.333  0.0941  0.2058 -0.0616
15266TIP3    H167213   3.472   3.477   2.411  0.7669  0.0180  0.3786
15266TIP3    H267214   3.477   3.347   2.334  1.5306 -0.3718  1.0649
15267TIP3   OH267215   5.113   6.342   3.741 -0.2136  0.1313 -0.3545
15267TIP3    H167216   5.108   6.380   3.829 -0.3750 -0.3802 -0.1341
15267TIP3    H267217   5.027   6.360   3.703 -0.0657  0.5494 -0.4910
15268TIP3   OH267218   5.343   2.011   0.764 -0.2416  0.3802 -0.6143
15268TIP3    H167219   5.414   2.033   0.704 -0.1794 -0.7008 -0.9579
15268TIP3    H267220   5.275   2.077   0.747  1.6185  3.0703  1.5142
15269TIP3   OH267221   6.241   0.602   0.544  0.1833 -0.7475  0.0609
15269TIP3    H167222   6.317   0.549   0.520  0.0564 -0.7856 -0.2579
15269TIP3    H267223   6.279   0.680   0.586  0.3592 -1.2139  0.7982
15270TIP3   OH267224   0.251   1.435  13.419 -0.3614 -0.8683  0.3037
15270TIP3    H167225   0.287   1.435  13.507  1.7316 -1.2154 -0.4938
15270TIP3    H267226   0.222   1.344  13.404  0.8689 -1.2361  0.0558
15271TIP3   OH267227   5.868   4.535  14.506  0.4003 -0.3539 -0.1850
15271TIP3    H167228   5.826   4.465  14.557  2.6927 -1.5770  0.1307
15271TIP3    H267229   5.815   4.613  14.524 -2.3172 -1.9647 -0.6295
15272TIP3   OH267230   1.657   0.946   1.039 -0.6329  0.3704 -0.2926
15272TIP3    H167231   1.708   0.913   0.965  1.9308  1.2292  0.9571
15272TIP3    H267232   1.571   0.906   1.028  0.9029 -3.0983 -1.2930
15273TIP3   OH267233   2.617   2.355   5.280 -0.0574  0.2110  0.7931
15273TIP3    H167234   2.693   2.389   5.232  1.0733 -0.3002  2.1421
15273TIP3    H267235   2.625   2.393   5.367 -1.7091  0.6018  0.8023
15274TIP3   OH267236   3.194   4.327   1.295  0.5286 -0.4189  0.1613
15274TIP3    H167237   3.136   4.346   1.222 -1.2880 -1.1322  1.3430
15274TIP3    H267238   3.163   4.383   1.366  0.8061 -1.3177  1.0210
15275TIP3   OH267239   3.520   5.948  13.822  0.6221 -0.0599  0.3808
15275TIP3    H167240   3.516   5.869  13.876 -0.6880 -0.7998 -0.7429
15275TIP3    H267241   3.471   5.925  13.743  2.0058  1.1793 -0.8841
15276TIP3   OH267242   0.452   6.436   6.144  0.0998  0.1750 -0.2509
15276TIP3    H167243   0.525   6.490   6.114  0.6115 -0.6935 -0.6064
15276TIP3    H267244   0.442   6.370   6.075 -1.8222  0.9963 -0.8170
15277TIP3   OH267245   5.093   4.512  11.496  0.4866  0.1476  0.7819
15277TIP3    H167246   5.035   4.437  11.506 -1.5185  1.5387  0.1104
15277TIP3    H267247   5.151   4.508  11.572 -0.3724 -1.3921  1.3841
15278TIP3   OH267248   1.447   0.568  16.052 -0.1287  0.2200  0.1259
15278TIP3    H167249   1.475   0.647  16.100  1.7023 -0.1773 -0.2157
15278TIP3    H267250   1.441   0.597  15.961  0.2424  0.0544  0.0460
15279TIP3   OH267251   4.193   2.099   5.202 -0.6735 -0.1133 -0.0006
15279TIP3    H167252   4.145   2.030   5.156  0.8553 -0.0564 -1.8326
15279TIP3    H267253   4.282   2.065   5.210 -0.4910  0.6343  1.3764
15280TIP3   OH267254   4.065   4.573  15.868 -0.3407 -0.4057 -0.0086
15280TIP3    H167255   4.041   4.499  15.923  0.3621 -1.0214 -0.4978
15280TIP3    H267256   4.005   4.569  15.794 -0.3305 -0.4631 -0.0140
15281TIP3   OH267257   3.594   4.116  11.304 -0.2803 -0.0199  0.3163
15281TIP3    H167258   3.529   4.053  11.276 -0.9353  0.0210  1.6281
15281TIP3    H267259   3.670   4.064  11.329 -0.4808 -0.2230  0.5069
15282TIP3   OH267260   4.143   3.809  12.564  0.2224 -0.3827  0.0813
15282TIP3    H167261   4.058   3.784  12.528 -0.3332 -0.3960  1.3302
15282TIP3    H267262   4.195   3.729  12.561 -0.7589 -1.1573  1.8499
15283TIP3   OH267263   0.755   1.348   6.356  0.2682  0.4379  0.3721
15283TIP3    H167264   0.744   1.254   6.338  2.5156  0.2505 -0.3366
15283TIP3    H267265   0.667   1.384   6.347 -1.3197 -2.0332  3.7159
15284TIP3   OH267266   6.117   3.956  12.077 -0.6541  0.1701  0.2000
15284TIP3    H167267   6.085   4.046  12.078  1.7525  1.0982 -0.3419
15284TIP3    H267268   6.086   3.920  11.994 -4.2330 -0.6401  1.6862
15285TIP3   OH267269   5.075   0.430  15.717 -0.1129  0.1138  0.6565
15285TIP3    H167270   5.003   0.381  15.755 -0.4278  0.2630  0.2525
15285TIP3    H267271   5.102   0.379  15.641  0.7196 -0.3461  1.2359
15286TIP3   OH267272   0.687   4.781  11.675  0.4707  0.0568 -0.1127
15286TIP3    H167273   0.694   4.814  11.765 -3.2165 -0.8335  0.6978
15286TIP3    H267274   0.703   4.687  11.683  0.1961 -0.0160 -0.3786
15287TIP3   OH267275   0.404   4.591   5.133 -0.0578 -0.0525  0.2364
15287TIP3    H167276   0.370   4.541   5.058  0.8894 -0.9773  0.3907
15287TIP3    H267277   0.461   4.529   5.178  1.5958  1.3245  0.1470
15288TIP3   OH267278   5.286   1.044   4.392 -0.3058 -0.2279 -0.7945
15288TIP3    H167279   5.266   0.972   4.452  0.1575  0.1011 -0.2256
15288TIP3    H267280   5.213   1.105   4.403  0.8816  0.9470  1.2377
15289TIP3   OH267281   0.808   5.866  14.639 -0.4117  0.5405  0.2975
15289TIP3    H167282   0.861   5.814  14.579 -0.2418  0.5426  0.4455
15289TIP3    H267283   0.822   5.826  14.725  0.2116  1.2088  0.5112
15290TIP3   OH267284   4.589   3.636  16.480 -0.4401  0.3003  0.0475
15290TIP3    H167285   4.568   3.583  16.403  0.7837  1.7203 -1.3401
15290TIP3    H267286   4.539   3.716  16.469  1.2991  1.3800 -0.4022
15291TIP3   OH267287   4.021   5.076   5.100  0.6325  0.2226  0.6766
15291TIP3    H167288   4.107   5.114   5.083 -0.5142  2.2522 -1.0492
15291TIP3    H267289   4.013   5.005   5.036  0.8500  0.3249  0.5330
15292TIP3   OH267290   4.589   5.405  10.764  0.0334 -0.5132 -0.3218
15292TIP3    H167291   4.668   5.409  10.819  0.5246 -0.2215 -1.0404
15292TIP3    H267292   4.537   5.480  10.793  0.6804  0.1462 -0.8284
15293TIP3   OH267293   2.300   4.731   4.100  0.0227 -0.1303 -0.3977
15293TIP3    H167294   2.377   4.699   4.053 -0.2714 -1.1915 -0.1858
15293TIP3    H267295   2.239   4.657   4.098 -0.6927  0.4384  0.0955
15294TIP3   OH267296   4.241   1.335   3.545 -0.4687  0.0882  0.3725
15294TIP3    H167297   4.217   1.323   3.637  3.4025  1.7186  1.7959
15294TIP3    H267298   4.252   1.245   3.511  1.3155 -0.6099  2.5716
15295TIP3   OH267299   6.521   5.042  13.088 -0.3551 -0.7899  0.1760
15295TIP3    H167300   6.505   4.961  13.136  2.1688 -1.7238 -0.3851
15295TIP3    H267301   6.533   5.108  13.157  0.3671 -1.5050  0.7540
15296TIP3   OH267302   5.026   4.953   0.917 -0.5633 -0.3336  0.2604
15296TIP3    H167303   4.972   4.963   0.995 -2.1433  0.9562 -0.9023
15296TIP3    H267304   5.059   5.041   0.899  0.6025 -0.8049  0.0261
15297TIP3   OH267305   2.356   2.757  14.716  0.2227 -0.0995 -0.2308
15297TIP3    H167306   2.377   2.841  14.757 -1.3926  0.1596  0.1258
15297TIP3    H267307   2.440   2.711  14.712  1.4381  2.0500 -1.6903
15298TIP3   OH267308   4.924   4.440  13.894 -0.7383  0.0419 -0.5850
15298TIP3    H167309   4.954   4.515  13.945  0.2598 -0.8267  0.1434
15298TIP3    H267310   4.991   4.372  13.909 -1.2167 -0.7342 -1.8390
15299TIP3   OH267311   3.413   5.540  14.279  0.3746 -0.1213  0.5393
15299TIP3    H167312   3.332   5.584  14.305  1.2277  1.4387  0.7003
15299TIP3    H267313   3.450   5.509  14.361 -0.5452 -1.7781  0.3616
15300TIP3   OH267314   4.497   1.453   0.581  0.0915  0.2517  0.1057
15300TIP3    H167315   4.522   1.381   0.639 -3.1361 -0.5120  0.7554
15300TIP3    H267316   4.486   1.412   0.496 -0.3512  0.2684  0.1541
15301TIP3   OH267317   5.861   3.963   4.922 -0.1029 -0.1764 -0.2294
15301TIP3    H167318   5.914   3.884   4.931 -0.9525 -0.6497  0.8490
15301TIP3    H267319   5.915   4.033   4.959 -0.1523 -0.6315  0.7428
15302TIP3   OH267320   4.600   2.013   3.593 -0.0330 -0.3191  0.6197
15302TIP3    H167321   4.680   2.001   3.644 -0.2955  1.8302  1.6007
15302TIP3    H267322   4.530   2.018   3.657 -0.5744  0.8360 -0.0353
15303TIP3   OH267323   3.004   5.109   2.879  0.4813  0.3395 -0.9919
15303TIP3    H167324   2.993   5.081   2.788  2.5519 -0.5236 -1.0448
15303TIP3    H267325   3.089   5.072   2.905  0.0098  0.6833  1.2507
15304TIP3   OH267326   1.634   4.632  11.471 -0.1230  0.6179  0.8530
15304TIP3    H167327   1.590   4.587  11.398  2.4513 -0.9505  0.1609
15304TIP3    H267328   1.607   4.584  11.549 -0.5112  0.3803  0.5753
15305TIP3   OH267329   3.036   2.225  17.372  0.5183  0.0047 -0.0376
15305TIP3    H167330   2.972   2.276  17.421  0.6392  0.0151  0.1079
15305TIP3    H267331   2.985   2.153  17.334  0.0142  1.1258 -1.6156
15306TIP3   OH267332   5.479   6.488  14.669 -0.7309 -0.3164  0.1690
15306TIP3    H167333   5.496   6.508  14.577  0.3265  0.4646  0.5091
15306TIP3    H267334   5.524   6.406  14.685  0.2536  0.2418  0.3184
15307TIP3   OH267335   5.563   3.917   2.672  0.0911 -0.0111  0.3047
15307TIP3    H167336   5.536   3.872   2.592 -0.5131  1.5906 -0.4276
15307TIP3    H267337   5.509   3.878   2.740 -0.2310 -0.5773 -0.2602
15308TIP3   OH267338   6.667   5.534   4.742 -0.2077  0.3941 -0.4009
15308TIP3    H167339   6.607   5.494   4.678 -1.7789 -0.7515  1.6736
15308TIP3    H267340   6.744   5.477   4.741  0.0696  0.7663 -1.7167
15309TIP3   OH267341   5.144   3.804  14.460 -0.0424 -0.2303  0.1258
15309TIP3    H167342   5.185   3.769  14.381  0.4036  1.9771 -0.7107
15309TIP3    H267343   5.060   3.839  14.430 -0.1257  0.1205  0.7472
15310TIP3   OH267344   3.455   2.573  11.673  0.1273 -0.1989 -0.1210
15310TIP3    H167345   3.375   2.523  11.693 -0.5429 -0.5337 -3.1367
15310TIP3    H267346   3.425   2.663  11.665  0.3935 -0.0616  0.4097
15311TIP3   OH267347   2.454   0.832   3.779 -0.1279 -0.0877  0.1152
15311TIP3    H167348   2.464   0.827   3.874 -1.8592  0.0310  0.3442
15311TIP3    H267349   2.383   0.895   3.766  0.2874  0.1242 -1.2758
15312TIP3   OH267350   0.862   0.327  10.935  0.7604  0.5666 -0.1964
15312TIP3    H167351   0.796   0.380  10.979 -0.3596  0.2961 -1.4740
15312TIP3    H267352   0.837   0.237  10.954  2.6507  0.3987  1.9613
15313TIP3   OH267353   1.572   2.412  17.273  0.1246  0.3068 -0.2907
15313TIP3    H167354   1.625   2.413  17.193  0.5329 -1.5912 -0.0752
15313TIP3    H267355   1.634   2.433  17.343 -0.1793  1.7008 -0.4102
15314TIP3   OH267356   6.439   5.178   4.155 -0.4812  0.0529  0.8591
15314TIP3    H167357   6.423   5.259   4.108  0.0350  0.3888  1.2514
15314TIP3    H267358   6.532   5.159   4.140 -0.3554  0.0640  1.5709
15315TIP3   OH267359   3.373   6.433  14.871  0.2529 -0.2501  0.3397
15315TIP3    H167360   3.381   6.427  14.966 -0.3499 -2.7329  0.3090
15315TIP3    H267361   3.458   6.466  14.842  0.5245  0.3299  1.7125
15316TIP3   OH267362   1.498   6.123   3.551  0.0449  0.0701 -0.1543
15316TIP3    H167363   1.518   6.172   3.471  1.9403  0.8639  0.7347
15316TIP3    H267364   1.479   6.035   3.522 -0.6041  0.6595 -1.5804
15317TIP3   OH267365   6.036   4.111  13.359 -0.2825 -0.2557  0.6293
15317TIP3    H167366   6.034   4.156  13.274 -1.5474 -0.6772  0.4168
15317TIP3    H267367   6.117   4.060  13.357  1.2731  2.0490  0.9296
15318TIP3   OH267368   4.874   0.897  11.300  0.1591  0.4205 -0.0434
15318TIP3    H167369   4.804   0.962  11.295  0.7921  1.0212 -1.7602
15318TIP3    H267370   4.891   0.872  11.209  1.0716 -0.9219  0.4583
15319TIP3   OH267371   5.313   5.525   4.890 -0.1227 -0.0795 -0.4550
15319TIP3    H167372   5.360   5.482   4.961  0.4278 -0.8256 -1.2452
15319TIP3    H267373   5.237   5.470   4.873 -1.5536  1.3132  1.0599
15320TIP3   OH267374   6.093   3.605   5.777  0.0397 -0.0432 -0.9449
15320TIP3    H167375   6.014   3.656   5.765  0.7133  1.2818 -0.0732
15320TIP3    H267376   6.067   3.531   5.832 -0.9893 -0.7974 -2.3927
15321TIP3   OH267377   3.838   1.753  11.992  0.3893  0.0175 -0.1787
15321TIP3    H167378   3.926   1.773  11.960  0.7822 -1.1806  0.0998
15321TIP3    H267379   3.812   1.675  11.943 -0.4440  0.2472 -0.1158
15322TIP3   OH267380   0.965   1.608  11.659  0.4843  0.4333  0.6815
15322TIP3    H167381   1.014   1.635  11.582  1.0877  3.4371  1.9348
15322TIP3    H267382   1.032   1.586  11.724  0.0113 -0.8746  0.7543
15323TIP3   OH267383   5.855   1.097  15.058 -0.4031  0.3240  0.2287
15323TIP3    H167384   5.917   1.169  15.064 -0.5634  0.5431 -0.5981
15323TIP3    H267385   5.823   1.100  14.967  0.1473 -1.2527 -0.0507
15324TIP3   OH267386   0.686   5.451   5.282 -0.3784  0.2312 -0.1055
15324TIP3    H167387   0.669   5.544   5.265 -1.6733 -0.3686 -2.3854
15324TIP3    H267388   0.770   5.434   5.240  0.3594  0.5530  1.1797
15325TIP3   OH267389   6.566   1.171  15.373  0.1607 -0.6820  0.1250
15325TIP3    H167390   6.554   1.254  15.419  0.9399 -1.4019  1.7208
15325TIP3    H267391   6.656   1.174  15.341  0.0317 -0.7274 -0.2525
15326TIP3   OH267392   4.403   2.493   3.080  0.7802 -0.1062  0.4229
15326TIP3    H167393   4.455   2.428   3.033  1.5886  1.1921 -0.5385
15326TIP3    H267394   4.459   2.520   3.154  0.9988  0.4397  0.0628
15327TIP3   OH267395   4.301   3.586  12.566  0.2476  0.6705 -0.6957
15327TIP3    H167396   4.337   3.550  12.486  0.8772  0.3124 -0.2624
15327TIP3    H267397   4.313   3.517  12.632 -0.5864  0.8176 -0.3709
15328TIP3   OH267398   4.403   0.203  11.577  0.0999  0.0710  0.2490
15328TIP3    H167399   4.318   0.244  11.593 -0.2547 -0.7586  0.5338
15328TIP3    H267400   4.382   0.123  11.528  0.8465  0.6173 -1.0364
15329TIP3   OH267401   4.060   6.015  16.750  0.2588  0.1509 -0.4436
15329TIP3    H167402   3.997   5.943  16.750  0.3723  0.0495 -0.4155
15329TIP3    H267403   4.121   5.993  16.679 -0.0204  0.5017 -0.7917
15330TIP3   OH267404   6.320   1.942  12.166 -0.0048  0.8376  0.7920
15330TIP3    H167405   6.307   2.036  12.173  0.9597  1.5317 -3.6560
15330TIP3    H267406   6.232   1.907  12.152 -0.2481  1.1870  1.3954
15331TIP3   OH267407   6.632   0.469   5.282 -0.3528 -0.1031  0.0783
15331TIP3    H167408   6.648   0.561   5.305  0.7713 -0.7745  2.3328
15331TIP3    H267409   6.694   0.451   5.211  0.3696  0.5376  0.5337
15332TIP3   OH267410   4.521   3.498  13.055  0.5548 -0.1191  0.2100
15332TIP3    H167411   4.517   3.589  13.024 -0.2204  0.1259  0.9781
15332TIP3    H267412   4.612   3.471  13.039  0.2329  0.0193 -2.1121
15333TIP3   OH267413   3.113   4.224  12.652  0.4360  0.2993  0.1178
15333TIP3    H167414   3.131   4.242  12.745 -0.7296 -0.6132  0.5430
15333TIP3    H267415   3.189   4.259  12.606  1.4025  0.0802  1.4829
15334TIP3   OH267416   2.741   5.675  15.359  0.2339 -0.4559 -0.1777
15334TIP3    H167417   2.734   5.656  15.265 -0.3402  0.2693 -0.2857
15334TIP3    H267418   2.781   5.761  15.363 -1.7278  0.4975  0.1686
15335TIP3   OH267419   5.488   2.541  11.853  0.3765 -0.0521 -0.2485
15335TIP3    H167420   5.534   2.493  11.784  1.0172 -0.8134  0.6843
15335TIP3    H267421   5.399   2.507  11.850 -0.5415  2.2476 -2.8319
15336TIP3   OH267422   0.921   6.499  13.232 -0.5734  0.0802  0.3289
15336TIP3    H167423   0.922   6.409  13.265  1.4937 -0.1415 -0.1773
15336TIP3    H267424   0.959   6.492  13.144 -0.0478  1.5025  0.4213
15337TIP3   OH267425   3.542   6.151  12.597  1.3793 -0.3199  0.5286
15337TIP3    H167426   3.524   6.058  12.585  1.4961 -0.0397 -2.4972
15337TIP3    H267427   3.619   6.169  12.544  1.7471  1.4046  1.5463
15338TIP3   OH267428   2.686   5.778  16.657  0.3758 -0.4267 -0.7319
15338TIP3    H167429   2.656   5.720  16.726  0.8764 -0.5584 -0.6201
15338TIP3    H267430   2.779   5.757  16.647  0.8394  1.1149  0.0682
15339TIP3   OH267431   1.880   0.015   3.177 -0.6960 -0.2328  0.7162
15339TIP3    H167432   1.925  -0.064   3.148 -1.8561 -1.1240  1.2656
15339TIP3    H267433   1.948   0.066   3.222  0.3881 -0.2489 -0.8161
15340TIP3   OH267434   6.610   5.235  14.499 -0.1656 -1.2764 -0.1223
15340TIP3    H167435   6.622   5.303  14.565  0.4947 -2.0648  0.6056
15340TIP3    H267436   6.542   5.268  14.441 -0.2494 -0.2534  0.5456
15341TIP3   OH267437   4.815   4.030   5.297 -0.7791  0.2754 -0.2836
15341TIP3    H167438   4.861   4.018   5.381  0.2423 -2.3951 -1.1187
15341TIP3    H267439   4.766   4.112   5.308  0.9133  1.0825  2.1709
15342TIP3   OH267440   4.306   1.953  14.535 -0.0681  0.1037  0.0175
15342TIP3    H167441   4.223   1.919  14.502 -0.3207  0.1170  0.6206
15342TIP3    H267442   4.335   1.888  14.599  0.9428 -0.4522 -0.9742
15343TIP3   OH267443   2.518   1.499  17.334 -0.0606  0.2009 -0.6446
15343TIP3    H167444   2.556   1.583  17.306 -3.3545  2.3220  0.6664
15343TIP3    H267445   2.431   1.498  17.294 -0.6998 -1.8647  0.6820
15344TIP3   OH267446   4.966   0.724  15.218  0.1691 -0.2771  0.0213
15344TIP3    H167447   5.012   0.711  15.136 -0.3770  0.4742 -0.4262
15344TIP3    H267448   4.988   0.813  15.244  1.6331 -1.0395  1.5549
15345TIP3   OH267449   2.356   4.438  15.137 -0.1432 -0.0023 -0.6410
15345TIP3    H167450   2.396   4.488  15.065 -2.8146  1.0879 -1.4991
15345TIP3    H267451   2.307   4.503  15.187 -1.8582 -1.3843 -0.4208
15346TIP3   OH267452   5.444   0.228  13.016 -0.4583 -0.0320  0.3375
15346TIP3    H167453   5.428   0.297  12.952  1.6645 -0.1948 -0.4729
15346TIP3    H267454   5.400   0.151  12.980 -1.7233  0.5574  0.5806
15347TIP3   OH267455   2.236   3.318  16.529  0.9357 -0.0911  0.1546
15347TIP3    H167456   2.223   3.237  16.480 -1.3989  0.6621 -0.5895
15347TIP3    H267457   2.289   3.373  16.471  1.0540 -0.4380 -0.0691
15348TIP3   OH267458   3.494   0.501   5.646 -0.2400 -0.3258 -0.4203
15348TIP3    H167459   3.430   0.564   5.613  0.6679  0.1698 -1.3318
15348TIP3    H267460   3.525   0.538   5.728 -1.8971 -1.1260  0.6040
15349TIP3   OH267461   2.909   0.920  16.074 -0.6346 -0.7862 -0.3815
15349TIP3    H167462   2.858   0.871  16.009 -1.4773 -0.2518 -0.1415
15349TIP3    H267463   2.989   0.944  16.029 -0.9674 -0.9091 -1.0486
15350TIP3   OH267464   2.856   5.348  13.523  0.1930 -0.0426  0.1714
15350TIP3    H167465   2.794   5.406  13.568 -0.2888 -1.2340  1.0936
15350TIP3    H267466   2.801   5.280  13.485  0.7542  0.0715 -0.8857
15351TIP3   OH267467   4.722   5.718   5.423 -0.1109  0.2112 -0.4719
15351TIP3    H167468   4.729   5.801   5.470  0.9155  0.8878 -1.7723
15351TIP3    H267469   4.782   5.659   5.471  2.8111  1.5570 -2.1896
15352TIP3   OH267470   4.643   3.719   3.939 -0.2565 -0.2009  0.4508
15352TIP3    H167471   4.662   3.682   4.025  1.0763  1.5308  0.9466
15352TIP3    H267472   4.589   3.796   3.957  0.5353  0.5288 -0.1782
15353TIP3   OH267473   0.526   2.670   4.121 -0.0187  0.3768  0.0560
15353TIP3    H167474   0.442   2.629   4.101  0.4325 -0.2749 -0.5592
15353TIP3    H267475   0.583   2.597   4.146  0.4330  0.7859  0.2386
15354TIP3   OH267476   0.004   0.989   0.248 -0.1382 -0.7011  0.0476
15354TIP3    H167477  -0.060   0.989   0.178  0.0046 -0.6342 -0.0828
15354TIP3    H267478   0.084   0.954   0.208  0.3690  0.6947 -0.2125
15355TIP3   OH267479   1.460   0.859  15.909 -0.3811 -0.3788 -0.4750
15355TIP3    H167480   1.394   0.915  15.869  0.7174  0.5632 -1.0484
15355TIP3    H267481   1.459   0.779  15.857 -2.7895 -1.4670  1.0647
15356TIP3   OH267482   0.390   0.763  17.087  0.1508  0.4681 -0.1978
15356TIP3    H167483   0.346   0.843  17.118  1.3514  1.9685 -2.1709
15356TIP3    H267484   0.481   0.775  17.114  0.1729 -0.6781  0.2586
15357TIP3   OH267485   5.195   5.289  13.190 -0.5482  0.1346 -0.0727
15357TIP3    H167486   5.262   5.224  13.208 -0.7442  0.1868  0.9019
15357TIP3    H267487   5.114   5.251  13.224 -0.5151  1.2254  1.3168
15358TIP3   OH267488   3.115   2.434  13.129 -0.6910  0.0631  0.1897
15358TIP3    H167489   3.076   2.517  13.158  1.3645  1.3997 -0.6522
15358TIP3    H267490   3.064   2.411  13.051 -1.0753  0.6993  0.2424
15359TIP3   OH267491   1.041   4.330   6.664  0.2770  0.8129 -0.6396
15359TIP3    H167492   1.134   4.315   6.645  0.2716  1.8770 -1.6130
15359TIP3    H267493   1.033   4.313   6.758  1.0536 -1.1673 -0.8825
15360TIP3   OH267494   3.306   6.001   3.030 -0.2625 -0.1967 -0.1179
15360TIP3    H167495   3.248   6.070   3.062 -0.2153 -0.8870  1.6035
15360TIP3    H267496   3.388   6.014   3.078  0.2731 -0.5342 -0.9186
15361TIP3   OH267497   4.622   2.497   1.151 -0.4259  0.6158 -0.0429
15361TIP3    H167498   4.714   2.502   1.175  0.0721 -3.8780 -0.2111
15361TIP3    H267499   4.621   2.513   1.056  0.7715 -2.2486 -0.6319
15362TIP3   OH267500   0.517   2.179   2.930 -0.3127 -0.0713  0.7055
15362TIP3    H167501   0.481   2.094   2.955 -0.1420 -0.3520  0.0246
15362TIP3    H267502   0.443   2.228   2.896 -0.1371 -0.5539 -0.4477
15363TIP3   OH267503   1.991   2.796  16.954  0.2863 -0.3621 -0.0335
15363TIP3    H167504   1.945   2.830  16.878 -0.3575 -1.9869 -0.4108
15363TIP3    H267505   2.083   2.792  16.927  0.1872 -0.1203 -0.4139
15364TIP3   OH267506   1.833   2.359   3.963  1.3898  0.1073  0.0972
15364TIP3    H167507   1.898   2.419   3.926  0.8256 -0.0450 -1.2101
15364TIP3    H267508   1.815   2.297   3.892  0.6345 -0.5153  0.8166
15365TIP3   OH267509   0.028   2.105  14.551  0.3233 -0.3908  0.1048
15365TIP3    H167510   0.066   2.180  14.597  0.5773 -0.1619 -0.4691
15365TIP3    H267511   0.031   2.034  14.615  0.6136 -0.0633  0.4606
15366TIP3   OH267512   0.660   4.876  13.543 -0.0157  0.3370  0.4418
15366TIP3    H167513   0.717   4.952  13.526 -0.9996  0.9258 -0.3162
15366TIP3    H267514   0.572   4.913  13.546 -0.3130 -0.3660  2.8401
15367TIP3   OH267515   5.177   1.461  15.564 -0.3614 -0.0830 -0.1011
15367TIP3    H167516   5.176   1.535  15.625 -1.2619 -0.6798  0.6310
15367TIP3    H267517   5.262   1.467  15.520  0.7302 -0.1778  1.8872
15368TIP3   OH267518   6.036   4.629  13.593 -0.0117  0.0609  0.8509
15368TIP3    H167519   6.032   4.539  13.561 -0.4609  0.3089  0.1950
15368TIP3    H267520   6.085   4.623  13.675  1.8501 -0.4883 -0.2520
15369TIP3   OH267521   1.489   2.119   4.569 -0.4087 -0.2664 -0.4451
15369TIP3    H167522   1.495   2.135   4.475 -2.6730  2.3367 -0.3024
15369TIP3    H267523   1.406   2.072   4.580 -0.4414 -0.0531  0.2787
15370TIP3   OH267524   4.828   6.392  17.260  0.1151  0.6461  0.2488
15370TIP3    H167525   4.756   6.330  17.273 -0.8379  1.8607  1.1055
15370TIP3    H267526   4.817   6.421  17.170  0.4868 -0.3121 -0.1152
15371TIP3   OH267527   0.122   4.651  10.925  0.6528 -0.4488 -0.1801
15371TIP3    H167528   0.212   4.680  10.938 -0.0264  1.4209  0.8159
15371TIP3    H267529   0.098   4.685  10.839  0.0475  1.6123  0.7402
15372TIP3   OH267530   6.169   6.751   4.193 -0.1192 -0.0025  0.3104
15372TIP3    H167531   6.180   6.661   4.164  0.0482  0.7090 -2.0602
15372TIP3    H267532   6.075   6.766   4.190 -0.3104 -0.5480  2.3427
15373TIP3   OH267533   0.050   4.982   6.103 -0.3046 -0.4979  0.3536
15373TIP3    H167534  -0.005   5.043   6.054  2.2053  1.2606 -0.4642
15373TIP3    H267535   0.021   4.991   6.194 -0.7636  1.0650  0.0816
15374TIP3   OH267536   2.076   1.122  17.283 -0.3350 -0.5789 -0.3967
15374TIP3    H167537   2.075   1.122  17.187 -2.3952 -2.1577 -0.4425
15374TIP3    H267538   2.065   1.030  17.307  1.0995 -0.3343  1.3956
15375TIP3   OH267539   0.430   6.440  15.410  0.2622 -0.3102  0.4121
15375TIP3    H167540   0.469   6.390  15.338  0.4648 -1.4972  1.3143
15375TIP3    H267541   0.384   6.511  15.366  2.3082  0.3880 -0.7709
15376TIP3   OH267542   6.245   1.278   3.819 -0.0251 -0.1385 -0.4414
15376TIP3    H167543   6.308   1.223   3.866 -1.8138 -2.1297 -0.2511
15376TIP3    H267544   6.243   1.243   3.730 -0.5741  0.1539 -0.5516
15377TIP3   OH267545   2.099   5.543   4.912 -0.0199  0.1802  0.1828
15377TIP3    H167546   2.093   5.617   4.852  0.8114  1.1789  1.2976
15377TIP3    H267547   2.094   5.582   4.999  2.2193 -0.8463  0.8439
15378TIP3   OH267548   4.691   1.867   3.364 -0.3850  0.0351 -0.0700
15378TIP3    H167549   4.612   1.815   3.349  0.1729 -0.6372 -0.7840
15378TIP3    H267550   4.664   1.935   3.426 -0.9516 -1.5349  1.4806
15379TIP3   OH267551   1.077   4.008   4.057 -0.3753 -0.1023 -0.4786
15379TIP3    H167552   1.140   4.070   4.093  0.2179 -1.3964  0.8072
15379TIP3    H267553   1.130   3.937   4.021 -1.0570 -1.2075  0.6162
15380TIP3   OH267554   0.039   3.209   2.254  0.0847 -0.0925 -0.0894
15380TIP3    H167555   0.037   3.245   2.343 -1.3167 -0.2962 -0.0129
15380TIP3    H267556   0.132   3.190   2.238  0.2200 -1.6827  1.9966
15381TIP3   OH267557   2.285   4.355  12.699 -0.4309  0.5452 -0.6517
15381TIP3    H167558   2.320   4.444  12.695 -0.4430  0.5157 -1.7458
15381TIP3    H267559   2.190   4.368  12.706 -0.3028  0.6410  3.1951
15382TIP3   OH267560   3.561   5.815  16.524  0.6097  0.4621  0.0219
15382TIP3    H167561   3.509   5.754  16.472  2.0890 -0.6334 -0.2571
15382TIP3    H267562   3.506   5.835  16.600 -1.4622  1.8302 -1.7100
15383TIP3   OH267563   5.322   0.163   3.006  0.0465 -0.2550  0.1383
15383TIP3    H167564   5.248   0.217   2.979 -1.1087 -1.3491  1.0382
15383TIP3    H267565   5.395   0.225   3.014 -1.0782  1.0714  0.5512
15384TIP3   OH267566   5.007   0.902  12.074 -0.2412  0.0775 -0.1170
15384TIP3    H167567   4.976   0.988  12.102 -0.4009 -0.4786  1.5574
15384TIP3    H267568   5.103   0.910  12.075 -0.2548  0.2274  0.0789
15385TIP3   OH267569   6.560   3.339  11.550  0.2138 -0.1380  0.1732
15385TIP3    H167570   6.508   3.344  11.470 -0.3108 -1.7927  0.3741
15385TIP3    H267571   6.496   3.332  11.620  0.6822 -1.1612  0.5126
15386TIP3   OH267572   6.442   3.664  14.794 -0.8050  0.0295 -0.2336
15386TIP3    H167573   6.414   3.709  14.714  0.3337 -1.0108 -1.2656
15386TIP3    H267574   6.374   3.597  14.808 -0.5818 -0.3386 -0.8419
15387TIP3   OH267575   4.932   2.708   1.575 -0.1935 -0.0735 -0.3993
15387TIP3    H167576   4.956   2.619   1.601 -1.8214 -0.3602  0.2410
15387TIP3    H267577   4.917   2.702   1.481 -0.7030 -0.5852 -0.2906
15388TIP3   OH267578   2.397   1.670   1.288  0.3368 -0.0518  0.1491
15388TIP3    H167579   2.451   1.620   1.227  0.3679  1.6397 -1.2580
15388TIP3    H267580   2.347   1.730   1.234  0.3050  1.4749  1.7729
15389TIP3   OH267581   3.842   5.609  17.316 -0.1333 -0.4843  0.4432
15389TIP3    H167582   3.851   5.583  17.224  0.6733  2.5307 -0.4188
15389TIP3    H267583   3.756   5.649  17.323  0.8904  1.9554  0.1805
15390TIP3   OH267584   1.936   3.711  12.396 -0.4774  0.0015  0.1273
15390TIP3    H167585   1.845   3.688  12.417 -0.8451  1.7208  0.6058
15390TIP3    H267586   1.931   3.749  12.309 -0.3756  0.8987  0.5039
15391TIP3   OH267587   0.959   4.801  16.295 -0.0238 -0.0792  0.1656
15391TIP3    H167588   0.997   4.713  16.299  1.0737  0.2924 -1.2644
15391TIP3    H267589   1.013   4.854  16.353 -0.6993 -0.3473  1.0462
15392TIP3   OH267590   5.080   2.716   4.470 -0.1745 -0.2519 -0.0292
15392TIP3    H167591   5.124   2.644   4.514 -0.9513 -0.2654  0.7591
15392TIP3    H267592   5.136   2.737   4.395  0.2717 -1.3924 -0.0323
15393TIP3   OH267593   6.631   3.583  13.031 -0.3135  0.0324 -0.2240
15393TIP3    H167594   6.611   3.514  12.969 -2.5434  0.0019  0.4432
15393TIP3    H267595   6.602   3.664  12.988  0.5809  0.3531 -0.2587
15394TIP3   OH267596   2.498   3.634   4.571 -0.1213 -0.1965 -0.3593
15394TIP3    H167597   2.490   3.544   4.603  0.7070  0.0635  0.6047
15394TIP3    H267598   2.572   3.631   4.509  0.0819 -0.1263 -0.1211
15395TIP3   OH267599   0.485   0.949  16.321 -0.0221 -0.3492 -0.1158
15395TIP3    H167600   0.423   0.988  16.382  0.5586  0.0727  0.2148
15395TIP3    H267601   0.533   0.884  16.373 -2.3445 -3.0982 -1.1016
15396TIP3   OH267602   3.610   0.163   1.974 -0.3053 -0.3360  0.0683
15396TIP3    H167603   3.660   0.103   1.919 -0.7200 -0.4470 -0.1906
15396TIP3    H267604   3.663   0.172   2.054  0.5913  0.2952 -0.5753
15397TIP3   OH267605   5.645   5.602   2.881 -0.3267 -0.1678 -0.2354
15397TIP3    H167606   5.595   5.573   2.958  2.9682  0.0763  2.2463
15397TIP3    H267607   5.706   5.531   2.864  0.1339  0.5155 -1.5592
15398TIP3   OH267608   2.213   6.183  16.766  0.6023  0.5262 -0.5409
15398TIP3    H167609   2.308   6.197  16.770  0.5887  0.9763 -1.3931
15398TIP3    H267610   2.204   6.092  16.736  0.7297 -0.1704  1.4260
15399TIP3   OH267611   4.067   6.077  15.595  0.8186  0.1738 -0.0870
15399TIP3    H167612   4.150   6.034  15.575 -0.8158 -3.2395 -0.2858
15399TIP3    H267613   4.013   6.062  15.517 -1.1759 -1.2242  1.4396
15400TIP3   OH267614   4.309   5.139  16.321  0.2114  0.6050 -0.1514
15400TIP3    H167615   4.340   5.133  16.411  0.8595 -1.5244 -0.4690
15400TIP3    H267616   4.377   5.098  16.269 -1.4793 -0.9369 -1.2735
15401TIP3   OH267617   4.966   5.561   3.356  0.0415  0.7615 -0.3323
15401TIP3    H167618   5.013   5.530   3.433 -0.1844 -0.0557 -0.5100
15401TIP3    H267619   4.893   5.613   3.390 -0.1904  0.2105  0.0110
15402TIP3   OH267620   5.619   2.570  15.361  0.2347 -0.4448 -0.3525
15402TIP3    H167621   5.525   2.586  15.367  0.0204 -1.0248 -1.8365
15402TIP3    H267622   5.649   2.629  15.292  1.0541  0.0726  0.4307
15403TIP3   OH267623   6.518   2.052   5.383 -0.3223 -0.1307  0.3899
15403TIP3    H167624   6.524   1.991   5.309 -1.1170 -0.0128  0.2185
15403TIP3    H267625   6.451   2.115   5.356 -0.5891 -0.0667  1.1927
15404TIP3   OH267626   1.906   2.591  11.285 -0.2273 -0.0643  0.1646
15404TIP3    H167627   1.980   2.646  11.262 -0.7862 -0.1745 -2.1840
15404TIP3    H267628   1.940   2.529  11.349  1.1576  1.1170  0.6225
15405TIP3   OH267629   2.998   6.694  14.729 -0.1141  0.4205  0.0209
15405TIP3    H167630   3.043   6.619  14.691  1.3770  1.1375  0.3130
15405TIP3    H267631   2.966   6.744  14.654  1.7884  1.2125 -0.3004
15406TIP3   OH267632   1.078   5.857  10.778  0.0159 -0.6327 -0.7360
15406TIP3    H167633   1.088   5.916  10.703 -2.4007  0.4070 -0.3286
15406TIP3    H267634   0.984   5.860  10.798 -0.0266 -3.7548  0.0350
15407TIP3   OH267635   3.828   2.995   1.456  0.4125  0.0446 -0.1215
15407TIP3    H167636   3.833   2.901   1.436  0.6780  0.3495 -1.6077
15407TIP3    H267637   3.761   3.001   1.524  0.8228 -1.2791  0.4360
15408TIP3   OH267638   6.164   2.262   3.769  0.0620 -0.0060  0.3461
15408TIP3    H167639   6.208   2.213   3.699  0.3915  1.2479 -0.3527
15408TIP3    H267640   6.105   2.322   3.723  1.1789  1.7173  1.0668
15409TIP3   OH267641   3.183   1.522  11.762 -0.0508  0.2405 -0.4139
15409TIP3    H167642   3.187   1.467  11.841  2.5902  1.4600  0.3928
15409TIP3    H267643   3.199   1.462  11.690  1.6791 -0.2649  0.3538
15410TIP3   OH267644   4.002   1.132   5.381  0.8963 -0.2144  0.8731
15410TIP3    H167645   3.981   1.043   5.409  0.6989 -0.0207  1.3572
15410TIP3    H267646   4.080   1.123   5.327  0.4139 -0.7805  0.2418
15411TIP3   OH267647   2.466   1.067  16.397 -0.4074  0.3637 -0.2319
15411TIP3    H167648   2.525   1.142  16.390  1.3392 -0.8878  0.4923
15411TIP3    H267649   2.472   1.039  16.488  0.4417 -1.7780 -0.8871
15412TIP3   OH267650   2.821   1.157  12.455 -0.4488  0.3989 -0.1320
15412TIP3    H167651   2.758   1.225  12.435 -0.2566  0.5845 -0.1069
15412TIP3    H267652   2.906   1.201  12.455 -0.3575  0.2304  0.2340
15413TIP3   OH267653   0.004   2.175   4.976 -0.2885  0.2644  0.2375
15413TIP3    H167654  -0.067   2.147   4.918 -1.0898 -0.0850  1.3579
15413TIP3    H267655  -0.027   2.259   5.012 -0.4472 -0.2003  1.2247
15414TIP3   OH267656   5.114   4.586  16.814  0.4600  0.1131  0.0272
15414TIP3    H167657   5.086   4.553  16.899  0.5674  2.3497  0.9998
15414TIP3    H267658   5.046   4.648  16.788  0.8803  0.1359 -1.0967
15415TIP3   OH267659   1.696   0.680   2.540  0.1646  1.1705  0.3484
15415TIP3    H167660   1.732   0.730   2.614 -0.6116  0.0183  1.5338
15415TIP3    H267661   1.602   0.698   2.542  0.0982  0.9115 -0.2005
15416TIP3   OH267662   3.065   5.084   0.334 -0.8027 -0.4679  0.2950
15416TIP3    H167663   3.034   5.172   0.356 -1.6136 -0.9161  1.0045
15416TIP3    H267664   3.053   5.034   0.415 -1.0766 -1.4230 -0.3271
15417TIP3   OH267665   6.484   4.819  15.768  0.3056  0.4522 -0.1607
15417TIP3    H167666   6.398   4.790  15.801  0.4939 -1.3354 -1.0929
15417TIP3    H267667   6.533   4.842  15.846 -0.6657  0.4755  0.4667
15418TIP3   OH267668   1.108   2.728   3.216  0.0043 -0.5133  0.3125
15418TIP3    H167669   1.084   2.743   3.125  1.3638 -1.3155 -0.1992
15418TIP3    H267670   1.174   2.795   3.235  1.2453 -1.6090  0.0383
15419TIP3   OH267671   5.044   5.895   0.606  0.2470  0.2806  0.0069
15419TIP3    H167672   5.122   5.874   0.554 -0.7202 -0.0540 -1.3709
15419TIP3    H267673   5.075   5.958   0.671  2.4393 -2.3689  1.7731
15420TIP3   OH267674   3.404   2.232  12.995 -0.1198 -0.3455 -0.8876
15420TIP3    H167675   3.341   2.204  13.061  1.2829 -2.0227 -0.1591
15420TIP3    H267676   3.384   2.179  12.919 -1.0759  0.8475 -1.4988
15421TIP3   OH267677   2.460   4.262  12.423  0.6333  0.5239  0.2260
15421TIP3    H167678   2.479   4.275  12.516 -0.0168  1.3419  0.2538
15421TIP3    H267679   2.412   4.179  12.420  0.0191  0.8544  0.7136
15422TIP3   OH267680   4.616   1.406   2.956 -0.5136 -0.4019 -0.0831
15422TIP3    H167681   4.597   1.467   2.885 -0.9222 -0.8721 -0.3837
15422TIP3    H267682   4.647   1.462   3.028 -1.3080  0.2148 -0.1984
15423TIP3   OH267683   2.882   3.969  16.526 -0.2006 -0.2480 -0.3486
15423TIP3    H167684   2.958   3.955  16.583  0.6538 -2.3514 -1.8662
15423TIP3    H267685   2.919   3.998  16.443 -1.0063 -1.3337 -1.1198
15424TIP3   OH267686   5.594   5.065   5.363  0.1128 -0.0281 -0.3772
15424TIP3    H167687   5.659   5.125   5.400 -1.1691  1.3546 -0.2677
15424TIP3    H267688   5.530   5.122   5.321 -0.2648 -1.4267 -1.7685
15425TIP3   OH267689   2.509   6.328  16.788 -0.8526  0.3627  0.4234
15425TIP3    H167690   2.503   6.256  16.850 -2.0295  1.2188  1.3539
15425TIP3    H267691   2.579   6.384  16.822  3.1770 -2.2896 -2.5442
15426TIP3   OH267692   6.099   1.780   1.622 -1.0093 -0.0749  0.4242
15426TIP3    H167693   6.096   1.869   1.588  0.5022 -0.0499  0.2687
15426TIP3    H267694   6.100   1.725   1.543 -0.6445 -0.1554  0.4814
15427TIP3   OH267695   4.690   5.503  17.120 -1.0032  0.4432  0.5569
15427TIP3    H167696   4.682   5.486  17.213 -2.7788 -1.7257  0.0824
15427TIP3    H267697   4.671   5.597  17.111 -1.9972  0.4392  2.2371
15428TIP3   OH267698   4.973   6.125  13.052 -0.2559  0.3807 -0.3664
15428TIP3    H167699   5.055   6.077  13.039  0.0483  1.0196 -0.8944
15428TIP3    H267700   4.905   6.057  13.057  0.4134 -0.2246  1.1569
15429TIP3   OH267701   3.347   4.473  16.695 -0.0183  0.0448 -0.1403
15429TIP3    H167702   3.262   4.516  16.686 -0.1676 -0.3654 -0.7353
15429TIP3    H267703   3.411   4.542  16.677 -0.2744 -0.1715 -2.0753
15430TIP3   OH267704   1.509   0.366   3.987  0.1174 -0.2362 -0.2663
15430TIP3    H167705   1.559   0.419   3.926 -0.2123 -0.0433 -0.3733
15430TIP3    H267706   1.480   0.427   4.054 -0.0494 -0.3266 -0.2537
15431TIP3   OH267707   5.717   4.818   5.861  0.3128  0.2355 -0.1290
15431TIP3    H167708   5.803   4.795   5.827  0.1188 -1.0964  0.2256
15431TIP3    H267709   5.673   4.865   5.790  1.3343  0.9612 -0.2928
15432TIP3   OH267710   6.089   6.322  13.579 -0.3852 -0.3933 -0.3920
15432TIP3    H167711   6.051   6.410  13.581 -3.9702 -1.7706 -1.4388
15432TIP3    H267712   6.157   6.327  13.511 -1.0243  1.3768 -0.9453
15433TIP3   OH267713   2.991   2.468  13.638 -0.7186  0.4693 -0.4605
15433TIP3    H167714   2.909   2.515  13.644 -0.2045  1.2394  0.8238
15433TIP3    H267715   3.041   2.514  13.570 -0.9632  0.6054 -0.5456
15434TIP3   OH267716   4.382   4.696   0.165 -0.1561  0.3503 -0.0587
15434TIP3    H167717   4.435   4.730   0.238  1.5530  0.5225 -1.3304
15434TIP3    H267718   4.439   4.635   0.120 -2.0504 -1.7327  0.1751
15435TIP3   OH267719   4.973   1.847  17.109  0.0220  0.3113 -0.9559
15435TIP3    H167720   4.980   1.762  17.066  0.0637 -0.5725  0.7262
15435TIP3    H267721   4.883   1.850  17.143  0.9508 -0.6043  1.9209
15436TIP3   OH267722   4.119   1.680  12.224  0.1868  0.2084 -0.5426
15436TIP3    H167723   4.128   1.631  12.142  0.1140  1.1706 -1.1542
15436TIP3    H267724   4.151   1.621  12.291 -0.1572 -0.7629 -1.2172
15437TIP3   OH267725   4.491   3.792   0.847  0.1104  0.0508  0.3773
15437TIP3    H167726   4.495   3.710   0.897  0.1727  1.2286  2.4151
15437TIP3    H267727   4.413   3.837   0.881  1.5940  2.0381  1.3391
15438TIP3   OH267728   4.376   3.623  13.255  0.7070 -0.8131  0.0918
15438TIP3    H167729   4.437   3.585  13.192 -0.6899 -1.6274 -0.8094
15438TIP3    H267730   4.292   3.625  13.210 -0.0546 -0.1484  1.4640
15439TIP3   OH267731   0.317   4.340  12.516  0.2018 -0.7410  0.4834
15439TIP3    H167732   0.309   4.309  12.606 -2.0284  1.8513  1.3106
15439TIP3    H267733   0.362   4.424  12.524 -0.2179 -0.3814 -0.7892
15440TIP3   OH267734   1.505   4.990  15.571 -0.3063 -0.1852  0.0891
15440TIP3    H167735   1.530   5.018  15.483 -2.4609 -2.8884 -1.5583
15440TIP3    H267736   1.437   5.053  15.597 -0.5744 -0.0917 -0.7795
15441TIP3   OH267737   0.147   1.231  13.127 -0.5542 -0.0518 -0.0610
15441TIP3    H167738   0.063   1.188  13.145 -0.1529  0.1476  2.6250
15441TIP3    H267739   0.197   1.166  13.077 -1.7886 -0.7178 -0.4778
15442TIP3   OH267740   5.558   5.232   2.311 -0.4199  0.3226 -0.0800
15442TIP3    H167741   5.529   5.161   2.369  1.2607  0.6637  1.2722
15442TIP3    H267742   5.556   5.193   2.223  1.6036 -1.8780  0.7228
15443TIP3   OH267743   0.972   4.211   6.358  0.3318  0.0014  0.8323
15443TIP3    H167744   0.901   4.271   6.334  1.9277  1.3152 -0.8989
15443TIP3    H267745   0.976   4.216   6.453 -1.0308  0.9175  0.8693
15444TIP3   OH267746   3.183   4.897  15.899  0.3961 -0.1832 -0.4007
15444TIP3    H167747   3.168   4.803  15.908  0.1830 -0.2713 -1.5012
15444TIP3    H267748   3.162   4.916  15.807  0.4538  0.9345 -0.1999
15445TIP3   OH267749   1.752   3.432  11.297  0.0251  0.0821  0.5400
15445TIP3    H167750   1.781   3.379  11.223 -0.6456  1.4258 -0.7292
15445TIP3    H267751   1.731   3.518  11.260  0.1972  0.9867  2.3771
15446TIP3   OH267752   4.052   1.655   1.398  0.0341  0.4632  0.2514
15446TIP3    H167753   4.145   1.673   1.409  0.6279 -1.5023 -0.9205
15446TIP3    H267754   4.008   1.736   1.422  2.0865  1.6312  0.2525
15447TIP3   OH267755   3.587   0.328   3.991 -0.2386 -0.3824  0.6104
15447TIP3    H167756   3.517   0.353   3.930  0.3910 -1.4301 -0.5744
15447TIP3    H267757   3.658   0.389   3.972 -0.1843 -0.4553  0.5831
15448TIP3   OH267758   4.998   3.177   2.692 -0.5001  0.4517  0.3508
15448TIP3    H167759   5.074   3.161   2.747 -0.4054  0.5583  0.2525
15448TIP3    H267760   4.937   3.224   2.748 -0.5508  0.2462  0.4720
15449TIP3   OH267761   6.679   0.526   1.394 -0.2911  0.4379  0.5972
15449TIP3    H167762   6.725   0.548   1.475  0.7683  1.7727 -0.3434
15449TIP3    H267763   6.748   0.505   1.331 -1.1319 -1.6712  0.2880
15450TIP3   OH267764   3.885   2.111   1.221 -0.2872 -1.0063  0.2937
15450TIP3    H167765   3.873   2.167   1.144 -1.5809 -2.0663 -0.3227
15450TIP3    H267766   3.963   2.146   1.264  0.9004 -0.7858 -1.8689
15451TIP3   OH267767   0.183   0.972   3.554  0.3150  0.1265  0.3568
15451TIP3    H167768   0.268   0.946   3.518 -0.2104  0.7689 -1.4370
15451TIP3    H267769   0.184   1.068   3.551 -1.2331  0.1373 -1.6465
15452TIP3   OH267770   4.966   5.623  14.040 -0.4775  0.4269  0.0160
15452TIP3    H167771   4.928   5.651  14.124 -0.4620 -0.5136  0.3434
15452TIP3    H267772   4.891   5.618  13.980 -1.1182 -2.3475  0.8963
15453TIP3   OH267773   1.161   0.865   2.035 -0.4670  0.0941 -0.3963
15453TIP3    H167774   1.146   0.862   2.130  0.6044  1.7822 -0.1124
15453TIP3    H267775   1.251   0.833   2.025 -0.3191  0.6009 -0.7338
15454TIP3   OH267776   1.874   0.168  16.723  0.1188 -0.1551  0.2459
15454TIP3    H167777   1.831   0.083  16.713 -1.0265  0.5273 -0.8227
15454TIP3    H267778   1.905   0.190  16.636  0.4284  0.5097  0.5180
15455TIP3   OH267779   5.164   1.139  12.319  0.0233 -0.2285  0.2873
15455TIP3    H167780   5.249   1.143  12.361 -0.1873  0.6936  0.6484
15455TIP3    H267781   5.109   1.199  12.369  0.1293  2.0389 -2.0579
15456TIP3   OH267782   1.339   2.804   3.638  0.3658  0.4794  0.3294
15456TIP3    H167783   1.276   2.745   3.681  1.2276  1.1586  2.6996
15456TIP3    H267784   1.319   2.890   3.673  0.6895  1.2342 -1.2478
15457TIP3   OH267785   3.973   4.630  14.977  0.3337 -0.0362 -1.0703
15457TIP3    H167786   4.054   4.591  15.011 -0.4012 -1.2612 -0.7001
15457TIP3    H267787   3.966   4.713  15.025  2.0437  0.7507 -2.0631
15458TIP3   OH267788   4.574   3.654  11.262 -0.5606  0.2238 -0.0874
15458TIP3    H167789   4.573   3.558  11.260 -1.0062  0.1902  0.9519
15458TIP3    H267790   4.648   3.678  11.207 -0.2722 -0.7300 -0.1404
15459TIP3   OH267791   2.128   2.306  12.602  0.3249 -0.3997  0.0923
15459TIP3    H167792   2.041   2.294  12.640  0.0604  0.8570 -0.0912
15459TIP3    H267793   2.187   2.309  12.678  0.3249 -1.9035  0.1937
15460TIP3   OH267794   1.738   3.106   3.489 -0.1383 -0.4503  0.4973
15460TIP3    H167795   1.745   3.189   3.442 -1.3985  0.0826  1.2102
15460TIP3    H267796   1.769   3.125   3.578  3.1037 -1.6657 -0.2131
15461TIP3   OH267797   5.817   1.011  12.417  0.4203  0.0120 -0.4467
15461TIP3    H167798   5.772   1.080  12.367  0.5368  0.2974 -0.1569
15461TIP3    H267799   5.772   0.930  12.391 -1.3144  0.4486  1.0056
15462TIP3   OH267800   4.654   1.560   4.244  0.1109 -0.0071 -0.0590
15462TIP3    H167801   4.571   1.513   4.250 -0.5520  1.0987 -0.3529
15462TIP3    H267802   4.700   1.519   4.171 -1.1198  0.8012 -1.3177
15463TIP3   OH267803   2.257   2.974   5.534  0.2280  0.2096 -0.2858
15463TIP3    H167804   2.167   2.977   5.502  0.9575  2.3572 -2.3544
15463TIP3    H267805   2.275   2.880   5.544 -1.6612 -0.3416 -1.4810
15464TIP3   OH267806   1.107   6.737  13.391  0.2555  0.6961 -0.2988
15464TIP3    H167807   1.081   6.650  13.420 -0.8319  0.5816 -1.5353
15464TIP3    H267808   1.074   6.796  13.459  0.3072  0.2191  0.1468
15465TIP3   OH267809   0.023   6.533  13.105  0.2762 -0.6193  0.1938
15465TIP3    H167810   0.084   6.563  13.173  1.0671 -1.6676 -0.0306
15465TIP3    H267811  -0.020   6.456  13.143 -0.6972 -0.0776  0.2277
15466TIP3   OH267812   4.528   3.616   1.455 -0.1259  0.9037  0.7551
15466TIP3    H167813   4.442   3.588   1.486 -0.0729  0.7883  0.8004
15466TIP3    H267814   4.590   3.574   1.516 -0.0799  1.8493  1.3816
15467TIP3   OH267815   4.049   3.746   2.089 -0.0703  0.2327 -0.0532
15467TIP3    H167816   4.049   3.840   2.106 -0.7101  0.1034  0.7070
15467TIP3    H267817   4.027   3.738   1.996 -0.5523  0.8168  0.0089
15468TIP3   OH267818   2.382   4.875  12.735  0.3907  0.2117  0.4178
15468TIP3    H167819   2.299   4.895  12.779  0.3695  0.4194  0.2856
15468TIP3    H267820   2.440   4.946  12.761 -0.2310  1.5100 -1.5517
15469TIP3   OH267821   3.990   2.250  16.745 -0.0227 -0.7828  0.4262
15469TIP3    H167822   3.910   2.301  16.758  2.0682  2.4188  1.9824
15469TIP3    H267823   3.999   2.199  16.825 -0.5334 -1.2210  0.2073
15470TIP3   OH267824   1.976   3.576  11.896  0.0171 -0.1452  0.0639
15470TIP3    H167825   2.044   3.615  11.950  0.2922  0.3355 -0.6141
15470TIP3    H267826   1.991   3.612  11.809 -0.3703 -0.9635 -0.3520
15471TIP3   OH267827   4.558   4.099   3.117  0.0777  0.6127 -0.5163
15471TIP3    H167828   4.474   4.118   3.158 -0.3380 -1.5232 -0.2164
15471TIP3    H267829   4.611   4.177   3.132 -1.1729  1.2109  1.1011
15472TIP3   OH267830   6.304   5.762  12.853 -0.1965 -0.3610  0.5988
15472TIP3    H167831   6.244   5.797  12.918  0.1904  0.2358  0.6445
15472TIP3    H267832   6.255   5.762  12.771 -0.1156  0.5639  0.5425
15473TIP3   OH267833   5.416   3.201  13.808 -0.8202 -0.1441  0.1819
15473TIP3    H167834   5.467   3.131  13.849 -0.6935 -0.5239 -0.5971
15473TIP3    H267835   5.479   3.247  13.752 -1.4955 -1.2562 -1.5969
15474TIP3   OH267836   4.528   3.017  11.753  0.8446 -0.0690  0.3320
15474TIP3    H167837   4.520   2.927  11.784  0.6010  0.0342  0.5833
15474TIP3    H267838   4.609   3.049  11.791  0.4619  0.1103  1.0182
15475TIP3   OH267839   0.586   0.113  12.117  0.5373 -0.3998 -0.1566
15475TIP3    H167840   0.646   0.049  12.079  0.4597 -0.5415 -0.0414
15475TIP3    H267841   0.624   0.198  12.094  1.0647 -0.4848  0.3547
15476TIP3   OH267842   4.816   1.999   0.073  0.0720  0.5289 -0.5507
15476TIP3    H167843   4.810   2.092   0.098  3.3844  0.9076 -0.6303
15476TIP3    H267844   4.886   1.965   0.128 -0.8887 -1.9121 -0.7326
15477TIP3   OH267845   3.453   4.729  14.453 -0.7867  0.3005 -0.3983
15477TIP3    H167846   3.502   4.788  14.394  0.3856 -2.0480 -1.9250
15477TIP3    H267847   3.482   4.754  14.541  1.3476  0.6223 -1.1272
15478TIP3   OH267848   0.896   2.808  16.133  0.8407 -0.6386  0.3516
15478TIP3    H167849   0.974   2.764  16.098  1.5055 -0.3048  1.3840
15478TIP3    H267850   0.861   2.856  16.058  1.6250 -0.7898 -0.1298
15479TIP3   OH267851   5.903   0.396   4.937 -0.2162 -0.1413 -0.3572
15479TIP3    H167852   5.871   0.306   4.945 -1.9635  0.3799 -1.0875
15479TIP3    H267853   5.928   0.405   4.845 -1.0642  0.4092 -0.5517
15480TIP3   OH267854   0.441   6.328  17.017 -0.1984 -0.3179 -0.4445
15480TIP3    H167855   0.348   6.306  17.009  0.1714 -2.8698  1.0355
15480TIP3    H267856   0.469   6.282  17.096  2.0024  1.6676  0.0357
15481TIP3   OH267857   4.736   1.864   1.612  0.4452 -0.3629 -0.0670
15481TIP3    H167858   4.714   1.921   1.686  0.5553 -0.7481  0.2617
15481TIP3    H267859   4.692   1.782   1.630  0.4259 -0.4401 -0.4596
15482TIP3   OH267860   6.697   5.919   3.316 -0.2709  0.0204 -0.3917
15482TIP3    H167861   6.791   5.922   3.296  0.1171  1.1331  1.3732
15482TIP3    H267862   6.692   5.922   3.411 -2.1150  2.0681 -0.4568
15483TIP3   OH267863   5.139   3.400   5.389  0.0783 -0.3600  0.4784
15483TIP3    H167864   5.106   3.316   5.357 -2.6133  0.5804  0.5576
15483TIP3    H267865   5.190   3.435   5.316  1.0727 -1.9211  0.3718
15484TIP3   OH267866   1.156   3.630   5.844 -0.2795  0.1492 -0.4455
15484TIP3    H167867   1.193   3.581   5.917  0.7886  1.0529 -0.3549
15484TIP3    H267868   1.187   3.584   5.766 -0.8700 -0.4218 -0.3564
15485TIP3   OH267869   5.551   3.375   0.993  0.0495  0.1333 -0.2835
15485TIP3    H167870   5.562   3.470   0.996  0.0557  0.1232  0.2258
15485TIP3    H267871   5.462   3.360   1.026  0.8176 -0.1529  1.8245
15486TIP3   OH267872   1.272   0.196   2.948  0.1530  0.0363  0.0647
15486TIP3    H167873   1.202   0.250   2.985  1.6218  0.9087  1.7378
15486TIP3    H267874   1.311   0.152   3.024  0.4974 -1.6083 -0.9972
15487TIP3   OH267875   2.571   1.744  11.673  0.3314 -0.6113 -0.0119
15487TIP3    H167876   2.496   1.723  11.730  0.1343 -1.5885 -0.6028
15487TIP3    H267877   2.611   1.659  11.655  1.3435 -0.1349 -0.0412
15488TIP3   OH267878   3.023   3.588  17.091 -0.8669 -0.8590 -0.4768
15488TIP3    H167879   3.000   3.654  17.156  2.1426 -1.4905  1.4198
15488TIP3    H267880   3.001   3.505  17.132  0.8292 -1.2517 -0.2752
15489TIP3   OH267881   5.553   5.744  14.687  0.1424  0.5083  0.1779
15489TIP3    H167882   5.638   5.766  14.648  0.2581 -1.3625 -0.7613
15489TIP3    H267883   5.575   5.708  14.773  0.2784  0.2847  0.0498
15490TIP3   OH267884   0.174   1.802  14.143 -0.0485  0.2190 -0.2087
15490TIP3    H167885   0.149   1.894  14.139 -1.9715 -0.1125  2.0326
15490TIP3    H267886   0.267   1.803  14.163 -0.3089  1.7120  1.0760
15491TIP3   OH267887   5.498   1.265  14.110 -0.0184  0.1924  0.1200
15491TIP3    H167888   5.562   1.203  14.075 -0.8601 -0.6384 -0.0004
15491TIP3    H267889   5.447   1.214  14.172 -0.9947  0.6434 -0.2860
15492TIP3   OH267890   4.198   2.745   5.513  0.0851 -0.1596  0.0371
15492TIP3    H167891   4.202   2.837   5.538  0.0899 -0.4914  1.3496
15492TIP3    H267892   4.149   2.703   5.583  0.3370 -1.2094 -0.3882
15493TIP3   OH267893   1.160   1.513  13.428 -0.3223 -0.3539 -0.0137
15493TIP3    H167894   1.120   1.427  13.444 -0.0472 -0.2126  1.6529
15493TIP3    H267895   1.106   1.574  13.479 -0.1035  0.3678 -0.6287
15494TIP3   OH267896   3.067   5.889  14.034  0.0904  0.3629 -0.0084
15494TIP3    H167897   3.066   5.797  14.007 -1.3925  0.2587  0.2952
15494TIP3    H267898   3.024   5.888  14.120  0.6000  1.2701  0.2651
15495TIP3   OH267899   4.049   3.235  12.029  0.0410 -0.1614 -0.1101
15495TIP3    H167900   3.965   3.222  11.985  0.7364 -1.2634 -1.1797
15495TIP3    H267901   4.101   3.159  12.003  2.7720  2.3583 -2.8941
15496TIP3   OH267902   3.508   1.862  13.734  0.0014  0.4729 -0.1825
15496TIP3    H167903   3.527   1.876  13.827  1.1850  0.5158 -0.4102
15496TIP3    H267904   3.430   1.914  13.717 -0.1394  0.5810  0.7554
15497TIP3   OH267905   2.114   1.557   0.449  0.1592 -0.0885 -0.5306
15497TIP3    H167906   2.044   1.572   0.385  0.9789  1.6571 -1.0892
15497TIP3    H267907   2.180   1.506   0.402 -0.5890 -1.5112 -0.0823
15498TIP3   OH267908   1.963   3.593   1.944 -0.9299 -0.2983  0.0090
15498TIP3    H167909   1.909   3.516   1.926 -0.3971 -0.2941 -1.8338
15498TIP3    H267910   2.052   3.567   1.918 -0.6769  0.8092 -0.2888
15499TIP3   OH267911   3.094   4.625  14.278  0.1949 -0.0893  0.0041
15499TIP3    H167912   3.182   4.640  14.241 -0.2656 -1.5013 -1.8565
15499TIP3    H267913   3.095   4.532  14.302 -0.8136 -0.1314 -0.1095
15500TIP3   OH267914   1.240   0.504   0.488 -0.6026  0.0008 -0.0155
15500TIP3    H167915   1.193   0.546   0.560 -0.5802  0.1728 -0.1006
15500TIP3    H267916   1.271   0.421   0.524  0.9979  0.8852  0.7473
15501TIP3   OH267917   2.279   3.380   4.297  0.3848  0.2767  0.4157
15501TIP3    H167918   2.217   3.446   4.329  0.9853  0.0133  2.1938
15501TIP3    H267919   2.365   3.412   4.324  0.7877 -0.6369  0.2436
15502TIP3   OH267920   0.896   5.941   5.869 -0.1420  1.1505  0.1426
15502TIP3    H167921   0.878   5.973   5.781 -0.3125  0.4668 -0.0692
15502TIP3    H267922   0.811   5.940   5.912  0.0353  2.1833  0.5624
15503TIP3   OH267923   6.720   3.972   5.938 -0.3191 -0.6542 -0.1888
15503TIP3    H167924   6.667   3.970   6.017  0.8285  0.7906  0.6742
15503TIP3    H267925   6.807   3.944   5.967 -0.2833 -1.8226 -1.3244
15504TIP3   OH267926   1.676   0.527  15.358  0.3619  0.0115  0.3302
15504TIP3    H167927   1.723   0.481  15.289 -0.5246 -3.4119  1.7805
15504TIP3    H267928   1.590   0.547  15.320  0.3235 -0.7214  0.0045
15505TIP3   OH267929   2.055   5.733  14.154  0.4802  0.1358  0.0305
15505TIP3    H167930   2.007   5.809  14.121  0.1411  1.6459  3.5107
15505TIP3    H267931   1.991   5.661  14.152  0.4699  0.1471 -2.2713
15506TIP3   OH267932   3.735   5.475  16.625 -0.3578 -0.2622 -0.1839
15506TIP3    H167933   3.726   5.556  16.675  0.0072 -0.2200 -0.1794
15506TIP3    H267934   3.747   5.505  16.535 -0.2945 -0.3139 -0.1921
15507TIP3   OH267935   1.453   0.488  12.543 -0.0725  0.1188 -0.4215
15507TIP3    H167936   1.474   0.580  12.559 -2.1321  0.6216 -0.3519
15507TIP3    H267937   1.512   0.462  12.472  2.3782  0.6837  1.2892
15508TIP3   OH267938   3.851   3.958   2.939  0.3066 -0.3548 -0.7317
15508TIP3    H167939   3.912   4.026   2.910  0.6595 -0.9679 -1.4793
15508TIP3    H267940   3.807   3.996   3.015 -0.9754  1.5097 -2.3135
15509TIP3   OH267941   2.283   3.249  12.569  0.3173  0.2140  0.5177
15509TIP3    H167942   2.361   3.237  12.516 -1.1615 -0.2059 -1.6933
15509TIP3    H267943   2.287   3.180  12.635  1.7925  0.2015  0.4348
15510TIP3   OH267944   0.208   3.324  12.367  0.0583  0.1046 -0.1919
15510TIP3    H167945   0.240   3.395  12.423  1.1549 -0.7666  0.3314
15510TIP3    H267946   0.276   3.312  12.301 -0.1168 -0.4297 -0.2830
15511TIP3   OH267947   0.413   1.358  12.232  0.0638  0.1471 -0.2974
15511TIP3    H167948   0.405   1.277  12.182  2.2777 -0.4468  0.1785
15511TIP3    H267949   0.484   1.340  12.294 -0.5930  1.8658  1.0258
15512TIP3   OH267950   3.620   5.333   6.015  0.2114  0.3266 -0.3066
15512TIP3    H167951   3.536   5.373   6.040 -0.1338  0.4583 -1.6363
15512TIP3    H267952   3.661   5.311   6.099 -0.8034  0.9690  0.3860
15513TIP3   OH267953   4.384   2.760  14.831  0.0978  0.2188  0.4919
15513TIP3    H167954   4.468   2.732  14.794 -1.6992 -0.9314 -3.1341
15513TIP3    H267955   4.366   2.844  14.790  0.6561  1.9591  3.4920
15514TIP3   OH267956   6.428   0.226  11.661  0.1801  0.1478  0.5082
15514TIP3    H167957   6.363   0.275  11.612 -0.2917 -1.3739 -0.4676
15514TIP3    H267958   6.508   0.277  11.653 -0.3124  0.8085 -0.3492
15515TIP3   OH267959   4.412   2.075  13.333  0.3077 -0.2210  0.2102
15515TIP3    H167960   4.341   2.052  13.273  0.5530 -0.8889  0.1699
15515TIP3    H267961   4.374   2.065  13.421 -0.2141  1.2845  0.1717
15516TIP3   OH267962   2.378   4.786   4.643  0.7386 -0.1694 -0.3435
15516TIP3    H167963   2.375   4.699   4.682 -0.2595  0.4599  1.0770
15516TIP3    H267964   2.381   4.770   4.549 -2.2570 -1.7545 -0.2759
15517TIP3   OH267965   6.260   1.947   5.140  0.7943  0.3701 -0.4546
15517TIP3    H167966   6.355   1.955   5.135  1.2604 -1.9335  2.1673
15517TIP3    H267967   6.239   1.870   5.087  0.6302 -0.0010  0.1319
15518TIP3   OH267968   2.728   5.749   4.543 -0.0658  0.2256 -0.5712
15518TIP3    H167969   2.698   5.679   4.601  0.3909  0.2196 -0.3431
15518TIP3    H267970   2.727   5.709   4.456 -1.0785  0.3356 -0.6274
15519TIP3   OH267971   1.399   1.386  17.169 -0.2542 -0.0138  0.5150
15519TIP3    H167972   1.407   1.292  17.179  1.2048  0.0095 -0.1799
15519TIP3    H267973   1.351   1.415  17.246  0.4461 -1.1635  1.4018
15520TIP3   OH267974   3.420   6.104  12.983  0.4540  0.1213 -0.0017
15520TIP3    H167975   3.427   6.009  12.985  0.3638  0.1209  0.4088
15520TIP3    H267976   3.356   6.125  13.051 -2.2566  0.2456 -2.3650
15521TIP3   OH267977   3.277   0.552  14.895  0.6012  0.0725  0.3728
15521TIP3    H167978   3.349   0.494  14.869  0.1848  0.1556 -1.0257
15521TIP3    H267979   3.282   0.555  14.991  0.8373 -1.9856  0.4570
15522TIP3   OH267980   5.594   1.408  13.429 -0.2110 -0.3426 -0.1387
15522TIP3    H167981   5.618   1.499  13.409  0.6901 -0.2940  1.0342
15522TIP3    H267982   5.502   1.413  13.455  0.6752  0.9112  3.4040
15523TIP3   OH267983   4.574   5.068   4.339  0.2116  0.2536 -0.1448
15523TIP3    H167984   4.579   4.981   4.377 -2.2596  0.6853  1.4228
15523TIP3    H267985   4.531   5.121   4.406  1.0537  2.5467 -1.2989
15524TIP3   OH267986   0.682   2.086  12.857 -0.0005  0.5605 -1.0445
15524TIP3    H167987   0.635   2.071  12.775  0.2090  0.2772 -1.1158
15524TIP3    H267988   0.640   2.163  12.896 -0.6458  0.2021 -1.0189
15525TIP3   OH267989   6.758   0.810  11.879  0.3002  1.0506 -0.0806
15525TIP3    H167990   6.716   0.866  11.944 -0.3016  1.1674 -0.5618
15525TIP3    H267991   6.693   0.801  11.809  0.0036 -0.9829  0.3925
15526TIP3   OH267992   3.606   2.790   6.137  0.2647 -0.2315  0.6318
15526TIP3    H167993   3.547   2.725   6.098 -1.1512  1.0464  0.5513
15526TIP3    H267994   3.670   2.808   6.068 -0.6129  0.0236 -0.1452
15527TIP3   OH267995   6.109   1.885  15.382 -0.0297 -0.5457 -0.2605
15527TIP3    H167996   6.182   1.875  15.321 -0.3376 -1.0980 -0.5461
15527TIP3    H267997   6.107   1.979  15.401  1.6426 -0.7006  0.8686
15528TIP3   OH267998   4.615   0.593   3.034  0.8792  0.1206 -0.3257
15528TIP3    H167999   4.535   0.625   2.992  0.0464 -0.7045  0.5683
15528TIP3    H268000   4.612   0.630   3.123  1.0430 -0.6099 -0.0090
15529TIP3   OH268001   0.554   5.378   0.334  0.6341 -0.4076  0.8629
15529TIP3    H168002   0.571   5.453   0.391  2.1753  0.3929 -0.5624
15529TIP3    H268003   0.640   5.339   0.319 -0.0114 -1.8164  0.7010
15530TIP3   OH268004   0.645   3.203   3.245  0.0010 -0.6582 -0.2146
15530TIP3    H168005   0.680   3.280   3.290 -1.3615  0.1162 -0.4486
15530TIP3    H268006   0.557   3.192   3.279 -0.6831 -0.6835 -1.8920
15531TIP3   OH268007   4.293   2.127  11.743 -0.4733 -0.1149 -0.0932
15531TIP3    H168008   4.206   2.096  11.767  1.0240 -1.6049  4.2646
15531TIP3    H268009   4.283   2.223  11.738 -2.1693 -0.1591  1.3215
15532TIP3   OH268010   6.122   5.715  17.357 -0.0735 -0.1550  0.3353
15532TIP3    H168011   6.087   5.652  17.294  0.5719  0.0375 -0.2210
15532TIP3    H268012   6.050   5.730  17.418 -0.6551 -0.4553 -0.2684
15533TIP3   OH268013   0.819   0.300  14.085 -0.5049 -0.1866 -0.0711
15533TIP3    H168014   0.820   0.209  14.115 -1.4879  0.1484  1.0376
15533TIP3    H268015   0.873   0.299  14.006 -0.3033 -1.6848  0.0468
15534TIP3   OH268016   4.434   2.088   4.210  0.2410  0.3284 -0.2139
15534TIP3    H168017   4.361   2.124   4.260 -0.7323  1.2299 -2.1727
15534TIP3    H268018   4.411   2.105   4.118  3.3260  1.4642 -0.8982
15535TIP3   OH268019   4.426   4.731   4.697 -0.2835  0.1123  0.1340
15535TIP3    H168020   4.437   4.638   4.682  0.0339  0.3383 -1.1531
15535TIP3    H268021   4.379   4.763   4.619 -0.8161  0.9492  0.7662
15536TIP3   OH268022   1.364   1.177  15.461  0.0621  0.2920 -0.6641
15536TIP3    H168023   1.421   1.135  15.526 -0.1598  1.0309  0.0262
15536TIP3    H268024   1.276   1.170  15.499 -0.5175 -1.8661 -2.2395
15537TIP3   OH268025   6.672   2.415   5.411 -0.2273 -0.1378  0.0585
15537TIP3    H168026   6.610   2.484   5.388 -0.5135 -0.3463  0.1999
15537TIP3    H268027   6.627   2.362   5.477 -0.2548 -0.8268 -0.5041
15538TIP3   OH268028   0.582   2.882   4.493  0.0160 -0.7641  0.2076
15538TIP3    H168029   0.520   2.916   4.428  2.1318 -1.3577 -2.3256
15538TIP3    H268030   0.568   2.787   4.490  0.1973 -0.7997  0.5566
15539TIP3   OH268031   1.483   5.051   5.148  0.4782 -0.1143 -0.4877
15539TIP3    H168032   1.485   5.108   5.224 -0.0987  0.2183 -0.7106
15539TIP3    H268033   1.396   5.012   5.150  1.2316 -1.8294  0.2570
15540TIP3   OH268034   3.337   3.237   2.336 -0.1211 -0.3851 -0.4009
15540TIP3    H168035   3.334   3.160   2.393  1.0030 -0.6203 -0.6261
15540TIP3    H268036   3.296   3.208   2.254 -2.9858  0.3607  0.6936
15541TIP3   OH268037   4.468   3.972  13.868 -0.0566 -1.0714  0.1545
15541TIP3    H168038   4.551   3.933  13.898  0.3154 -1.2667 -1.0700
15541TIP3    H268039   4.473   3.967  13.773  0.4077  2.7748 -0.1792
15542TIP3   OH268040   6.422   1.857   2.632  0.2466  0.3532  0.1840
15542TIP3    H168041   6.375   1.854   2.549  0.5975 -1.1269  0.0130
15542TIP3    H268042   6.436   1.950   2.649 -0.7434  0.7073 -0.8864
15543TIP3   OH268043   4.879   2.617  16.150 -0.4558  0.2869  0.8249
15543TIP3    H168044   4.799   2.568  16.172  0.7170 -2.2105 -0.0747
15543TIP3    H268045   4.887   2.683  16.219 -1.3112 -1.8343  3.1082
15544TIP3   OH268046   0.966   0.928  15.945 -0.0304  0.0373 -0.5433
15544TIP3    H168047   0.989   0.952  15.855  0.7316 -0.2126 -0.4245
15544TIP3    H268048   0.964   1.012  15.992 -2.3215  0.4059 -1.1641
15545TIP3   OH268049   5.406   5.841   1.992  0.4967 -0.4571 -0.2708
15545TIP3    H168050   5.449   5.859   1.908  2.2708 -0.2232  0.6259
15545TIP3    H268051   5.469   5.787   2.040 -0.7503 -1.1213  0.6733
15546TIP3   OH268052   2.438   2.922  16.930 -0.7060  0.2687 -0.0390
15546TIP3    H168053   2.442   2.994  16.868 -1.6169  0.3438 -0.0166
15546TIP3    H268054   2.386   2.955  17.003 -0.6054 -0.2068  0.2528
15547TIP3   OH268055   3.445   3.181  12.404 -0.2339  0.0454  0.4635
15547TIP3    H168056   3.495   3.253  12.366 -0.8375  0.7119  0.9062
15547TIP3    H268057   3.443   3.114  12.335  0.3049  0.4602  0.0336
15548TIP3   OH268058   0.298   5.949   2.037  0.4498  0.3327 -0.3652
15548TIP3    H168059   0.373   5.893   2.057  0.1049 -0.2030 -0.5501
15548TIP3    H268060   0.337   6.030   2.004  1.0060  0.8754  1.5010
15549TIP3   OH268061   2.352   5.915  14.802 -0.2596  0.4315 -0.1730
15549TIP3    H168062   2.324   6.006  14.788 -0.2465  0.2399 -1.6453
15549TIP3    H268063   2.343   5.874  14.716  1.1629 -0.5844  0.1337
15550TIP3   OH268064   4.014   1.810   0.967  0.6188 -0.3012  0.0459
15550TIP3    H168065   3.964   1.804   1.048 -1.4184  0.1910 -1.0865
15550TIP3    H268066   4.080   1.877   0.983 -2.0100  2.4469  0.2722
15551TIP3   OH268067   1.006   0.531   2.217 -0.4151 -0.3698  0.4102
15551TIP3    H168068   1.095   0.555   2.242 -0.5720 -0.0521  0.6715
15551TIP3    H268069   0.955   0.541   2.297 -1.0876  1.4599 -0.1863
15552TIP3   OH268070   4.027   1.506   1.928  0.0417  0.0265  0.3236
15552TIP3    H168071   4.027   1.589   1.975 -2.6246 -0.8824  2.1966
15552TIP3    H268072   4.068   1.525   1.844  1.2194  2.7497  1.4169
15553TIP3   OH268073   4.929   0.853   3.981 -0.3628 -0.3869 -0.3970
15553TIP3    H168074   4.929   0.847   4.077  1.2836 -3.6233 -0.4465
15553TIP3    H268075   4.976   0.934   3.962 -1.4051  0.7292  1.4934
15554TIP3   OH268076   1.668   0.411  13.022  0.3299 -0.1217  0.6545
15554TIP3    H168077   1.748   0.359  13.030  1.1127  0.6735 -1.3237
15554TIP3    H268078   1.699   0.499  12.997 -1.0989  0.5093  1.0248
15555TIP3   OH268079   3.779   3.051   2.668 -0.0139 -0.2105  0.0369
15555TIP3    H168080   3.842   3.123   2.671  1.9452 -1.8465  0.0019
15555TIP3    H268081   3.814   2.986   2.728 -2.1799 -0.8370  0.7045
15556TIP3   OH268082   0.623   6.650  12.324  0.1891 -0.0581  0.5802
15556TIP3    H168083   0.686   6.722  12.330 -1.5656  1.5281  0.9499
15556TIP3    H268084   0.554   6.673  12.387 -1.1311 -1.3383 -0.3342
15557TIP3   OH268085   4.814   1.534  13.518 -0.2893  0.1959 -0.1936
15557TIP3    H168086   4.903   1.502  13.532 -0.0828  0.7541 -0.2024
15557TIP3    H268087   4.819   1.585  13.438 -0.8241 -0.5157 -0.6973
15558TIP3   OH268088   0.339   5.237   3.723  0.2364 -0.4805 -0.3916
15558TIP3    H168089   0.433   5.234   3.740  0.3938 -1.5643 -1.2973
15558TIP3    H268090   0.300   5.202   3.803  0.7747 -2.4134 -0.9016
15559TIP3   OH268091   6.620   1.700   3.071 -0.2989  0.2532  0.3939
15559TIP3    H168092   6.673   1.660   3.140 -0.2575  0.5041  0.5057
15559TIP3    H268093   6.625   1.638   2.998 -1.9270 -1.0049  1.2625
15560TIP3   OH268094   0.025   4.400  15.120 -0.3365  0.6123  0.1104
15560TIP3    H168095   0.028   4.315  15.077  1.3116  0.2983  0.7485
15560TIP3    H268096   0.008   4.463  15.050 -0.9268 -0.1747 -0.4677
15561TIP3   OH268097   6.376   0.727   6.030 -0.1302  0.1338  0.3376
15561TIP3    H168098   6.357   0.668   5.957 -1.0064 -1.1111  1.5257
15561TIP3    H268099   6.295   0.776   6.044  0.0472  0.3954  0.4652
15562TIP3   OH268100   0.294   5.904  15.758 -0.1679  0.3490  0.4397
15562TIP3    H168101   0.355   5.880  15.828  1.9594  2.7988 -0.4088
15562TIP3    H268102   0.265   5.992  15.781 -0.9453  0.4398 -0.8087
15563TIP3   OH268103   2.348   6.075   0.755  0.1196  0.3516  0.0736
15563TIP3    H168104   2.371   6.102   0.666  0.9253  1.1153  0.5003
15563TIP3    H268105   2.262   6.113   0.770  0.3544  0.9540 -0.0788
15564TIP3   OH268106   5.579   4.210  15.326  0.3975 -0.5396 -0.1734
15564TIP3    H168107   5.520   4.203  15.401  2.0358  1.2270  1.4077
15564TIP3    H268108   5.632   4.130  15.329  0.6832 -0.3271  0.8140
15565TIP3   OH268109   6.650   6.353  15.595 -0.1455 -0.2879  0.4234
15565TIP3    H168110   6.614   6.406  15.523 -1.3253 -0.2853  0.9982
15565TIP3    H268111   6.574   6.307  15.631  0.1995  0.6083  2.4302
15566TIP3   OH268112   5.042   5.769   4.036  0.3153  0.9037  0.5154
15566TIP3    H168113   4.950   5.750   4.052  0.2348 -0.1485 -1.0233
15566TIP3    H268114   5.053   5.760   3.942  2.0053  0.9933  0.6649
15567TIP3   OH268115   1.851   4.630   3.496  0.3759 -0.2054 -0.1878
15567TIP3    H168116   1.781   4.694   3.485 -0.0093  0.3209  3.8753
15567TIP3    H268117   1.811   4.545   3.477 -0.7234  0.2950 -0.1424
15568TIP3   OH268118   0.854   0.442   4.164 -0.4912  0.3495  0.3800
15568TIP3    H168119   0.785   0.445   4.230  0.4634 -1.8249  1.5987
15568TIP3    H268120   0.897   0.358   4.179  1.3141  0.8675 -1.4707
15569TIP3   OH268121   1.375   4.616  17.258 -0.1123  0.0016  0.1276
15569TIP3    H168122   1.465   4.626  17.225  0.0237 -0.9316  0.1615
15569TIP3    H268123   1.356   4.698  17.302  0.5693  0.3825 -0.2682
15570TIP3   OH268124   4.499   4.665   1.902 -0.3086  0.4782  0.4944
15570TIP3    H168125   4.437   4.629   1.839 -0.8558 -1.5776  2.0757
15570TIP3    H268126   4.448   4.678   1.982  1.2243 -1.5674  1.9458
15571TIP3   OH268127   5.232   3.442   4.481 -0.1064  0.0186 -0.0101
15571TIP3    H168128   5.260   3.353   4.457 -1.6910 -0.6128  0.3721
15571TIP3    H268129   5.236   3.442   4.577 -1.2304 -0.0428  0.0463
15572TIP3   OH268130   6.014   1.032  13.589  0.1541  0.0445  0.2608
15572TIP3    H168131   5.933   1.002  13.631  0.5964 -0.3226  0.8594
15572TIP3    H268132   6.083   1.010  13.652  0.8942 -1.0093 -0.8795
15573TIP3   OH268133   4.823   4.975  15.955  0.1980  0.1066  0.3474
15573TIP3    H168134   4.896   4.981  15.893  0.8552 -1.2895  0.9526
15573TIP3    H268135   4.865   4.974  16.041 -0.6143  0.4798  0.7546
15574TIP3   OH268136   6.636   4.115  16.577 -0.1687  0.0713 -0.0154
15574TIP3    H168137   6.703   4.147  16.517  0.2491 -1.0484 -0.1705
15574TIP3    H268138   6.685   4.083  16.653 -0.5305 -0.5688 -0.0417
15575TIP3   OH268139   1.691   4.300  15.860  0.4878 -0.1185  0.4350
15575TIP3    H168140   1.615   4.249  15.887  0.0390 -0.7757 -1.8203
15575TIP3    H268141   1.756   4.234  15.836  1.0402  0.4227  0.4194
15576TIP3   OH268142   2.969   3.962  12.084 -0.6320 -0.0131 -0.5793
15576TIP3    H168143   2.978   4.012  12.002 -2.5728 -0.8456 -1.3455
15576TIP3    H268144   3.057   3.927  12.100  0.3186  1.9796 -1.0720
15577TIP3   OH268145   5.392   6.632  11.707 -0.4252 -0.4009  0.2056
15577TIP3    H168146   5.311   6.584  11.690 -0.4668 -0.8205  1.4757
15577TIP3    H268147   5.368   6.724  11.696 -0.7419 -0.5782 -0.6767
15578TIP3   OH268148   1.381   0.420  11.008  0.0867 -0.3697  0.2129
15578TIP3    H168149   1.368   0.330  10.979 -2.3997  0.6770 -2.3505
15578TIP3    H268150   1.296   0.462  10.995  1.3183  2.5023  0.7252
15579TIP3   OH268151   0.970   4.161   4.862  0.6353 -0.3907  0.5417
15579TIP3    H168152   0.979   4.086   4.921  3.3737  1.3537  2.5272
15579TIP3    H268153   1.034   4.224   4.893  0.5868  1.6023 -2.9494
15580TIP3   OH268154   6.651   2.463   5.924  0.1112  0.0112 -0.5858
15580TIP3    H168155   6.657   2.369   5.909 -1.8983  0.1273 -2.7891
15580TIP3    H268156   6.571   2.474   5.975  0.9692  0.4794  0.7012
15581TIP3   OH268157   4.677   1.139  11.663  0.1836  0.1312  0.7385
15581TIP3    H168158   4.763   1.102  11.647  0.6831  1.5577 -0.1266
15581TIP3    H268159   4.621   1.064  11.684  1.9115 -0.6731  2.7009
15582TIP3   OH268160   2.380   6.079   6.367 -0.2670 -0.2047 -0.1572
15582TIP3    H168161   2.311   6.034   6.416 -1.1667  0.3542 -0.8687
15582TIP3    H268162   2.356   6.171   6.371  0.1371 -0.0587 -0.8582
15583TIP3   OH268163   1.364   3.032  14.351 -0.2545  0.1148  0.4789
15583TIP3    H168164   1.326   3.115  14.323  0.6297  0.7107  0.9725
15583TIP3    H268165   1.404   3.052  14.436 -0.2499 -0.8853  0.7248
15584TIP3   OH268166   0.405   0.178  13.251 -0.0003  0.2063 -0.3170
15584TIP3    H168167   0.419   0.271  13.271 -1.0623  0.2999  0.0495
15584TIP3    H268168   0.314   0.161  13.276  0.5623 -1.2664  0.9110
15585TIP3   OH268169   2.259   4.518   1.492 -0.5256 -0.0486 -0.5337
15585TIP3    H168170   2.180   4.473   1.462  0.2129 -1.7472 -0.0231
15585TIP3    H268171   2.297   4.459   1.557  0.8340  1.0339 -0.3020
15586TIP3   OH268172   0.865   3.720  13.568  0.7549  0.6699 -0.1851
15586TIP3    H168173   0.927   3.761  13.628  2.5575 -0.3542 -1.2498
15586TIP3    H268174   0.830   3.645  13.617  2.8443 -0.6643 -0.5895
15587TIP3   OH268175   4.973   0.069  13.157  0.2689  0.2025 -0.2905
15587TIP3    H168176   4.938   0.006  13.219  0.3898  0.6280  0.2156
15587TIP3    H268177   4.896   0.106  13.114  0.2472 -1.9368 -2.2838
15588TIP3   OH268178   1.137   4.257  13.033 -0.5102  0.2398 -0.5203
15588TIP3    H168179   1.188   4.335  13.058 -1.9060  2.0985 -3.0343
15588TIP3    H268180   1.102   4.224  13.116 -1.8772  3.8153  0.5159
15589TIP3   OH268181   2.787   4.117  13.244  0.7391  0.1013 -0.2217
15589TIP3    H168182   2.726   4.139  13.173  1.4469  2.0547 -0.2851
15589TIP3    H268183   2.733   4.114  13.323  0.4989  1.8456 -0.2735
15590TIP3   OH268184   3.084   2.648  12.492  1.1917  0.5122  0.3291
15590TIP3    H168185   3.038   2.725  12.459  0.1617  0.7141  2.0962
15590TIP3    H268186   3.041   2.629  12.576  0.6829 -2.6676 -0.5440
15591TIP3   OH268187   5.520   6.006  13.986 -0.1275  0.8829 -0.4323
15591TIP3    H168188   5.546   5.915  14.000 -0.7283  1.0209  1.9252
15591TIP3    H268189   5.595   6.057  14.015  0.0348  1.1627 -1.3229
15592TIP3   OH268190   1.651   1.146  12.781 -0.2763  0.6035  0.2739
15592TIP3    H168191   1.659   1.226  12.728 -2.1859  1.5293  1.2675
15592TIP3    H268192   1.741   1.120  12.799  0.4069  1.6420 -1.3625
15593TIP3   OH268193   6.291   1.398  15.976 -0.6490  0.0383  0.0757
15593TIP3    H168194   6.347   1.338  15.926 -0.5986 -0.1309  0.3321
15593TIP3    H268195   6.230   1.433  15.911 -1.8098 -1.6056  0.2165
15594TIP3   OH268196   5.776   5.250   0.258 -0.6075 -0.0710 -0.0955
15594TIP3    H168197   5.691   5.264   0.215 -0.0733  1.9297 -0.6148
15594TIP3    H268198   5.756   5.252   0.351 -1.1296  0.3746 -0.2107
15595TIP3   OH268199   5.904   0.127   0.897  0.4567 -0.3663  0.2118
15595TIP3    H168200   5.978   0.075   0.867 -0.8269 -1.1865 -1.7346
15595TIP3    H268201   5.835   0.110   0.833 -0.6787  2.1765  0.6262
15596TIP3   OH268202   3.239   1.702  17.046 -0.0036  0.7720 -0.3142
15596TIP3    H168203   3.196   1.664  16.970  0.1388 -0.0063 -0.0140
15596TIP3    H268204   3.169   1.744  17.096 -0.4471 -0.5897  0.2343
15597TIP3   OH268205   3.752   5.337  14.226  0.7146 -0.1142  0.2155
15597TIP3    H168206   3.682   5.274  14.244 -0.1364  0.3135 -1.4478
15597TIP3    H268207   3.832   5.291  14.253 -0.0999 -0.9137  1.4015
15598TIP3   OH268208   2.961   3.289   5.040  0.7903 -0.3392 -0.1650
15598TIP3    H168209   2.896   3.228   5.006  1.3556 -1.5772  0.8750
15598TIP3    H268210   2.941   3.293   5.134 -0.2789  2.4053 -0.4206
15599TIP3   OH268211   4.620   0.475  16.257  0.0233  0.0354 -0.6902
15599TIP3    H168212   4.562   0.551  16.248 -0.2867 -0.0929  0.1399
15599TIP3    H268213   4.562   0.403  16.282  0.3092 -0.4974 -1.4930
15600TIP3   OH268214   0.361   6.398  17.351  0.3016 -0.1087 -0.3417
15600TIP3    H168215   0.403   6.426  17.432 -0.8751  0.7011  0.0166
15600TIP3    H268216   0.406   6.317  17.327  0.0673 -0.8791  1.6262
15601TIP3   OH268217   2.133   5.621  11.308  0.1886  0.2907 -0.1595
15601TIP3    H168218   2.174   5.553  11.361  0.4602 -1.2118 -2.1781
15601TIP3    H268219   2.073   5.574  11.250 -4.1490  2.2793  2.1741
15602TIP3   OH268220   0.358   5.406   5.854 -0.1516  0.1835 -0.2678
15602TIP3    H168221   0.377   5.452   5.772  0.3799 -0.4625 -0.5181
15602TIP3    H268222   0.263   5.397   5.856 -0.1712  0.2510 -0.7880
15603TIP3   OH268223   2.929   5.006  10.944  0.2073  0.0888  0.4521
15603TIP3    H168224   2.897   5.093  10.968 -0.6278 -0.2814  0.7110
15603TIP3    H268225   2.850   4.952  10.939  0.5857 -0.3788 -0.8834
15604TIP3   OH268226   3.309   0.447  16.056  0.3565  0.2103  0.0258
15604TIP3    H168227   3.385   0.482  16.101 -1.7129  2.9256  1.6834
15604TIP3    H268228   3.295   0.506  15.982 -0.1581 -0.2601 -0.2669
15605TIP3   OH268229   4.658   0.320   3.948  0.1071  0.8005 -0.3326
15605TIP3    H168230   4.600   0.290   4.017 -1.2203  1.1610 -1.2510
15605TIP3    H268231   4.685   0.407   3.975  2.3648 -0.3296  1.3626
15606TIP3   OH268232   0.751   2.706  15.433  0.1878 -0.1007 -0.2436
15606TIP3    H168233   0.766   2.631  15.376  0.9434 -0.1751  0.0335
15606TIP3    H268234   0.697   2.766  15.381 -1.4831 -1.3561 -0.0215
15607TIP3   OH268235   3.112   2.440   0.320  0.2290  0.1695  0.3761
15607TIP3    H168236   3.027   2.479   0.341 -1.3471 -3.2015  1.0608
15607TIP3    H268237   3.129   2.466   0.230 -0.7845  2.0863  0.6753
15608TIP3   OH268238   0.305   5.001  15.561  0.2030  0.2181  0.7532
15608TIP3    H168239   0.257   4.983  15.480  0.5587  3.0198 -0.1630
15608TIP3    H268240   0.292   5.094  15.577  0.3745 -0.1723  3.8348
15609TIP3   OH268241   4.634   6.755   1.194 -0.4700  0.5593  0.0451
15609TIP3    H168242   4.563   6.806   1.155  0.9301  1.5149 -1.3764
15609TIP3    H268243   4.642   6.678   1.138 -0.3941  0.4523  0.2028
15610TIP3   OH268244   5.410   4.583   6.577  0.1561  0.1440  0.2186
15610TIP3    H168245   5.326   4.575   6.532  0.0094  0.5512  0.4157
15610TIP3    H268246   5.430   4.494   6.605 -0.4099  0.1085  0.5297
15611TIP3   OH268247   5.966   3.090  12.753 -0.2946  0.1683 -0.3320
15611TIP3    H168248   5.945   3.183  12.759  1.4011  0.5374  0.5213
15611TIP3    H268249   5.929   3.062  12.669 -0.5726  1.6743 -0.7349
15612TIP3   OH268250   5.339   0.172  17.246 -0.5852  0.0070  0.2636
15612TIP3    H168251   5.388   0.147  17.168 -1.1129 -0.8588  0.1907
15612TIP3    H268252   5.384   0.130  17.318  0.5338  1.6729  0.5895
15613TIP3   OH268253   0.275   4.710   2.730 -0.7288  0.2788  0.0625
15613TIP3    H168254   0.238   4.785   2.776  0.3141  0.3905  0.7778
15613TIP3    H268255   0.304   4.651   2.801  2.2008  1.0827 -0.3317
15614TIP3   OH268256   1.281   1.030   1.590 -0.1182 -0.1899  0.0211
15614TIP3    H168257   1.353   0.974   1.562 -0.9712 -1.1234 -0.3991
15614TIP3    H268258   1.202   0.978   1.572 -0.8014 -0.2717  2.8430
15615TIP3   OH268259   4.097   5.905   3.128 -0.5638  0.1121  0.4711
15615TIP3    H168260   4.027   5.850   3.093 -1.6445  1.1749  0.8725
15615TIP3    H268261   4.056   5.952   3.201  0.3232  1.3529  0.2085
15616TIP3   OH268262   6.086   1.497  13.281  0.2236  0.3349  0.0614
15616TIP3    H168263   6.138   1.423  13.313  1.6768  1.5559  0.6145
15616TIP3    H268264   6.096   1.564  13.349 -1.0738  1.0579 -0.4294
15617TIP3   OH268265   3.668   2.888  10.843 -0.4862  0.2272  0.2501
15617TIP3    H168266   3.613   2.811  10.837 -2.2517  1.4139  0.4033
15617TIP3    H268267   3.757   2.856  10.826 -0.9717 -2.0271  1.5349
15618TIP3   OH268268   2.446   2.339   5.565  0.0958  0.2725  0.2578
15618TIP3    H168269   2.428   2.343   5.471  1.0703 -1.2264 -0.0178
15618TIP3    H268270   2.366   2.374   5.605 -1.1324 -0.8707 -1.0760
15619TIP3   OH268271   6.383   6.594   5.411 -0.4641 -0.0905  0.3105
15619TIP3    H168272   6.404   6.622   5.500 -1.0878  1.2840  0.0554
15619TIP3    H268273   6.344   6.671   5.370 -0.1654 -0.6869 -1.1689
15620TIP3   OH268274   1.260   0.725  13.727  0.1307 -0.6687 -0.6490
15620TIP3    H168275   1.218   0.663  13.668 -0.9154 -0.2451 -0.3605
15620TIP3    H268276   1.293   0.671  13.800 -1.6785 -0.8005  0.1178
15621TIP3   OH268277   0.865   2.941   1.403  0.2118 -0.0418  0.0635
15621TIP3    H168278   0.880   3.001   1.331 -0.8969 -0.5414 -0.6213
15621TIP3    H268279   0.799   2.984   1.457  0.3859 -0.0595  0.2907
15622TIP3   OH268280   4.893   2.979  13.383  0.8021  0.0605  0.0692
15622TIP3    H168281   4.883   2.903  13.326 -0.3612 -0.2663  0.6738
15622TIP3    H268282   4.977   2.965  13.427  1.4821  0.0744 -1.1602
15623TIP3   OH268283   1.890   2.210   2.763  0.0069  0.1512  0.2326
15623TIP3    H168284   1.904   2.127   2.809  1.5435  0.4660  0.4036
15623TIP3    H268285   1.850   2.185   2.680  2.5470 -1.0701 -0.7353
15624TIP3   OH268286   0.927   2.869   3.848 -0.5174 -0.6575 -0.4217
15624TIP3    H168287   0.951   2.842   3.759 -0.1963 -1.1544 -0.1839
15624TIP3    H268288   0.868   2.801   3.879 -0.4372 -0.6075 -0.1630
15625TIP3   OH268289   5.885   2.037  11.714  0.0992  0.0439 -0.1336
15625TIP3    H168290   5.851   2.037  11.624 -0.9119 -0.1862  0.2365
15625TIP3    H268291   5.977   2.012  11.704  0.0119  0.0522 -1.1082
15626TIP3   OH268292   6.026   6.031   5.679  0.0921  0.1402  0.1421
15626TIP3    H168293   5.991   6.070   5.759 -0.5876  0.9790 -0.5495
15626TIP3    H268294   5.963   6.055   5.611  0.3988 -0.9845 -0.5651
15627TIP3   OH268295   5.423   2.133  16.104 -0.5510 -0.2539  0.0327
15627TIP3    H168296   5.369   2.054  16.103  0.7285 -1.3071  3.3368
15627TIP3    H268297   5.361   2.204  16.125 -1.2198 -0.8755  0.1843
15628TIP3   OH268298   2.510   0.057  11.900  0.0985  0.3152  0.3199
15628TIP3    H168299   2.559  -0.007  11.848 -0.2649 -0.7121  1.1970
15628TIP3    H268300   2.530   0.142  11.860  0.3986 -0.3715 -1.0239
15629TIP3   OH268301   3.712   4.068  16.234  0.3460 -0.2611 -0.4251
15629TIP3    H168302   3.687   4.000  16.171 -0.7217  0.5671 -0.9381
15629TIP3    H268303   3.744   4.020  16.310 -1.9816 -1.4416 -0.0924
15630TIP3   OH268304   4.342   4.785  12.414 -1.2490 -0.3978  0.1542
15630TIP3    H168305   4.303   4.764  12.329 -2.2647  1.5938  0.0735
15630TIP3    H268306   4.276   4.759  12.478 -2.0207  1.3248  0.1096
15631TIP3   OH268307   4.483   5.192   4.591  0.7835 -0.5219  0.5457
15631TIP3    H168308   4.408   5.187   4.651  1.9407 -1.7971  1.9599
15631TIP3    H268309   4.551   5.140   4.634  3.4932  2.8623  0.7467
15632TIP3   OH268310   3.253   3.400   3.516 -0.3866 -0.5591 -0.2609
15632TIP3    H168311   3.309   3.361   3.450  0.1794 -0.5703  0.2222
15632TIP3    H268312   3.276   3.355   3.597  0.3986  0.8634  0.3372
15633TIP3   OH268313   3.461   5.280   3.976  0.0123 -0.2532 -0.5598
15633TIP3    H168314   3.383   5.225   3.977  0.2497 -0.6188  1.6448
15633TIP3    H268315   3.520   5.240   4.039  1.3023  0.9747 -0.9379
15634TIP3   OH268316   1.267   1.906   6.106  0.2995 -0.1213  0.2241
15634TIP3    H168317   1.249   1.986   6.155  1.1658 -0.9794  2.0246
15634TIP3    H268318   1.192   1.898   6.046 -0.1823  1.6127  0.5287
15635TIP3   OH268319   1.730   4.224   3.112 -0.1532 -0.3596 -0.7049
15635TIP3    H168320   1.816   4.261   3.133 -0.1329 -0.5269 -0.4877
15635TIP3    H268321   1.702   4.180   3.193 -0.6568  0.0996 -0.6282
15636TIP3   OH268322   2.405   5.928   1.157 -0.6131  0.9455  0.5292
15636TIP3    H168323   2.457   6.008   1.147 -1.1502  1.5314  2.1063
15636TIP3    H268324   2.440   5.886   1.235  0.0636 -0.7210 -0.6163
15637TIP3   OH268325   4.826   0.174  11.914  0.1348 -0.1580 -0.9885
15637TIP3    H168326   4.846   0.143  12.002 -0.6724  0.9698 -0.3817
15637TIP3    H268327   4.732   0.160  11.904  0.5050 -2.0179 -2.4179
15638TIP3   OH268328   6.144   3.694   2.830 -0.6566  0.2251 -0.2459
15638TIP3    H168329   6.163   3.722   2.741 -1.2897  1.4805 -0.0113
15638TIP3    H268330   6.056   3.655   2.825 -0.9286  0.8041 -0.0843
15639TIP3   OH268331   0.994   3.083   3.996  0.1193 -0.5309 -0.0283
15639TIP3    H168332   1.009   3.074   4.090  0.8939  0.4785 -0.0391
15639TIP3    H268333   0.981   2.993   3.965  1.7362 -1.0587  0.7352
15640TIP3   OH268334   5.323   0.407  14.906  0.9226  0.0979  0.2025
15640TIP3    H168335   5.275   0.480  14.866 -0.9451 -0.6640  0.9318
15640TIP3    H268336   5.370   0.366  14.833  0.6683  1.0379 -0.5053
15641TIP3   OH268337   6.116   3.320   0.115 -0.1317 -0.2433  0.4898
15641TIP3    H168338   6.078   3.386   0.057  0.1137  0.4098  1.0577
15641TIP3    H268339   6.190   3.284   0.065  1.5673  1.9811  1.2345
15642TIP3   OH268340   2.448   2.377   2.133 -0.1020 -0.2957 -0.0739
15642TIP3    H168341   2.444   2.287   2.100 -1.7470  0.0431 -0.9182
15642TIP3    H268342   2.372   2.385   2.190 -1.1243  1.1113 -1.5697
15643TIP3   OH268343   1.739   5.574  13.115 -0.2439 -0.2510 -0.6695
15643TIP3    H168344   1.726   5.658  13.159 -0.1333 -0.5242 -0.0966
15643TIP3    H268345   1.782   5.596  13.033  0.1721  0.2165 -0.3338
15644TIP3   OH268346   3.764   4.291   4.351  0.0855  0.5564 -0.2468
15644TIP3    H168347   3.722   4.339   4.423  1.3636  0.2738  0.7252
15644TIP3    H268348   3.858   4.309   4.362  0.4996 -1.2008 -0.5631
15645TIP3   OH268349   0.811   5.369   5.911 -0.0587 -0.1136  0.6692
15645TIP3    H168350   0.870   5.294   5.901 -1.1579 -0.8148 -0.9313
15645TIP3    H268351   0.869   5.445   5.912  1.0226 -0.9143  1.4984
15646TIP3   OH268352   3.500   0.160   6.009 -0.3741 -0.5156 -0.4019
15646TIP3    H168353   3.557   0.154   6.086 -0.7220  1.8650  0.0960
15646TIP3    H268354   3.551   0.119   5.939  0.9493 -0.5945  0.5620
15647TIP3   OH268355   2.986   2.775  13.905  0.4774  0.3417  0.6391
15647TIP3    H168356   3.045   2.789  13.830 -2.5179 -3.1000 -2.8132
15647TIP3    H268357   3.034   2.714  13.962  2.3828  2.1395  1.0860
15648TIP3   OH268358   4.475   5.170  10.691  0.3324 -0.0105 -0.2736
15648TIP3    H168359   4.521   5.254  10.701 -0.3138  0.4093 -0.7175
15648TIP3    H268360   4.495   5.122  10.772 -0.2023  1.0323  0.5142
15649TIP3   OH268361   1.496   1.986   2.918  0.1381 -0.0414  0.1686
15649TIP3    H168362   1.421   1.926   2.923 -0.9251  1.1917 -0.5080
15649TIP3    H268363   1.529   1.974   2.829 -1.7698  2.2648 -0.9555
15650TIP3   OH268364   4.923   2.405  14.288 -0.5424 -0.1568  0.5612
15650TIP3    H168365   4.902   2.335  14.226  0.1335  0.4318 -0.3519
15650TIP3    H268366   4.905   2.486  14.240  2.2089  0.3655  0.2779
15651TIP3   OH268367   2.738   6.385  13.857 -0.7819 -0.0506 -0.4821
15651TIP3    H168368   2.808   6.321  13.854 -0.4813  0.1508  1.4625
15651TIP3    H268369   2.658   6.333  13.848 -0.4579 -0.2883 -2.6131
15652TIP3   OH268370   3.559   0.594   5.891 -0.0881  0.8513  0.0719
15652TIP3    H168371   3.566   0.543   5.971 -1.9784  1.1414  0.4669
15652TIP3    H268372   3.601   0.678   5.912 -0.6143  0.9450  0.7756
15653TIP3   OH268373   4.557   6.331  14.964  0.4431 -0.0824 -0.6793
15653TIP3    H168374   4.631   6.378  15.004 -1.0986  0.1170  2.1874
15653TIP3    H268375   4.598   6.257  14.920  2.4781  0.8071 -0.4094
15654TIP3   OH268376   5.767   6.042   1.051  0.4435 -0.3944  0.1976
15654TIP3    H168377   5.770   6.082   1.138 -0.8734  1.8577 -0.7072
15654TIP3    H268378   5.741   5.951   1.068 -0.3023  0.1196  2.1164
15655TIP3   OH268379   0.251   5.178  11.677  0.5921 -0.5399  1.1010
15655TIP3    H168380   0.232   5.129  11.758  1.7211  0.9271  2.3262
15655TIP3    H268381   0.338   5.214  11.691 -1.3288  4.7314  1.9387
15656TIP3   OH268382   2.958   1.866   2.435 -0.0337  0.1122  0.0358
15656TIP3    H168383   2.998   1.932   2.378 -1.5262  0.5849 -0.5268
15656TIP3    H268384   2.964   1.784   2.385 -0.9810  0.4483 -0.6566
15657TIP3   OH268385   2.602   2.390   0.007 -0.5718 -0.3207 -0.3742
15657TIP3    H168386   2.598   2.340  -0.075  0.7651 -2.3580  0.7223
15657TIP3    H268387   2.522   2.367   0.053 -0.6130 -0.3317 -0.4493
15658TIP3   OH268388   0.378   4.531  16.910  1.2804 -0.4743  0.2828
15658TIP3    H168389   0.296   4.565  16.946  2.0648  2.1025 -0.1866
15658TIP3    H268390   0.351   4.459  16.853 -0.6063  0.0260  0.4698
15659TIP3   OH268391   5.003   2.445   4.337 -0.5661  0.4445  0.0760
15659TIP3    H168392   5.074   2.418   4.279  1.8159  1.7263  2.1881
15659TIP3    H268393   4.972   2.363   4.375 -1.0644 -0.2520 -1.7217
15660TIP3   OH268394   5.808   2.143  11.189  0.1206 -1.0315  1.0519
15660TIP3    H168395   5.721   2.185  11.191  0.2646 -0.7260  1.0074
15660TIP3    H268396   5.861   2.196  11.249  0.5115 -0.6823  0.4126
15661TIP3   OH268397   0.017   0.809   5.696  0.1170 -0.2067  0.7225
15661TIP3    H168398   0.105   0.843   5.712  0.1885 -0.4525  0.8625
15661TIP3    H268399   0.009   0.735   5.756 -1.0889  1.2890  2.5158
15662TIP3   OH268400   2.065   5.323   3.514  0.1382 -0.1626 -0.2273
15662TIP3    H168401   2.049   5.316   3.420  1.5630 -1.4030 -0.4110
15662TIP3    H268402   2.093   5.413   3.528  4.1802 -0.9667 -1.7661
15663TIP3   OH268403   5.971   1.296  16.068 -0.6354  0.1924  0.2013
15663TIP3    H168404   6.036   1.361  16.095 -1.0612  0.6194  0.2051
15663TIP3    H268405   5.890   1.346  16.058 -0.6923 -0.1121 -0.9739
15664TIP3   OH268406   2.356   5.050   4.488  0.0372  0.0995  0.2907
15664TIP3    H168407   2.393   5.014   4.569 -1.5789 -0.6217  0.7499
15664TIP3    H268408   2.264   5.023   4.490 -0.1829  0.6122 -1.4865
15665TIP3   OH268409   5.829   1.368   4.066  0.3475 -0.0548  0.1055
15665TIP3    H168410   5.803   1.384   3.976  1.5635  0.9021 -0.1032
15665TIP3    H268411   5.861   1.278   4.067 -1.3621 -0.6915  0.0133
15666TIP3   OH268412   4.901   1.115   5.901  0.1637 -0.0721 -0.4890
15666TIP3    H168413   4.945   1.056   5.963 -2.2297 -1.7889 -0.2430
15666TIP3    H268414   4.835   1.160   5.954 -1.2765 -0.8510 -1.5365
15667TIP3   OH268415   3.145   5.758   3.961 -0.0550 -0.0515 -0.4083
15667TIP3    H168416   3.080   5.700   4.001  2.1149 -3.0983 -0.9457
15667TIP3    H268417   3.172   5.816   4.032 -0.7755 -1.1222  0.7838
15668TIP3   OH268418   2.116   5.075   3.672  0.8848  0.1807  0.3049
15668TIP3    H168419   2.111   5.108   3.762 -0.1336 -0.1897  0.3985
15668TIP3    H268420   2.111   5.153   3.617 -0.1479  0.3039  0.5498
15669TIP3   OH268421   5.980   0.241  15.972  0.4232  0.0099  0.6138
15669TIP3    H168422   6.070   0.209  15.974  0.8606  0.9114 -1.6695
15669TIP3    H268423   5.965   0.275  16.060  3.0045  1.6181  0.5428
15670TIP3   OH268424   6.656   5.087  15.249 -0.6788 -0.3593  0.3098
15670TIP3    H168425   6.593   5.141  15.296  2.3973  1.4239  2.7263
15670TIP3    H268426   6.695   5.146  15.185 -0.4170 -1.0285 -0.1641
15671TIP3   OH268427   4.134   1.404  14.128  0.4312 -0.2944  0.2760
15671TIP3    H168428   4.105   1.353  14.053  0.4265  2.0219 -1.3954
15671TIP3    H268429   4.217   1.444  14.100 -1.1938  3.3601  0.0320
15672TIP3   OH268430   6.431   4.708   1.764  0.4653  0.0704  0.0779
15672TIP3    H168431   6.437   4.705   1.668 -1.3514 -0.2985 -0.0627
15672TIP3    H268432   6.421   4.617   1.790  1.6751  0.1040  0.6988
15673TIP3   OH268433   6.180   6.010  16.952  0.0125  0.2204  0.3068
15673TIP3    H168434   6.095   6.050  16.930  0.0258 -0.4119 -0.9449
15673TIP3    H268435   6.240   6.085  16.957 -0.5913  0.6709  1.1564
15674TIP3   OH268436   5.690   3.436  11.840 -0.2740 -0.0728 -0.1933
15674TIP3    H168437   5.724   3.370  11.901 -1.5454 -0.9389 -0.3988
15674TIP3    H268438   5.705   3.398  11.754  1.0744  0.9402 -0.4402
15675TIP3   OH268439   2.295   4.240   3.952 -0.1214 -0.4807  0.4230
15675TIP3    H168440   2.326   4.264   4.040 -0.2133  0.6759  0.1608
15675TIP3    H268441   2.252   4.319   3.920 -0.1112 -0.9009 -0.6595
15676TIP3   OH268442   3.189   2.420  14.002  0.0449 -0.4002 -0.4714
15676TIP3    H168443   3.278   2.423  14.036  0.3250  0.4272 -1.2252
15676TIP3    H268444   3.196   2.370  13.920 -0.0012  0.4543 -1.0074
15677TIP3   OH268445   0.835   6.501  17.317 -0.0547 -0.1430 -0.0096
15677TIP3    H168446   0.829   6.574  17.379  0.1846 -1.9811  2.3074
15677TIP3    H268447   0.753   6.505  17.268  0.0087  1.7336 -0.0439
15678TIP3   OH268448   1.911   3.383   6.637 -0.0053 -0.0910 -0.6785
15678TIP3    H168449   1.961   3.429   6.705 -0.1901 -1.5994  0.5377
15678TIP3    H268450   1.821   3.414   6.649 -0.1173 -0.6586  0.0969
15679TIP3   OH268451   6.594   1.564  14.344  0.3950 -0.0263  0.1741
15679TIP3    H168452   6.606   1.659  14.347 -1.0454  0.2239 -0.6931
15679TIP3    H268453   6.666   1.532  14.291  0.8631  0.5904  0.4322
15680TIP3   OH268454   3.127   6.681  15.713  0.0041 -0.0411  0.5721
15680TIP3    H168455   3.110   6.611  15.650  0.3796 -0.4225  0.8804
15680TIP3    H268456   3.137   6.635  15.797  0.3236  0.3761  0.7698
15681TIP3   OH268457   4.241   0.016   2.016  0.1154  0.0912  0.1072
15681TIP3    H168458   4.235   0.027   1.921 -1.9792 -2.9080 -0.2272
15681TIP3    H268459   4.158  -0.023   2.042  0.7551  0.4819  3.1604
15682TIP3   OH268460   2.163   2.530  13.584  0.1464  0.0076 -0.2213
15682TIP3    H168461   2.247   2.508  13.625  0.1214 -1.1326 -0.7375
15682TIP3    H268462   2.114   2.447  13.584  0.3522 -0.2111 -3.0103
15683TIP3   OH268463   1.371   1.220   5.687 -0.3366 -0.0948  0.2002
15683TIP3    H168464   1.318   1.292   5.722  0.5282  0.3677  0.6077
15683TIP3    H268465   1.370   1.154   5.756 -0.3714 -0.0826  0.2115
15684TIP3   OH268466   3.305   2.385   5.543  0.0357 -0.3677 -0.5031
15684TIP3    H168467   3.332   2.297   5.517 -0.3641 -0.9021  0.8066
15684TIP3    H268468   3.361   2.407   5.617 -0.9189 -0.1685  0.1784
15685TIP3   OH268469   1.485   2.839   5.464 -0.3455  0.5576 -0.2138
15685TIP3    H168470   1.541   2.839   5.387  1.3044  0.8461  0.9183
15685TIP3    H268471   1.541   2.872   5.534 -1.1355 -1.5733  1.5517
15686TIP3   OH268472   1.345   3.632   2.465 -0.0636 -0.5168 -0.2412
15686TIP3    H168473   1.342   3.543   2.500  2.7729 -0.3921  0.6280
15686TIP3    H268474   1.431   3.666   2.493 -0.6560  2.1740 -1.3168
15687TIP3   OH268475   6.556   0.193  10.991 -0.2861 -0.0669 -0.9282
15687TIP3    H168476   6.535   0.232  10.906 -1.4041  2.3532  0.3766
15687TIP3    H268477   6.635   0.240  11.019  1.1837 -2.1322 -1.3503
15688TIP3   OH268478   3.125   1.219   0.381  0.2331 -0.0324 -0.4673
15688TIP3    H168479   3.095   1.149   0.323  1.0650 -1.1363  0.3916
15688TIP3    H268480   3.046   1.268   0.402 -0.1764  0.0659 -2.0575
15689TIP3   OH268481   3.937   4.980  11.381  0.3960  0.0107 -0.3148
15689TIP3    H168482   3.883   4.976  11.303 -0.8711  2.5664  0.3055
15689TIP3    H268483   3.879   5.015  11.449  2.4678  1.7285  0.7016
15690TIP3   OH268484   4.428   2.734  11.760  0.0148  0.2671 -0.8017
15690TIP3    H168485   4.481   2.657  11.742 -1.9735 -1.3752  0.0318
15690TIP3    H268486   4.362   2.704  11.823 -0.5081  2.7881 -0.0337
15691TIP3   OH268487   4.399   1.488  10.574 -0.5463 -0.0544  0.2624
15691TIP3    H168488   4.342   1.412  10.581  0.4782 -0.6834  2.6262
15691TIP3    H268489   4.471   1.470  10.634  1.2185  1.5201 -1.2616
15692TIP3   OH268490   3.720   4.482  16.741 -0.1728 -0.5543 -0.0702
15692TIP3    H168491   3.668   4.499  16.820  0.1915 -0.1304  0.0838
15692TIP3    H268492   3.740   4.388  16.746  0.5786 -0.3688  0.8097
15693TIP3   OH268493   4.510   5.842  17.353  0.5342  0.2705  0.4093
15693TIP3    H168494   4.415   5.835  17.340  0.7901  1.7539 -3.2642
15693TIP3    H268495   4.521   5.924  17.401 -0.0120  1.3652 -1.2404
15694TIP3   OH268496   0.577   0.395   2.385  0.5492  0.5662  0.2995
15694TIP3    H168497   0.630   0.470   2.358  0.7581  0.0541 -0.7390
15694TIP3    H268498   0.620   0.319   2.345 -1.8395  0.2663 -1.9785
15695TIP3   OH268499   6.485   2.293  12.035 -0.2023  0.3907 -0.2852
15695TIP3    H168500   6.475   2.207  11.994 -0.0860 -0.5629  1.5866
15695TIP3    H268501   6.410   2.343  12.004 -1.2934 -0.9934  0.0238
15696TIP3   OH268502   0.267   0.329   1.109 -0.5648 -0.3624 -0.4594
15696TIP3    H168503   0.353   0.293   1.130  0.7022  1.2455 -2.5183
15696TIP3    H268504   0.211   0.252   1.098  0.2256 -1.4083  2.1553
15697TIP3   OH268505   5.004   5.243  16.466  0.6109 -0.0639  0.3780
15697TIP3    H168506   5.037   5.317  16.415  0.2481 -1.2282 -1.6696
15697TIP3    H268507   4.911   5.238  16.443  0.1404  0.0335  2.0823
15698TIP3   OH268508   1.015   3.212   3.225 -0.0976  0.5220  0.0608
15698TIP3    H168509   0.977   3.272   3.290  0.5416  2.4703 -1.2740
15698TIP3    H268510   1.065   3.149   3.277 -0.4109  1.4205  1.5172
15699TIP3   OH268511   6.666   2.483  14.643  0.0368 -0.1643  0.0778
15699TIP3    H168512   6.586   2.430  14.640 -1.6938  2.3085 -1.3057
15699TIP3    H268513   6.669   2.526  14.557  0.8187  2.5679  1.3557
15700TIP3   OH268514   6.573   1.754   0.806  0.0034  0.3687 -0.0798
15700TIP3    H168515   6.527   1.837   0.819  0.3710  0.4729  0.5927
15700TIP3    H268516   6.651   1.777   0.757  0.9061  0.6888  1.4273
15701TIP3   OH268517   2.335   2.079   2.974  0.5013  0.5183  0.2460
15701TIP3    H168518   2.364   2.047   3.059 -1.7002  0.4286  1.0380
15701TIP3    H268519   2.302   2.002   2.929  0.6765  0.7370 -0.2638
15702TIP3   OH268520   1.874   5.033  17.148 -0.1062 -0.8362  0.0949
15702TIP3    H168521   1.903   4.943  17.133 -0.7394 -1.3908  1.9308
15702TIP3    H268522   1.782   5.034  17.119  0.3570 -0.2997 -1.4644
15703TIP3   OH268523   4.393   0.028  13.235  0.4730  0.1575 -0.4502
15703TIP3    H168524   4.419  -0.043  13.294 -0.7531 -0.0626 -0.1552
15703TIP3    H268525   4.450   0.101  13.259  0.7686 -0.2820  0.2207
15704TIP3   OH268526   0.194   3.485  13.631  0.2154 -0.5673  0.3802
15704TIP3    H168527   0.241   3.564  13.605  0.1904 -0.9157 -0.8063
15704TIP3    H268528   0.222   3.469  13.721 -0.0186  0.9455  0.7495
15705TIP3   OH268529   6.367   3.414  14.936 -0.1535  0.4054  0.4524
15705TIP3    H168530   6.344   3.386  15.025 -0.7277  1.4343  0.6412
15705TIP3    H268531   6.289   3.393  14.884 -0.2400  0.8197  0.4153
15706TIP3   OH268532   5.435   5.042   4.207 -0.9663 -0.3119 -0.6767
15706TIP3    H168533   5.455   5.135   4.197 -1.8880  0.1237  1.1137
15706TIP3    H268534   5.365   5.025   4.144  0.4892 -0.2981 -2.3742
15707TIP3   OH268535   6.480   3.852   5.366 -0.6594  0.7089 -0.1040
15707TIP3    H168536   6.517   3.934   5.399 -0.0852  1.3280 -2.1444
15707TIP3    H268537   6.413   3.880   5.303 -0.7796 -0.3954 -0.4827
15708TIP3   OH268538   6.701   2.881   0.511 -0.5518 -0.0344  0.7163
15708TIP3    H168539   6.706   2.789   0.486  1.9857  0.4424 -0.8491
15708TIP3    H268540   6.608   2.895   0.532 -1.4450 -2.3668 -1.2335
15709TIP3   OH268541   3.445   5.578  11.215  0.3199 -0.2002 -0.6852
15709TIP3    H168542   3.435   5.667  11.181  1.4686  0.4316  0.5219
15709TIP3    H268543   3.356   5.551  11.239 -0.1385  0.3192 -1.7384
15710TIP3   OH268544   5.669   1.944  17.053 -0.2387  0.3654  0.4140
15710TIP3    H168545   5.708   2.024  17.088 -1.6636  0.8953  0.8641
15710TIP3    H268546   5.674   1.954  16.958  1.2155  0.1422  0.4426
15711TIP3   OH268547   1.258   2.476   1.998  0.3368 -0.3734 -0.1666
15711TIP3    H168548   1.322   2.436   1.940 -0.4881  1.2939 -2.3672
15711TIP3    H268549   1.205   2.403   2.029 -0.1708 -1.2414 -2.8298
15712TIP3   OH268550   6.015   3.573  11.333  0.4687  0.2552  0.6533
15712TIP3    H168551   5.997   3.508  11.265 -0.2754 -0.2903  1.3602
15712TIP3    H268552   6.035   3.653  11.284 -1.5892  0.2903 -0.2140
15713TIP3   OH268553   2.566   5.687   5.788  0.3514  0.1597  0.0895
15713TIP3    H168554   2.598   5.776   5.807  0.8194  0.0800 -0.3135
15713TIP3    H268555   2.476   5.687   5.820  0.4729  0.6612  0.4456
15714TIP3   OH268556   2.579   4.500  17.206  0.3925 -0.0945  0.6808
15714TIP3    H168557   2.664   4.481  17.245  1.3657 -1.5238 -1.8482
15714TIP3    H268558   2.600   4.545  17.124 -1.2517 -0.8528 -0.2072
15715TIP3   OH268559   3.278   5.772   5.178  0.2357  0.0393  0.1306
15715TIP3    H168560   3.194   5.738   5.209  0.6280 -0.9961  0.1010
15715TIP3    H268561   3.344   5.721   5.227  0.8477 -0.0666 -0.7785
15716TIP3   OH268562   2.102   0.162  17.356 -0.2830  0.5956 -0.7660
15716TIP3    H168563   2.156   0.105  17.410  0.8350  0.8887 -1.5353
15716TIP3    H268564   2.041   0.103  17.313  0.4527  0.0420 -1.0715
15717TIP3   OH268565   1.468   0.065   0.832 -0.5454  0.4328 -0.5050
15717TIP3    H168566   1.505   0.148   0.862  1.1014  0.2470 -1.8917
15717TIP3    H268567   1.445   0.018   0.912 -0.2044  1.6440  0.3282
15718TIP3   OH268568   2.795   1.205  14.374  0.4906  0.2512 -0.3501
15718TIP3    H168569   2.832   1.172  14.455 -0.9233  1.1220  0.6866
15718TIP3    H268570   2.864   1.192  14.309  2.1005  0.5817  1.2235
15719TIP3   OH268571   4.589   3.063   3.160 -0.2708 -0.2890 -0.1101
15719TIP3    H168572   4.648   3.015   3.102 -2.3339 -2.1259 -0.7967
15719TIP3    H268573   4.625   3.050   3.247  0.5548 -1.0231 -0.5484
15720TIP3   OH268574   3.104   3.876   4.937 -0.0281 -0.1359  0.2287
15720TIP3    H168575   3.056   3.850   5.015 -0.5101  1.4745  0.4974
15720TIP3    H268576   3.040   3.920   4.882  0.3611 -1.0301 -0.9922
15721TIP3   OH268577   2.226   3.329   6.048  0.5398 -0.1523 -0.3414
15721TIP3    H168578   2.240   3.237   6.073  0.2088 -0.0354  0.3232
15721TIP3    H268579   2.206   3.326   5.955  0.7423 -0.7361 -0.3707
15722TIP3   OH268580   5.615   2.576   5.941 -0.3289  0.2336 -0.3481
15722TIP3    H168581   5.615   2.493   5.989 -0.0666  0.4869  0.0891
15722TIP3    H268582   5.663   2.557   5.861 -2.1786 -0.6518 -1.3344
15723TIP3   OH268583   4.855   3.894  14.951 -0.1661  0.9486 -0.0158
15723TIP3    H168584   4.942   3.872  14.983 -0.1153  0.7120 -0.3074
15723TIP3    H268585   4.870   3.929  14.863 -0.2506  2.1319  0.4227
15724TIP3   OH268586   3.900   6.593   4.060  0.7106  0.0624  0.1043
15724TIP3    H168587   3.830   6.654   4.035  2.3454  1.9375 -0.1570
15724TIP3    H268588   3.937   6.564   3.977 -0.2310 -1.5824  0.2193
15725TIP3   OH268589   1.060   6.063  17.009  0.3582  0.6021 -0.2252
15725TIP3    H168590   1.001   6.138  17.012 -0.1389  0.1854  0.7450
15725TIP3    H268591   1.107   6.073  16.926 -1.2765  0.7701 -1.1650
15726TIP3   OH268592   6.722   0.914   4.862 -0.1802 -0.2523  0.4196
15726TIP3    H168593   6.631   0.944   4.862  0.2419  1.0937 -0.3801
15726TIP3    H268594   6.715   0.818   4.862 -1.5629 -0.2150  2.6152
15727TIP3   OH268595   3.140   5.262  15.469 -0.3851 -0.1987 -0.1598
15727TIP3    H168596   3.235   5.267  15.478 -0.0583  0.1994 -2.9722
15727TIP3    H268597   3.111   5.353  15.467 -0.9365 -0.3171  1.1896
15728TIP3   OH268598   6.217   0.756   1.501 -0.4156  0.2729 -0.2997
15728TIP3    H168599   6.280   0.811   1.454 -0.3785  0.3400 -0.1740
15728TIP3    H268600   6.268   0.680   1.529 -0.3236  0.4487  0.0262
15729TIP3   OH268601   4.717   3.426   2.250 -0.0809 -0.2485 -0.2849
15729TIP3    H168602   4.742   3.462   2.335 -3.4737 -0.0555  0.7816
15729TIP3    H268603   4.766   3.478   2.187  1.6526  0.4020  1.4825
15730TIP3   OH268604   6.525   3.576  17.219 -0.1830 -0.2771 -0.1834
15730TIP3    H168605   6.516   3.670  17.236  0.8341 -0.4175  1.3180
15730TIP3    H268606   6.436   3.541  17.228 -0.2994  0.2834  1.0495
15731TIP3   OH268607   5.259   6.101   6.804  0.3862 -0.0415 -0.6422
15731TIP3    H168608   5.288   6.182   6.762  3.0392  0.8221  2.4479
15731TIP3    H268609   5.197   6.130   6.871  1.0945 -0.5491  0.2576
15732TIP3   OH268610   0.660   3.324  15.422  0.5620  0.2858 -0.5978
15732TIP3    H168611   0.666   3.363  15.335 -1.3487  0.1113 -0.8396
15732TIP3    H268612   0.582   3.363  15.461 -1.2699 -2.8903 -0.7123
15733TIP3   OH268613   3.834   2.892   6.006 -0.0037  0.5107  0.3492
15733TIP3    H168614   3.859   2.983   6.018  1.5382  0.1470  0.1348
15733TIP3    H268615   3.858   2.872   5.916 -1.6620  0.2704 -0.0673
15734TIP3   OH268616   4.857   2.165   1.018 -0.5869  0.1022 -1.0278
15734TIP3    H168617   4.796   2.192   1.087 -0.9414 -0.7152 -1.0113
15734TIP3    H268618   4.921   2.110   1.063 -0.9376 -0.6005 -1.3893
15735TIP3   OH268619   1.072   5.336   3.871  0.0038  0.5453 -0.1840
15735TIP3    H168620   1.007   5.361   3.937 -2.3575 -0.4610 -1.9601
15735TIP3    H268621   1.134   5.281   3.918 -2.5595 -1.6145  0.9823
15736TIP3   OH268622   0.169   2.434  16.463  0.1728 -0.4731 -0.3667
15736TIP3    H168623   0.218   2.446  16.545 -1.3331  0.2832  0.4643
15736TIP3    H268624   0.172   2.340  16.446  0.0760 -0.7031  0.8382
15737TIP3   OH268625   5.860   1.001   1.917 -0.1741 -0.1375 -0.2170
15737TIP3    H168626   5.884   0.909   1.911 -0.2513 -0.1855  0.2086
15737TIP3    H268627   5.846   1.028   1.826  0.5940 -0.3403 -0.3979
15738TIP3   OH268628   5.003   4.015   2.580 -0.0808  0.3891  0.4170
15738TIP3    H168629   4.925   3.960   2.568 -0.4141  0.7482  0.9356
15738TIP3    H268630   4.972   4.090   2.630  0.0595  1.7425 -1.4051
15739TIP3   OH268631   0.531   6.305   4.754 -0.1912  0.2290  0.1939
15739TIP3    H168632   0.503   6.215   4.768 -0.2937  0.1316 -0.5933
15739TIP3    H268633   0.625   6.299   4.737 -0.1068  0.3261  0.6005
15740TIP3   OH268634   0.236   4.361   4.471 -0.1800 -0.0892 -0.0794
15740TIP3    H168635   0.153   4.409   4.468 -0.7986 -1.1480 -0.3698
15740TIP3    H268636   0.281   4.397   4.548  0.0622  1.9980 -1.1088
15741TIP3   OH268637   4.746   1.873   2.772  0.4969 -0.3742 -0.7195
15741TIP3    H168638   4.764   1.851   2.680  0.8290 -0.5958 -0.6049
15741TIP3    H268639   4.832   1.871   2.814  0.1618 -2.2151  0.0151
15742TIP3   OH268640   5.972   3.115  13.663 -0.0571 -0.2067 -0.0745
15742TIP3    H168641   6.011   3.029  13.649  0.3466 -0.3217  1.5014
15742TIP3    H268642   5.925   3.107  13.746 -0.3875  0.9673 -0.1214
15743TIP3   OH268643   3.490   1.364   4.787  0.0601  0.1688  0.2970
15743TIP3    H168644   3.474   1.343   4.695 -1.4428  1.2748  0.2581
15743TIP3    H268645   3.520   1.455   4.786 -2.0270  0.9196  0.9973
15744TIP3   OH268646   3.907   4.021  12.002  0.3191  0.5135  0.3377
15744TIP3    H168647   3.904   3.974  11.919  0.5131 -0.3121  0.7814
15744TIP3    H268648   3.986   3.988  12.045  1.5446  2.6673 -0.1302
15745TIP3   OH268649   5.375   5.672  15.283 -0.2298  0.3205  0.6338
15745TIP3    H168650   5.439   5.608  15.253 -1.0250  0.3032 -1.1342
15745TIP3    H268651   5.298   5.621  15.305 -0.3991  0.5431  0.5659
15746TIP3   OH268652   6.516   1.808  12.515 -0.3789  0.1866  0.1609
15746TIP3    H168653   6.551   1.885  12.559 -0.8649  1.1163 -1.0165
15746TIP3    H268654   6.589   1.746  12.512  0.2443  0.8965  0.4484
15747TIP3   OH268655   0.808   1.291   5.675 -0.4999  0.3258  0.2069
15747TIP3    H168656   0.899   1.285   5.643 -1.3073 -0.8271 -2.1415
15747TIP3    H268657   0.772   1.367   5.630 -0.8556  0.4225  0.6565
15748TIP3   OH268658   1.365   1.879   3.427 -0.9192  0.3287  0.4790
15748TIP3    H168659   1.413   1.823   3.366 -1.4704 -1.5262  1.6728
15748TIP3    H268660   1.346   1.958   3.377 -2.6911 -1.6846 -2.2981
15749TIP3   OH268661   4.563   6.114  11.299  0.2973  0.2987 -0.3157
15749TIP3    H168662   4.491   6.167  11.265  0.4762  0.7205 -0.0503
15749TIP3    H268663   4.567   6.038  11.240 -1.5873 -0.7273  0.8074
15750TIP3   OH268664   0.755   2.864  14.062  0.1854  0.5920 -0.0287
15750TIP3    H168665   0.724   2.936  14.117 -0.1260 -0.5108  1.3069
15750TIP3    H268666   0.851   2.873  14.064  0.2345  0.1359  1.3929
15751TIP3   OH268667   3.485   3.032  14.312  0.6118 -0.1329 -0.5589
15751TIP3    H168668   3.511   2.940  14.318 -3.7448 -1.5296 -0.0048
15751TIP3    H268669   3.450   3.040  14.223 -1.3477  0.2094  0.2096
15752TIP3   OH268670   0.210   0.611   1.200  0.4782  0.2982 -0.0427
15752TIP3    H168671   0.258   0.550   1.145 -2.0283 -0.7736 -1.2168
15752TIP3    H268672   0.188   0.684   1.142 -1.5840 -0.5140 -0.3613
15753TIP3   OH268673   4.343   1.983  10.872 -0.1570  0.4457  0.3816
15753TIP3    H168674   4.366   2.075  10.883 -1.1124  0.5679  1.5472
15753TIP3    H268675   4.373   1.941  10.953  2.2788 -0.7441 -1.0025
15754TIP3   OH268676   5.904   4.671   1.077 -0.1206 -0.5095 -0.4104
15754TIP3    H168677   5.931   4.706   1.162 -0.9926 -1.4214  0.2585
15754TIP3    H268678   5.899   4.748   1.020  0.4667  0.1121  0.3488
15755TIP3   OH268679   0.032   4.078  14.782  0.4006 -0.0186  0.3485
15755TIP3    H168680   0.001   3.989  14.767  0.3318  0.3749 -2.2261
15755TIP3    H268681   0.016   4.124  14.700  0.1011  2.5027  1.7139
15756TIP3   OH268682   2.060   2.260  15.313 -0.8165  0.1307  0.3828
15756TIP3    H168683   2.137   2.316  15.321  0.7297 -1.6354 -1.0620
15756TIP3    H268684   1.994   2.315  15.271 -0.1901  1.5471  1.2019
15757TIP3   OH268685   4.734   1.232   0.456 -0.4800 -0.6693 -0.1554
15757TIP3    H168686   4.778   1.313   0.430  0.4024 -0.9746  0.3198
15757TIP3    H268687   4.704   1.249   0.546  0.9339 -1.3148  0.4728
15758TIP3   OH268688   2.446   1.668   3.199  0.1593 -0.7531 -0.0629
15758TIP3    H168689   2.534   1.631   3.210  0.9344  1.2693  1.0580
15758TIP3    H268690   2.387   1.600   3.233  1.3523 -1.6833  0.2330
15759TIP3   OH268691   4.633   5.040  10.310 -0.9748 -0.3288  0.2521
15759TIP3    H168692   4.585   4.975  10.361 -0.8759 -0.8856 -0.3668
15759TIP3    H268693   4.568   5.107  10.290 -1.4331 -0.9345 -0.3207
15760TIP3   OH268694   6.448   5.352   3.554  0.0193  0.9541  0.4923
15760TIP3    H168695   6.474   5.276   3.501  0.5873  1.9614 -0.7265
15760TIP3    H268696   6.385   5.398   3.499  0.3907  1.8600  0.8173
15761TIP3   OH268697   6.442   1.384  11.717  0.2577 -0.5321  0.1145
15761TIP3    H168698   6.385   1.373  11.641  0.5416  1.3912 -0.4149
15761TIP3    H268699   6.490   1.302  11.723 -1.7839 -1.8071 -0.0666
15762TIP3   OH268700   6.314   3.846   1.149 -0.0765  0.1295 -0.1006
15762TIP3    H168701   6.261   3.917   1.114 -3.3264 -2.4635 -0.9096
15762TIP3    H268702   6.375   3.823   1.079 -0.5133  0.6658 -0.6556
15763TIP3   OH268703   5.965   1.108  16.393  1.3209  0.6903  0.0162
15763TIP3    H168704   5.913   1.092  16.473  1.8416  1.2986  0.4869
15763TIP3    H268705   6.035   1.044  16.397  1.3427  0.7156  0.0428
15764TIP3   OH268706   0.139   6.402  14.029  0.8888  0.5769  0.5167
15764TIP3    H168707   0.213   6.366  13.979 -0.4783 -2.1651  0.2717
15764TIP3    H268708   0.135   6.494  14.002  3.0295  0.3497 -0.8843
15765TIP3   OH268709   1.951   4.782   4.681  0.4609  0.3337 -0.5063
15765TIP3    H168710   1.991   4.712   4.733  0.9003  2.5368  2.3912
15765TIP3    H268711   1.857   4.772   4.696  0.6007  1.1150  1.0284
15766TIP3   OH268712   1.777   4.289  12.110 -0.4339 -0.1228  0.3227
15766TIP3    H168713   1.770   4.372  12.064 -0.4338 -0.4960 -0.3668
15766TIP3    H268714   1.720   4.229  12.061 -0.3544 -0.5524  0.7488
15767TIP3   OH268715   3.005   0.539   3.429  0.2171 -0.2530 -0.5973
15767TIP3    H168716   2.998   0.629   3.397 -1.5118 -0.0491  0.2724
15767TIP3    H268717   3.094   0.512   3.403  1.3597  2.1888  0.4376
15768TIP3   OH268718   5.478   1.794   2.978  0.3496 -0.4042  0.0578
15768TIP3    H168719   5.383   1.802   2.990  0.3052 -1.4144  0.5508
15768TIP3    H268720   5.502   1.717   3.031  1.4854 -0.0026  0.1498
15769TIP3   OH268721   0.501   1.738  13.238  0.2119  0.0306 -0.4181
15769TIP3    H168722   0.465   1.753  13.151 -2.3124 -2.7286 -0.0102
15769TIP3    H268723   0.446   1.792  13.296  0.5505  0.2791 -0.3256
15770TIP3   OH268724   6.245   3.753  15.151  0.3973 -0.3191  0.4512
15770TIP3    H168725   6.174   3.798  15.104 -0.3267 -0.9086  0.9446
15770TIP3    H268726   6.303   3.823  15.180 -0.4814  0.2737  0.8405
15771TIP3   OH268727   1.975   2.442   5.310 -0.6144 -0.0554 -0.2807
15771TIP3    H168728   2.013   2.370   5.360  0.8619  0.3378 -0.7748
15771TIP3    H268729   1.963   2.407   5.222 -1.8869 -0.3227 -0.0133
15772TIP3   OH268730   0.799   1.058  13.666  0.4390 -0.0450 -0.2550
15772TIP3    H168731   0.805   0.980  13.722 -0.2090 -0.6494 -1.0028
15772TIP3    H268732   0.885   1.063  13.624  1.1727  0.8105  1.2653
15773TIP3   OH268733   1.208   0.464  12.425 -0.3306 -0.3342 -0.1427
15773TIP3    H168734   1.240   0.458  12.336 -1.2344  1.0848 -0.5931
15773TIP3    H268735   1.285   0.486  12.477 -0.3307  2.2973 -1.0971
15774TIP3   OH268736   2.626   0.915  15.947  0.3005  0.1362 -0.3670
15774TIP3    H168737   2.618   0.997  15.996  0.3338  0.8222 -1.4901
15774TIP3    H268738   2.561   0.921  15.878 -0.7744 -1.4746  0.4421
15775TIP3   OH268739   5.889   6.526  11.529  0.3137  0.7407 -0.4214
15775TIP3    H168740   5.900   6.568  11.444 -1.4850  0.1643 -0.9943
15775TIP3    H268741   5.839   6.589  11.581  0.8116  0.8128 -0.0331
15776TIP3   OH268742   3.555   6.462  12.472  0.0173 -0.3131 -0.0152
15776TIP3    H168743   3.595   6.545  12.495 -2.0672  0.3538  1.5160
15776TIP3    H268744   3.628   6.401  12.461  1.5629  1.6164 -0.9013
15777TIP3   OH268745   0.687   4.068  16.053  0.3033 -0.2337 -0.3197
15777TIP3    H168746   0.637   4.059  15.971  0.6695  0.5390 -0.6383
15777TIP3    H268747   0.620   4.070  16.121 -0.3458  2.8603 -0.8739
15778TIP3   OH268748   3.871   0.695   5.951  0.1984  0.4330  0.1094
15778TIP3    H168749   3.893   0.762   6.017 -0.3548  1.2576 -0.5307
15778TIP3    H268750   3.889   0.612   5.996 -1.3303  0.9185  1.7463
15779TIP3   OH268751   3.141   1.704  13.732 -0.1803  0.0336 -0.1757
15779TIP3    H168752   3.211   1.741  13.678 -0.9694  0.6916 -0.7676
15779TIP3    H268753   3.071   1.769  13.730  0.3661  0.8932  3.0444
15780TIP3   OH268754   0.974   5.045   4.097 -1.2167  0.4774 -0.6618
15780TIP3    H168755   1.047   5.108   4.092  0.0378 -0.9496 -0.8717
15780TIP3    H268756   0.904   5.094   4.139  0.8291  1.0640  2.3933
15781TIP3   OH268757   1.115   3.758  17.077 -0.4386 -0.6288  0.6153
15781TIP3    H168758   1.095   3.822  17.010  0.9964 -0.3398  0.4496
15781TIP3    H268759   1.164   3.689  17.032  0.2461 -0.5967  1.2916
15782TIP3   OH268760   1.173   2.224  15.415 -0.5334  0.5817 -0.7136
15782TIP3    H168761   1.140   2.201  15.329  0.7937 -0.8248 -0.8922
15782TIP3    H268762   1.268   2.227  15.405 -0.2645 -0.7015  0.9133
15783TIP3   OH268763   4.501   5.770   1.564 -0.5165  0.1147 -0.4538
15783TIP3    H168764   4.565   5.724   1.511  0.1332 -0.1575  0.5613
15783TIP3    H268765   4.548   5.846   1.599 -1.3157  1.0576 -1.3487
15784TIP3   OH268766   4.439   2.625   3.584 -0.2811 -0.0524 -0.4288
15784TIP3    H168767   4.419   2.719   3.590 -1.7864 -0.3184 -0.7360
15784TIP3    H268768   4.519   2.614   3.634  0.7975  1.6514 -1.6605
15785TIP3   OH268769   0.130   1.546  16.383 -0.0570 -0.5117 -0.1365
15785TIP3    H168770   0.192   1.612  16.412 -0.1385 -0.4168 -0.1808
15785TIP3    H268771   0.181   1.490  16.324 -0.1016 -0.2290 -0.4461
15786TIP3   OH268772   2.120   6.685  14.389  0.2938 -0.1211  0.3196
15786TIP3    H168773   2.134   6.688  14.295  0.6960  0.8475  0.3988
15786TIP3    H268774   2.161   6.603  14.417 -0.4827 -0.7735 -0.4408
15787TIP3   OH268775   2.835   3.669   2.199 -0.0496 -0.2474  1.1065
15787TIP3    H168776   2.814   3.725   2.124 -1.0475 -1.6766  0.2635
15787TIP3    H268777   2.761   3.680   2.258 -1.7547 -2.7033 -0.3401
15788TIP3   OH268778   3.158   5.817  12.926  0.5580  0.0751  0.4508
15788TIP3    H168779   3.102   5.891  12.948 -0.1478 -0.6256  1.0638
15788TIP3    H268780   3.231   5.823  12.989 -0.5359 -0.8863  1.8800
15789TIP3   OH268781   0.462   4.835  16.731  0.0185  0.2641 -0.1200
15789TIP3    H168782   0.466   4.767  16.665 -0.9686 -0.9768  1.0307
15789TIP3    H268783   0.541   4.823  16.783 -0.3254 -0.2605  0.2945
15790TIP3   OH268784   5.062   4.215  14.817  0.1261  1.2447 -0.0001
15790TIP3    H168785   5.059   4.175  14.731 -1.1716  2.4690 -0.5534
15790TIP3    H268786   5.080   4.142  14.877  0.2671  0.2649 -1.2107
15791TIP3   OH268787   0.298   1.863  15.600  0.3561  0.8133  0.0537
15791TIP3    H168788   0.243   1.940  15.609  0.7808  1.0463  0.7776
15791TIP3    H268789   0.308   1.851  15.505 -2.5707 -0.4454 -0.2124
15792TIP3   OH268790   6.255   0.185   2.394 -0.0618 -0.1147 -0.0745
15792TIP3    H168791   6.320   0.178   2.463  2.1810  0.7198 -1.9854
15792TIP3    H268792   6.246   0.279   2.378  1.4565 -0.3036 -2.5919
15793TIP3   OH268793   2.217   6.580  15.882  0.2763 -0.3571 -0.1858
15793TIP3    H168794   2.262   6.648  15.932  0.1603 -1.7567  1.9691
15793TIP3    H268795   2.166   6.628  15.817  1.1550  1.5309  0.4380
15794TIP3   OH268796   3.835   2.543  13.758 -0.3886 -0.1562 -0.3708
15794TIP3    H168797   3.905   2.527  13.822  0.0613 -1.7166 -1.2078
15794TIP3    H268798   3.760   2.572  13.811  0.7579  1.2326  0.5770
15795TIP3   OH268799   4.140   3.260   3.172  0.0135 -0.2161  0.2272
15795TIP3    H168800   4.228   3.291   3.194 -0.0518  0.1172  0.0263
15795TIP3    H268801   4.085   3.338   3.180  0.0134 -0.0398 -1.3001
15796TIP3   OH268802   2.409   2.803   4.164 -0.4529  0.3310  0.0999
15796TIP3    H168803   2.398   2.790   4.070  2.1740  1.5807 -0.4672
15796TIP3    H268804   2.464   2.881   4.172 -1.4711  0.8948  2.7273
15797TIP3   OH268805   5.571   4.299   4.134  0.3704  0.2103  0.5792
15797TIP3    H168806   5.541   4.351   4.209 -1.2747  0.3145 -0.1065
15797TIP3    H268807   5.583   4.364   4.064  0.3141 -0.0845  0.2955
15798TIP3   OH268808   1.337   5.272  14.864 -0.6247  0.0852 -0.2086
15798TIP3    H168809   1.322   5.315  14.948 -0.1902 -0.7344  0.2976
15798TIP3    H268810   1.410   5.321  14.825  0.5782 -0.8045  0.8367
15799TIP3   OH268811   5.620   2.946   6.525  0.5210  0.5177 -0.0699
15799TIP3    H168812   5.607   3.038   6.551  0.1841  0.4476  0.0243
15799TIP3    H268813   5.673   2.908   6.595 -0.1449  0.4012  0.3809
15800TIP3   OH268814   4.502   4.501  11.987  0.5983  0.5739  1.0295
15800TIP3    H168815   4.476   4.447  12.061 -0.3961 -0.7706 -0.2635
15800TIP3    H268816   4.565   4.447  11.939 -0.6080  0.4143 -0.4251
15801TIP3   OH268817   0.180   0.063  15.652 -0.1965 -0.2642  0.1203
15801TIP3    H168818   0.109   0.127  15.652 -0.9961 -1.1267 -0.1512
15801TIP3    H268819   0.212   0.062  15.743 -0.9072 -0.2592  0.3767
15802TIP3   OH268820   1.669   2.157  13.431 -0.1455 -1.1237  0.3178
15802TIP3    H168821   1.667   2.109  13.514 -0.7122  0.7483  1.4620
15802TIP3    H268822   1.739   2.221  13.442 -2.0661  1.0763  0.5928
15803TIP3   OH268823   3.341   4.834   6.094  0.3365 -0.1816 -0.2326
15803TIP3    H168824   3.342   4.743   6.125 -4.4739 -1.0045 -1.7077
15803TIP3    H268825   3.397   4.833   6.017  1.5601 -1.4411  0.6066
15804TIP3   OH268826   4.399   5.386  16.008  0.3747  0.1046  0.6008
15804TIP3    H168827   4.307   5.384  16.036  0.1614  1.1715  0.0515
15804TIP3    H268828   4.421   5.480  16.006  0.6719  0.0344 -1.8172
15805TIP3   OH268829   6.081   1.183   4.307 -0.2834 -0.5571 -0.2017
15805TIP3    H168830   6.162   1.224   4.275 -1.4369  0.8020 -1.5024
15805TIP3    H268831   6.032   1.254   4.347 -0.4573 -1.5589  1.4719
15806TIP3   OH268832   2.781   2.866  14.923  0.0475  0.8681 -0.7175
15806TIP3    H168833   2.782   2.895  15.014  0.4598  1.4600 -0.8999
15806TIP3    H268834   2.848   2.920  14.880  0.5189 -0.0557 -1.1717
15807TIP3   OH268835   0.219   2.938  16.174  0.3708  0.1737  0.7635
15807TIP3    H168836   0.264   2.854  16.187 -1.4335 -0.8013  1.0732
15807TIP3    H268837   0.214   2.948  16.079 -2.0271 -1.6417  0.6094
15808TIP3   OH268838   1.507   3.391  11.013 -0.1191 -0.1634  0.0582
15808TIP3    H168839   1.531   3.484  11.008  0.2035 -0.2712 -0.5472
15808TIP3    H268840   1.436   3.382  10.949  2.0677 -0.9868 -2.4210
15809TIP3   OH268841   6.316   2.467  17.392  0.2745  0.4228 -0.3196
15809TIP3    H168842   6.276   2.451  17.307 -0.4630  0.4720  0.0105
15809TIP3    H268843   6.256   2.528  17.436 -0.3227 -0.9882  0.9309
15810TIP3   OH268844   4.322   3.676   2.496 -0.3000 -0.1648 -0.1751
15810TIP3    H168845   4.239   3.699   2.538 -0.6203  0.1544 -0.9759
15810TIP3    H268846   4.340   3.587   2.526  0.2957  0.6098  1.9266
15811TIP3   OH268847   6.197   2.487  11.058 -0.2219  0.3487  0.2728
15811TIP3    H168848   6.136   2.486  11.132 -1.3758  1.8265 -0.6015
15811TIP3    H268849   6.234   2.575  11.059  0.8833 -0.1005 -0.0387
15812TIP3   OH268850   1.607   1.357  16.957 -0.0377 -0.4010 -0.2940
15812TIP3    H168851   1.570   1.420  17.018 -2.2759 -0.4749 -1.4779
15812TIP3    H268852   1.653   1.294  17.012 -1.8124 -0.3583  1.3092
15813TIP3   OH268853   1.442   5.889  12.342  0.6037  0.1166 -0.2076
15813TIP3    H168854   1.501   5.947  12.293 -1.0754  3.5474  1.4653
15813TIP3    H268855   1.360   5.938  12.348 -0.6233 -1.9942  2.3357
15814TIP3   OH268856   4.795   4.768   4.606  0.1480 -0.1889  0.3457
15814TIP3    H168857   4.774   4.678   4.580  0.6830 -0.9064  2.2004
15814TIP3    H268858   4.849   4.757   4.684 -0.0863  1.7751  0.8177
15815TIP3   OH268859   2.253   2.050   6.325 -0.0120  0.1521 -0.3602
15815TIP3    H168860   2.195   2.112   6.370  0.7967  0.0914  0.8153
15815TIP3    H268861   2.289   1.996   6.395 -1.1608 -2.0862 -1.3867
15816TIP3   OH268862   1.587   1.371   1.254 -0.0353  0.1148 -0.3097
15816TIP3    H168863   1.555   1.370   1.344 -0.1914  0.0049 -0.3668
15816TIP3    H268864   1.645   1.295   1.248  1.2299  1.0054  0.1527
15817TIP3   OH268865   2.637   6.707  14.442 -0.6697  0.2345  0.1586
15817TIP3    H168866   2.733   6.700  14.442 -0.6609  0.2335  0.7981
15817TIP3    H268867   2.620   6.800  14.426 -0.5614  0.2253 -0.0104
15818TIP3   OH268868   4.548   1.588  12.886  0.8191 -0.2851 -0.3463
15818TIP3    H168869   4.498   1.667  12.864  1.9617  0.2113 -1.2918
15818TIP3    H268870   4.574   1.551  12.801  2.2379 -0.3850  0.0995
15819TIP3   OH268871   0.178   2.770  15.368  0.4367 -0.7528 -0.5891
15819TIP3    H168872   0.138   2.857  15.358  1.2725 -0.1067  1.1515
15819TIP3    H268873   0.178   2.733  15.280 -0.2557  0.8718 -1.3191
15820TIP3   OH268874   0.080   2.363  12.349 -0.3859 -0.4467 -0.0372
15820TIP3    H168875   0.170   2.395  12.347 -0.5255 -0.0761 -0.6094
15820TIP3    H268876   0.066   2.325  12.263 -1.2658  0.9041 -0.5295
15821TIP3   OH268877   3.370   5.774  14.822 -0.5868 -0.1807 -0.3909
15821TIP3    H168878   3.384   5.708  14.755 -0.5243 -0.1482 -0.4087
15821TIP3    H268879   3.378   5.726  14.905  1.5662  0.2029 -0.3353
15822TIP3   OH268880   3.319   1.911   1.872 -0.4312  0.1931 -0.0897
15822TIP3    H168881   3.283   1.907   1.783  2.9370  0.1846 -1.5975
15822TIP3    H268882   3.368   1.830   1.882  2.3217  1.7712  0.2186
15823TIP3   OH268883   2.064   2.190  11.927  0.0545 -0.1872 -0.0500
15823TIP3    H168884   2.122   2.176  12.002 -0.6286 -1.3846  0.2777
15823TIP3    H268885   1.982   2.146  11.951 -0.2874 -0.3047 -1.3616
15824TIP3   OH268886   3.587   4.586  10.769 -0.1876 -0.5116 -0.1546
15824TIP3    H168887   3.658   4.589  10.705 -0.7928 -0.4400 -0.8360
15824TIP3    H268888   3.612   4.650  10.836 -0.2962  0.5865 -1.1219
15825TIP3   OH268889   5.679   1.284   0.667 -0.2023 -0.0488  0.1588
15825TIP3    H168890   5.709   1.308   0.755  1.0503 -2.0070  0.3113
15825TIP3    H268891   5.750   1.311   0.609 -1.6645  2.7105 -0.5710
15826TIP3   OH268892   6.620   5.448  16.823 -0.6954  0.0506 -0.3027
15826TIP3    H168893   6.676   5.372  16.805 -0.2583  0.3358 -0.1540
15826TIP3    H268894   6.531   5.414  16.816 -0.5152 -0.2578 -1.2057
15827TIP3   OH268895   2.523   2.781  12.931  0.0814  0.6689 -0.3225
15827TIP3    H168896   2.488   2.840  12.864 -1.2139  0.5689  0.2500
15827TIP3    H268897   2.447   2.755  12.982  1.0209  0.5533  1.0490
15828TIP3   OH268898   1.330   3.094   4.002 -0.6018 -0.3492  0.0335
15828TIP3    H168899   1.366   3.144   4.076  1.3785 -1.7865  0.1161
15828TIP3    H268900   1.242   3.129   3.990  0.3691  2.5637  0.6133
15829TIP3   OH268901   1.651   5.951  12.164  0.0321 -0.5680  0.4542
15829TIP3    H168902   1.738   5.921  12.192  0.0737  0.0634  1.0248
15829TIP3    H268903   1.668   6.025  12.107 -0.1350 -0.2214  0.8465
15830TIP3   OH268904   1.965   0.635  16.541 -0.1757 -0.0382  0.0222
15830TIP3    H168905   1.898   0.572  16.515 -0.6777 -0.0488  1.2638
15830TIP3    H268906   2.044   0.583  16.551 -0.5244 -0.4491  0.7653
15831TIP3   OH268907   0.109   4.358  16.188  0.7215 -0.0149 -0.0774
15831TIP3    H168908   0.155   4.440  16.173  0.6616 -0.1800 -1.2572
15831TIP3    H268909   0.025   4.369  16.144 -0.5729  0.4151  2.3445
15832TIP3   OH268910   2.767   3.528   0.538 -0.1854  0.3323 -0.0611
15832TIP3    H168911   2.681   3.553   0.571  0.2709  1.2945  0.4332
15832TIP3    H268912   2.774   3.571   0.453  0.6087  1.9855  0.7992
15833TIP3   OH268913   6.212   5.053   4.261  0.5775  0.5146  0.1625
15833TIP3    H168914   6.297   5.090   4.236  0.9575 -1.0124 -0.9623
15833TIP3    H268915   6.215   4.963   4.229 -1.4671  0.4173  0.1303
15834TIP3   OH268916   2.885   3.258  15.978  0.3473 -0.2556 -0.6880
15834TIP3    H168917   2.883   3.173  15.935 -0.4940 -0.3840 -0.4092
15834TIP3    H268918   2.804   3.301  15.951  0.4820  0.2213 -0.3491
15835TIP3   OH268919   6.119   6.514  16.470 -0.2615  0.0764 -0.3678
15835TIP3    H168920   6.068   6.485  16.395  0.3378  0.5418 -0.9639
15835TIP3    H268921   6.093   6.605  16.483 -0.5294 -0.0644  0.1384
15836TIP3   OH268922   1.143   3.755  16.596  0.0447 -0.0065  0.3759
15836TIP3    H168923   1.222   3.731  16.547  1.0437  3.0205  0.2726
15836TIP3    H268924   1.072   3.708  16.553  1.6122 -1.7508 -0.4126
15837TIP3   OH268925   3.128   4.143   5.175  0.1193 -0.5100 -0.4105
15837TIP3    H168926   3.150   4.200   5.102 -0.7154  0.9422  0.4081
15837TIP3    H268927   3.173   4.182   5.250  0.1226 -1.3631  0.0498
15838TIP3   OH268928   6.359   0.590  14.724 -0.2086 -0.6255  0.4489
15838TIP3    H168929   6.327   0.543  14.801 -0.6867  0.5268  0.9873
15838TIP3    H268930   6.428   0.534  14.688 -1.4329 -2.2050  0.4450
15839TIP3   OH268931   5.137   5.735   5.264 -0.1292  0.5235  0.6771
15839TIP3    H168932   5.084   5.815   5.258 -0.3601  0.3275 -0.0298
15839TIP3    H268933   5.224   5.767   5.290 -0.7197  0.7805  2.4359
15840TIP3   OH268934   5.265   0.953  12.091 -0.8333  0.1451 -0.0288
15840TIP3    H168935   5.285   1.045  12.075 -1.3524  0.0719 -1.2185
15840TIP3    H268936   5.341   0.906  12.059 -0.4454  0.1655  0.8452
15841TIP3   OH268937   1.256   3.365  12.407  0.1002  0.1025  0.4860
15841TIP3    H168938   1.335   3.315  12.385  0.1284 -0.3667  1.5601
15841TIP3    H268939   1.255   3.366  12.503 -0.1757  1.7578  0.4933
15842TIP3   OH268940   1.264   1.991   1.426  0.6460  0.0667 -0.1624
15842TIP3    H168941   1.284   2.058   1.491  1.1190  0.7062 -0.9470
15842TIP3    H268942   1.296   2.027   1.343 -0.3918 -0.5039 -0.8423
15843TIP3   OH268943   6.481   5.062  13.655  0.0019  0.5095 -0.2059
15843TIP3    H168944   6.520   5.131  13.602  2.4786 -0.2579  0.4929
15843TIP3    H268945   6.527   5.068  13.739 -0.6902 -1.1503  0.3264
15844TIP3   OH268946   0.321   1.063  14.199  0.0212  0.5597 -0.6558
15844TIP3    H168947   0.350   0.985  14.246 -0.7997 -0.4363 -1.7307
15844TIP3    H268948   0.229   1.074  14.225 -0.2052  0.4700 -1.3985
15845TIP3   OH268949   6.049   1.229  11.749  0.0633  0.2470  0.0136
15845TIP3    H168950   5.987   1.169  11.791 -0.3486  0.6393 -0.0251
15845TIP3    H268951   6.023   1.316  11.779 -0.3275  0.5541 -1.1302
15846TIP3   OH268952   2.546   3.837   0.659 -0.0982  0.2839 -0.1710
15846TIP3    H168953   2.592   3.800   0.734 -1.2256  2.2576  1.6104
15846TIP3    H268954   2.541   3.765   0.596  1.1998 -1.3527  1.4623
15847TIP3   OH268955   2.399   2.641   0.963  0.4251 -0.3409 -0.5052
15847TIP3    H168956   2.452   2.690   0.899  1.2518  0.3491  0.6611
15847TIP3    H268957   2.332   2.598   0.910  1.3846 -0.2084 -1.8960
15848TIP3   OH268958   3.458   2.906   4.892  0.0878  0.3241 -0.0371
15848TIP3    H168959   3.437   2.825   4.939  2.0187 -0.8899 -1.1625
15848TIP3    H268960   3.394   2.970   4.926 -0.7915 -1.3523  1.6791
15849TIP3   OH268961   0.306   6.484  16.707  0.1403 -0.2026  0.4593
15849TIP3    H168962   0.227   6.497  16.759  0.1670  2.1473  0.0342
15849TIP3    H268963   0.284   6.521  16.621  1.1981 -0.9618 -0.1649
15850TIP3   OH268964   2.926   5.215  11.250 -0.1447 -0.2065  0.4221
15850TIP3    H168965   3.003   5.162  11.230  0.3887  0.6194  0.2329
15850TIP3    H268966   2.877   5.218  11.168 -0.6817 -1.1824  0.6828
15851TIP3   OH268967   3.929   4.341   5.044  0.5120 -0.1698 -0.4308
15851TIP3    H168968   3.952   4.248   5.041 -0.6158 -0.4361 -2.3148
15851TIP3    H268969   3.852   4.345   5.101  0.9915 -0.2702  0.2357
15852TIP3   OH268970   3.845   2.935   0.804  0.1545 -0.1686 -0.1597
15852TIP3    H168971   3.750   2.938   0.806  0.1036 -0.9839 -0.5363
15852TIP3    H268972   3.869   2.981   0.723  0.0261 -0.6650 -0.4863
15853TIP3   OH268973   2.840   0.590  14.486  0.7421 -0.1958  0.6315
15853TIP3    H168974   2.934   0.581  14.477  0.9069  1.4417  0.4393
15853TIP3    H268975   2.807   0.582  14.396  0.8506  0.6517  0.5095
15854TIP3   OH268976   5.669   2.122   5.874  0.4551 -0.0352 -0.1597
15854TIP3    H168977   5.757   2.088   5.885  1.2268  1.6902 -0.7534
15854TIP3    H268978   5.634   2.077   5.797  1.0221 -0.3082 -0.2569
15855TIP3   OH268979   3.928   1.215   1.007 -0.3177 -0.3443  0.0113
15855TIP3    H168980   3.847   1.196   0.961 -0.6399  0.1783  0.3612
15855TIP3    H268981   3.913   1.183   1.096  0.0554 -0.7207 -0.0536
15856TIP3   OH268982   0.829   6.206   0.840  0.4590  0.1446 -0.2762
15856TIP3    H168983   0.923   6.211   0.858  0.6364  0.9252 -1.3793
15856TIP3    H268984   0.803   6.297   0.823 -0.3726 -0.1441 -0.5677
15857TIP3   OH268985   4.920   0.271  12.322 -0.2237  0.1370  0.1390
15857TIP3    H168986   4.879   0.316  12.395  0.2045  1.7212 -0.5492
15857TIP3    H268987   4.863   0.288  12.247 -0.1404 -0.6265 -0.1125
15858TIP3   OH268988   2.418   3.295  17.358 -0.0886 -0.5147 -0.4335
15858TIP3    H168989   2.348   3.349  17.321  0.3810 -0.6765 -1.6139
15858TIP3    H268990   2.372   3.228  17.408 -0.6784  0.9602  1.0855
15859TIP3   OH268991   3.611   3.575  15.480  0.5708 -0.0602 -0.3892
15859TIP3    H168992   3.520   3.546  15.491 -0.2437  2.0317 -1.0626
15859TIP3    H268993   3.645   3.580  15.569 -0.1575 -0.3150 -0.0819
15860TIP3   OH268994   2.966   3.960  13.847  0.1797  0.0841 -0.1111
15860TIP3    H168995   2.907   3.896  13.807  2.0981  0.1386 -3.4718
15860TIP3    H268996   2.910   4.016  13.901 -1.9712 -2.7152  0.7467
15861TIP3   OH268997   0.254   1.063   2.830 -0.1250 -0.0251 -0.0418
15861TIP3    H168998   0.305   1.117   2.770  1.7772 -1.3350  0.2850
15861TIP3    H268999   0.195   1.014   2.773 -0.8068  1.2493 -0.4732
15862TIP3   OH269000   3.560   5.673  13.375  0.1087 -0.3629 -0.1941
15862TIP3    H169001   3.551   5.608  13.445  0.3858  0.1467  0.3201
15862TIP3    H269002   3.622   5.737  13.410  0.2238 -0.0845 -0.8979
15863TIP3   OH269003   3.479   5.236   2.475 -0.2355 -0.7275 -0.5346
15863TIP3    H169004   3.517   5.151   2.454  2.5102  0.2948 -0.0244
15863TIP3    H269005   3.540   5.300   2.440 -1.5242  1.0567  0.3070
15864TIP3   OH269006   6.411   2.549   5.400  0.0055  0.0133  0.1718
15864TIP3    H169007   6.399   2.644   5.396 -2.1027 -0.2002  0.2772
15864TIP3    H269008   6.395   2.527   5.491  0.5287 -0.4599  0.1543
15865TIP3   OH269009   1.559   5.012  16.274 -0.2558  0.6649 -0.1453
15865TIP3    H169010   1.609   4.931  16.286  1.8765  2.0258  0.5766
15865TIP3    H269011   1.481   5.000  16.328 -0.8317 -1.5490 -1.3497
15866TIP3   OH269012   3.001   6.421  17.359 -0.1525  0.3860 -0.2376
15866TIP3    H169013   3.048   6.419  17.275 -2.0014  0.3504 -1.3123
15866TIP3    H269014   2.929   6.483  17.345 -1.9053 -1.3771  0.5274
15867TIP3   OH269015   5.660   5.751   5.733 -0.2071  0.6075 -0.1592
15867TIP3    H169016   5.600   5.678   5.717  0.7893 -0.1300 -0.6463
15867TIP3    H269017   5.649   5.771   5.826 -1.1763  0.4653 -0.2313
15868TIP3   OH269018   1.992   1.254  11.834 -0.2742 -0.0155  0.3108
15868TIP3    H169019   2.082   1.283  11.817 -0.4388  0.3837  0.1152
15868TIP3    H269020   1.941   1.335  11.834 -0.4845 -0.1262  1.4086
15869TIP3   OH269021   3.465   0.414   3.757 -0.2341 -0.2266  0.1888
15869TIP3    H169022   3.473   0.349   3.687 -0.0163 -0.8282  0.7595
15869TIP3    H269023   3.527   0.482   3.734 -0.3876 -0.2745 -0.3670
15870TIP3   OH269024   4.353   4.489   3.961  1.0183 -0.5903  0.3538
15870TIP3    H169025   4.390   4.408   3.995  0.2236 -0.4799  1.5706
15870TIP3    H269026   4.395   4.502   3.876 -0.1827 -3.2462 -0.7589
15871TIP3   OH269027   6.182   3.585   4.182  0.2183  0.0248  0.8804
15871TIP3    H169028   6.210   3.677   4.190 -0.7025  0.3486  0.5138
15871TIP3    H269029   6.263   3.537   4.163  0.2803  1.2282 -2.6543
15872TIP3   OH269030   1.618   0.508   0.098 -0.1771 -0.2510 -0.4295
15872TIP3    H169031   1.695   0.451   0.101  0.5677  0.7433  0.7492
15872TIP3    H269032   1.644   0.581   0.041  0.4414  0.9320  1.2666
15873TIP3   OH269033   1.619   2.083  13.167 -0.0572 -0.1084  0.3089
15873TIP3    H169034   1.640   2.142  13.238 -1.4002 -0.9473  1.4634
15873TIP3    H269035   1.581   2.006  13.210  1.2867 -1.6761 -1.1494
15874TIP3   OH269036   0.015   3.501  14.241 -0.0861 -0.2124  0.8182
15874TIP3    H169037  -0.064   3.553  14.233  0.2639  0.4903  1.8002
15874TIP3    H269038  -0.016   3.410  14.245 -0.8274  0.0428  0.9684
15875TIP3   OH269039   0.012   0.811  14.942 -0.5808  0.1431  0.3533
15875TIP3    H169040   0.066   0.851  15.011  0.8907 -0.7798 -0.2005
15875TIP3    H269041   0.037   0.719  14.944 -1.6157 -0.1623 -0.4481
15876TIP3   OH269042   0.790   5.253   0.309 -0.3513 -0.0410 -0.4541
15876TIP3    H169043   0.880   5.283   0.316  0.1824 -1.6935  0.2162
15876TIP3    H269044   0.791   5.163   0.343 -2.3286  0.0489  0.0010
15877TIP3   OH269045   5.203   1.679  14.981  0.2800  0.1103 -0.0765
15877TIP3    H169046   5.148   1.745  14.941  0.0142  1.2122  1.9432
15877TIP3    H269047   5.287   1.686  14.936  0.3707  2.1118  0.3304
15878TIP3   OH269048   2.443   0.431  16.448 -0.6282  0.4518  0.0713
15878TIP3    H169049   2.513   0.411  16.511 -0.3652  1.1785  0.0197
15878TIP3    H269050   2.488   0.477  16.377 -1.2713  1.6330  0.4007
15879TIP3   OH269051   3.761   4.408   6.809  0.3391  0.4140  0.2114
15879TIP3    H169052   3.762   4.336   6.746  1.5781  0.7958 -0.2372
15879TIP3    H269053   3.669   4.417   6.833  0.2640 -1.9310  1.0326
15880TIP3   OH269054   2.392   5.861  12.935 -0.7389  0.3717 -0.1294
15880TIP3    H169055   2.421   5.773  12.958 -0.9048  0.2828 -0.2634
15880TIP3    H269056   2.385   5.906  13.020 -0.5741  0.2824 -0.0682
15881TIP3   OH269057   5.084   3.770   6.287 -0.3641 -0.1392 -0.0388
15881TIP3    H169058   5.057   3.688   6.328 -0.3018  0.5311  1.4272
15881TIP3    H269059   5.180   3.766   6.286 -0.3332 -1.4444 -2.9758
15882TIP3   OH269060   1.503   5.781   1.573  0.1196  0.2220 -0.9976
15882TIP3    H169061   1.552   5.850   1.528  1.0521  0.0437 -0.2693
15882TIP3    H269062   1.502   5.708   1.511 -0.6580  0.7822 -1.6735
15883TIP3   OH269063   0.807   2.086  14.941 -0.2238 -0.7306 -0.5898
15883TIP3    H169064   0.790   2.123  15.028  0.4285 -0.8247 -0.4174
15883TIP3    H269065   0.777   2.154  14.881  1.0376  0.1542 -0.2754
15884TIP3   OH269066   6.338   5.335  11.537  0.0125 -0.0586 -0.3996
15884TIP3    H169067   6.399   5.272  11.499  1.2708  0.8682  0.0062
15884TIP3    H269068   6.298   5.288  11.610 -0.5384 -1.0108 -1.2883
15885TIP3   OH269069   4.189   6.125   1.195 -0.3497 -0.6597 -0.1123
15885TIP3    H169070   4.186   6.194   1.261 -0.8831 -0.8360  0.0539
15885TIP3    H269071   4.269   6.076   1.214 -0.3038 -0.4777  0.1626
15886TIP3   OH269072   0.841   4.286   0.835  0.5466 -0.2475  0.0167
15886TIP3    H169073   0.889   4.311   0.914  2.0989 -0.4179 -0.8428
15886TIP3    H269074   0.785   4.213   0.864  1.6280 -0.7982  0.7976
15887TIP3   OH269075   5.819   0.796   3.962  0.3894 -0.0299 -0.4773
15887TIP3    H169076   5.861   0.781   3.877 -0.3240 -3.6367 -0.3220
15887TIP3    H269077   5.883   0.765   4.026 -1.3117 -3.0964 -0.1058
15888TIP3   OH269078   6.536   0.371  13.281  0.5112  0.3491 -0.4846
15888TIP3    H169079   6.550   0.435  13.211 -1.4840 -0.5818 -1.8213
15888TIP3    H269080   6.504   0.293  13.236 -1.4792 -0.0821  1.5081
15889TIP3   OH269081   2.003   6.414  17.115 -0.1092 -0.0908  0.6267
15889TIP3    H169082   1.998   6.319  17.103  1.8174 -0.1002 -0.6120
15889TIP3    H269083   2.094   6.435  17.094 -1.5554  2.6569 -4.5795
15890TIP3   OH269084   6.253   3.754  13.943 -0.3198  0.3359  0.0210
15890TIP3    H169085   6.315   3.713  13.882  1.9147  2.2851  0.7801
15890TIP3    H269086   6.278   3.720  14.029 -0.2264  1.1802  0.3404
15891TIP3   OH269087   4.122   6.400  17.329  0.0545 -0.3147  0.6409
15891TIP3    H169088   4.213   6.425  17.339  0.7634 -3.0345  1.6679
15891TIP3    H269089   4.124   6.322  17.274 -1.7778  0.1919 -0.2417
15892TIP3   OH269090   4.819   3.208   5.536  0.2082 -0.2061 -0.2578
15892TIP3    H169091   4.746   3.155   5.503 -1.0146  1.2736 -0.0381
15892TIP3    H269092   4.833   3.274   5.468 -1.6249  2.2136  1.5029
15893TIP3   OH269093   5.898   0.012   2.636 -0.1178  0.0025  0.1077
15893TIP3    H169094   5.987   0.015   2.670 -0.5150  0.2689  1.1549
15893TIP3    H269095   5.859  -0.066   2.675 -0.8981  0.8719  1.1075
15894TIP3   OH269096   3.346   1.083  17.197 -0.1789  0.3713 -0.0708
15894TIP3    H169097   3.273   1.101  17.137 -0.1102  1.3128  0.1015
15894TIP3    H269098   3.358   0.988  17.193  0.3245  0.4759 -2.1549
15895TIP3   OH269099   4.849   5.581  13.199  0.0545  0.0312 -0.4888
15895TIP3    H169100   4.883   5.528  13.271 -1.1436 -0.3240 -0.1673
15895TIP3    H269101   4.914   5.651  13.188 -0.2839  0.7686  1.7263
15896TIP3   OH269102   4.850   1.728  14.837 -0.3937  0.2813 -0.5984
15896TIP3    H169103   4.893   1.658  14.886 -4.2598 -0.6351  1.9548
15896TIP3    H269104   4.792   1.683  14.776 -2.4716  1.1177  0.6315
15897TIP3   OH269105   3.784   5.287   5.140 -0.6788  0.1355 -0.0083
15897TIP3    H169106   3.743   5.361   5.096  0.0770  0.4085 -0.2706
15897TIP3    H269107   3.865   5.272   5.092 -0.5055 -0.4420  0.4487
15898TIP3   OH269108   6.109   2.558  15.220  0.0793 -0.1402  0.1031
15898TIP3    H169109   6.179   2.494  15.211  1.6167  1.4806  0.1805
15898TIP3    H269110   6.040   2.526  15.161  2.1149 -0.1354 -2.4517
15899TIP3   OH269111   6.260   1.290  16.231 -0.0848 -0.3387  0.2284
15899TIP3    H169112   6.182   1.294  16.287  0.9721 -0.3663  1.7560
15899TIP3    H269113   6.227   1.309  16.143 -1.6376  0.8165  1.0092
15900TIP3   OH269114   0.037   4.121  11.829 -0.2493 -0.1734  0.0642
15900TIP3    H169115   0.074   4.159  11.749 -1.4287  0.0075 -0.4106
15900TIP3    H269116   0.077   4.172  11.900  0.5117 -0.0804 -0.4174
15901TIP3   OH269117   2.485   1.496   5.877 -0.3843 -0.6118  0.1884
15901TIP3    H169118   2.401   1.504   5.832 -1.0866 -0.7251  1.4373
15901TIP3    H269119   2.474   1.543   5.959  0.3899 -1.5775  0.8841
15902TIP3   OH269120   2.937   2.460  16.735  0.1122 -0.3683  0.0206
15902TIP3    H169121   3.010   2.507  16.776 -0.5963 -0.4803  1.4645
15902TIP3    H269122   2.943   2.371  16.769 -0.4194 -0.5065 -0.2370
15903TIP3   OH269123   3.530   1.812   3.416 -0.1231 -0.1856 -0.5257
15903TIP3    H169124   3.525   1.795   3.322  0.9531  1.4132 -0.9121
15903TIP3    H269125   3.608   1.766   3.445  0.5358  0.7265 -0.7899
15904TIP3   OH269126   2.915   2.186   4.578  0.3172 -0.5832  0.2214
15904TIP3    H169127   2.922   2.274   4.614 -0.2402 -0.0465 -0.9388
15904TIP3    H269128   2.827   2.156   4.604 -1.0884  0.7358 -2.5690
15905TIP3   OH269129   2.548   4.695   2.707 -0.4088 -0.3044  0.1586
15905TIP3    H169130   2.638   4.692   2.676 -0.3021 -0.6092  0.4846
15905TIP3    H269131   2.498   4.644   2.643  0.1368 -2.7026  1.5217
15906TIP3   OH269132   4.259   1.497   6.458  0.3265 -0.2519 -0.9663
15906TIP3    H169133   4.217   1.516   6.541  1.0243  0.0215 -0.6705
15906TIP3    H269134   4.189   1.501   6.393 -0.0262  0.5925 -0.5350
15907TIP3   OH269135   0.942   4.546   6.534  0.6665 -1.2290  0.0520
15907TIP3    H169136   1.011   4.592   6.487 -0.7493  1.2017  0.2052
15907TIP3    H269137   0.983   4.465   6.563  3.8167  0.6052  1.1792
15908TIP3   OH269138   1.440   0.071   0.154 -0.4531  0.1623 -0.1076
15908TIP3    H169139   1.411   0.147   0.205 -0.3638  1.0668 -1.3822
15908TIP3    H269140   1.489   0.107   0.081  0.3402 -1.1734 -0.2700
15909TIP3   OH269141   5.156   1.348  16.908 -0.1231  0.2729  0.3643
15909TIP3    H169142   5.249   1.328  16.914 -0.1917 -0.2211 -0.1300
15909TIP3    H269143   5.130   1.316  16.822 -0.5544  1.2420  0.1184
15910TIP3   OH269144   2.334   0.057  10.951 -0.2837  0.2439 -0.0551
15910TIP3    H169145   2.306   0.140  10.913 -0.7457  0.6915  1.2310
15910TIP3    H269146   2.421   0.076  10.988  0.7757 -0.5360 -1.9801
15911TIP3   OH269147   0.549   2.882  12.334 -0.2892 -0.2607 -0.2959
15911TIP3    H169148   0.518   2.972  12.340  0.2673 -0.0816 -0.1038
15911TIP3    H269149   0.640   2.889  12.308 -0.2138 -0.7664 -0.1798
15912TIP3   OH269150   5.208   5.637   0.386  0.2321 -0.1271 -0.9662
15912TIP3    H169151   5.288   5.589   0.363 -0.2723 -0.7319 -1.4934
15912TIP3    H269152   5.170   5.585   0.458 -1.0009 -1.3024 -2.4069
15913TIP3   OH269153   0.996   4.896   4.347  0.4417  0.0147 -0.1240
15913TIP3    H169154   0.994   4.949   4.267 -0.4583 -0.7183 -0.6098
15913TIP3    H269155   0.935   4.940   4.406 -0.4483 -0.5417 -0.5949
15914TIP3   OH269156   6.129   4.473  14.494  0.3538  0.3711 -0.1166
15914TIP3    H169157   6.037   4.484  14.516 -0.1417 -2.3439 -0.5026
15914TIP3    H269158   6.128   4.422  14.413  2.1878 -0.3479  0.2724
15915TIP3   OH269159   2.757   4.519  13.568 -0.7055 -0.1613  0.3700
15915TIP3    H169160   2.670   4.552  13.547 -0.1790  0.1954 -1.4436
15915TIP3    H269161   2.799   4.591  13.615 -0.5629  0.6955 -0.9911
15916TIP3   OH269162   6.351   5.653   0.686 -0.4651 -0.4516  0.0454
15916TIP3    H169163   6.433   5.657   0.638  0.1507  0.5236  1.1155
15916TIP3    H269164   6.368   5.593   0.759  0.4022  2.1821  2.1429
15917TIP3   OH269165   3.305   5.297   5.661  0.5873  0.4189 -0.1195
15917TIP3    H169166   3.307   5.246   5.743  2.0551 -0.0676 -0.4280
15917TIP3    H269167   3.247   5.371   5.680 -0.5177 -0.6331  0.7829
15918TIP3   OH269168   4.877   0.553  16.743  0.3117 -0.7987 -0.3533
15918TIP3    H169169   4.873   0.597  16.658  1.2380 -0.4191 -0.2017
15918TIP3    H269170   4.964   0.514  16.747  0.0320 -1.4039  0.1426
15919TIP3   OH269171   3.546   5.898   1.386  0.5700  0.0384 -0.1559
15919TIP3    H169172   3.501   5.841   1.323  0.4105  0.1201 -0.1175
15919TIP3    H269173   3.559   5.843   1.463  2.2677 -0.5728 -0.8504
15920TIP3   OH269174   6.370   6.553   3.970  0.4354  0.3041  0.0062
15920TIP3    H169175   6.315   6.478   3.947 -0.5314  0.6144  1.2160
15920TIP3    H269176   6.341   6.623   3.911  0.6115  0.0374 -0.4029
15921TIP3   OH269177   3.653   1.481  13.193 -0.3328  0.1108 -0.3960
15921TIP3    H169178   3.736   1.465  13.147 -0.1500  1.4417 -0.5669
15921TIP3    H269179   3.658   1.572  13.221 -1.7878  0.2362 -0.4778
15922TIP3   OH269180   5.111   1.908   1.393 -0.4467  0.0270  0.0328
15922TIP3    H169181   5.072   1.851   1.458 -0.2824 -1.0562 -0.7930
15922TIP3    H269182   5.205   1.894   1.401 -0.4761 -1.5148 -1.6086
15923TIP3   OH269183   2.939   2.279   0.512  0.4724  0.0297 -0.1391
15923TIP3    H169184   2.951   2.368   0.479 -4.5450  0.2766 -2.0247
15923TIP3    H269185   2.954   2.223   0.436  0.1163 -0.4536  0.1474
15924TIP3   OH269186   0.093   2.694   1.932 -0.1318  0.1576 -0.1575
15924TIP3    H169187   0.046   2.745   1.997  0.0959 -0.0578  0.1807
15924TIP3    H269188   0.090   2.747   1.853  0.5957  0.9594  0.3374
15925TIP3   OH269189   5.022   1.142  11.309  0.2397  0.0993 -0.5003
15925TIP3    H169190   5.111   1.107  11.310  0.0727 -0.4498  1.5992
15925TIP3    H269191   4.968   1.070  11.276  0.3624 -0.3102  0.1614
15926TIP3   OH269192   3.863   5.656   1.055 -0.0941 -0.2119  0.2636
15926TIP3    H169193   3.905   5.698   1.129 -0.4634  0.3497  0.1567
15926TIP3    H269194   3.783   5.706   1.040  0.9352  0.9379 -1.7631
15927TIP3   OH269195   6.630   6.496  13.979 -0.0208  0.1576 -0.6309
15927TIP3    H169196   6.549   6.447  13.964 -0.3032  0.8446 -1.4614
15927TIP3    H269197   6.698   6.429  13.983 -0.6257 -0.4340  0.1377
15928TIP3   OH269198   4.285   4.927  15.674  0.6506  0.4463  0.4920
15928TIP3    H169199   4.223   4.993  15.705  0.0760 -0.0258  0.3597
15928TIP3    H269200   4.365   4.977  15.654  1.0053  0.8075  2.5537
15929TIP3   OH269201   0.366   4.821   3.099  0.1242  0.1676  0.8622
15929TIP3    H169202   0.414   4.820   3.016 -0.3118 -0.6806  0.6043
15929TIP3    H269203   0.382   4.735   3.137  0.0970  0.4556  1.5318
15930TIP3   OH269204   3.000   3.478   3.042 -0.1974 -0.1349 -0.0260
15930TIP3    H169205   2.959   3.545   3.097 -0.3153  0.3546 -0.6911
15930TIP3    H269206   3.062   3.434   3.099 -0.2596  0.4192  0.4731
15931TIP3   OH269207   2.753   1.896  14.061 -0.4826  0.2790 -0.3103
15931TIP3    H169208   2.768   1.866  14.150  0.3742  0.3095 -0.4362
15931TIP3    H269209   2.683   1.961  14.069 -1.0893 -0.4214  0.1970
15932TIP3   OH269210   4.794   3.699  12.616  0.7219  0.2164 -0.1685
15932TIP3    H169211   4.701   3.716  12.631  0.8220  1.4260 -0.8476
15932TIP3    H269212   4.796   3.643  12.538  0.5901  0.8404 -0.6264
15933TIP3   OH269213   5.760   2.102   3.898 -0.5168 -0.0233 -0.0691
15933TIP3    H169214   5.851   2.131   3.886 -0.7128  0.4279 -0.5417
15933TIP3    H269215   5.751   2.088   3.992  0.2798 -0.8804 -0.1128
15934TIP3   OH269216   0.451   1.966   0.011  0.2349  0.2917 -0.0677
15934TIP3    H169217   0.441   1.893  -0.051 -1.2247  0.9012 -0.5833
15934TIP3    H269218   0.362   1.994   0.030  0.6966  0.7401  1.6061
15935TIP3   OH269219   1.550   3.937   4.407 -0.7334  0.1328  0.7208
15935TIP3    H169220   1.574   4.021   4.369 -1.9263  1.1148  2.0381
15935TIP3    H269221   1.559   3.874   4.335  0.8022  1.2560 -0.1130
15936TIP3   OH269222   0.618   1.608  15.504 -0.2200  0.6366  0.1142
15936TIP3    H169223   0.685   1.665  15.542 -1.3115  0.8015  1.9421
15936TIP3    H269224   0.580   1.660  15.433  0.1156  1.4272  0.4929
15937TIP3   OH269225   6.351   6.470  17.177  0.5335  0.2196  0.6746
15937TIP3    H169226   6.401   6.432  17.250  1.7889  3.1414  1.4840
15937TIP3    H269227   6.267   6.495  17.215  1.7116  3.0782  1.6685
15938TIP3   OH269228   6.324   5.030   3.739 -0.4622 -0.0597  0.3518
15938TIP3    H169229   6.359   4.971   3.805  1.5752 -0.3358 -0.9023
15938TIP3    H269230   6.331   4.981   3.657 -2.2969  0.5262 -0.2198
15939TIP3   OH269231   2.884   2.111  14.957 -0.0683  0.2801  0.6734
15939TIP3    H169232   2.789   2.115  14.970 -0.4193  0.5494 -1.5487
15939TIP3    H269233   2.904   2.189  14.906  1.3716  0.2482  1.1547
15940TIP3   OH269234   5.010   4.161  17.029  0.2992  0.0352  0.3758
15940TIP3    H169235   5.069   4.110  17.084  2.4494 -0.0989 -1.8810
15940TIP3    H269236   5.052   4.246  17.020 -0.4860  0.3652 -0.2886
15941TIP3   OH269237   0.385   4.015   0.854 -0.5550 -0.3140  0.0321
15941TIP3    H169238   0.351   3.931   0.884 -1.0154 -0.1051  0.1156
15941TIP3    H269239   0.391   4.006   0.759 -2.5519  0.2202 -0.1960
15942TIP3   OH269240   0.096   6.743   2.216  0.0578 -0.6438 -0.7663
15942TIP3    H169241   0.106   6.789   2.298 -3.0766 -3.9817  1.8442
15942TIP3    H269242   0.030   6.793   2.167 -1.7790 -1.1210  1.0885
15943TIP3   OH269243   2.578   3.946  12.660 -0.2145 -0.0758 -0.7804
15943TIP3    H169244   2.555   3.859  12.625  1.0455 -0.0121 -1.8388
15943TIP3    H269245   2.657   3.930  12.713 -0.8985  0.1854  0.3514
15944TIP3   OH269246   5.866   0.844   2.292  0.4091  0.4343  0.0690
15944TIP3    H169247   5.939   0.868   2.235  0.2736  1.2793  0.2352
15944TIP3    H269248   5.851   0.922   2.346  1.0805 -0.6263  1.8756
15945TIP3   OH269249   3.666   2.897   0.020  0.9914  0.2015  0.1423
15945TIP3    H169250   3.628   2.887   0.107  1.0608  0.2080  0.1737
15945TIP3    H269251   3.623   2.830  -0.033  0.6448  0.4739  0.0803
15946TIP3   OH269252   4.862   0.281   4.621  0.4053 -0.8286  0.1404
15946TIP3    H169253   4.893   0.228   4.547 -1.1455 -1.7800  0.1309
15946TIP3    H269254   4.887   0.370   4.599  1.5067 -1.3116 -0.6989
15947TIP3   OH269255   4.778   4.949  16.343  1.1421 -0.4261  0.3457
15947TIP3    H169256   4.841   4.986  16.281 -1.0352  1.2893 -0.9813
15947TIP3    H269257   4.813   4.972  16.429  1.9930  1.0796 -0.3628
15948TIP3   OH269258   1.207   1.908   3.181 -0.6045  0.0463  0.0057
15948TIP3    H169259   1.281   1.854   3.209 -1.1158  0.0649  1.4417
15948TIP3    H269260   1.237   1.998   3.193 -0.4139  0.0799 -0.6511
15949TIP3   OH269261   6.286   1.860  15.173  0.4589  0.2405 -0.0667
15949TIP3    H169262   6.246   1.876  15.088  1.8181  0.2159 -0.7350
15949TIP3    H269263   6.315   1.769  15.169  0.5231  0.2375  0.4277
15950TIP3   OH269264   3.350   6.521  16.168 -0.0759  0.1799 -0.5440
15950TIP3    H169265   3.307   6.499  16.250 -0.4478 -0.0928 -0.8088
15950TIP3    H269266   3.394   6.604  16.186 -1.9561  1.2664 -0.6850
15951TIP3   OH269267   5.213   2.506   0.388 -0.0953  0.0604 -0.1823
15951TIP3    H169268   5.184   2.423   0.349  0.4683 -0.6386  0.8577
15951TIP3    H269269   5.249   2.555   0.314 -0.2727 -0.6942 -0.7835
15952TIP3   OH269270   1.240   0.399  17.245  0.0918  0.0263 -0.0179
15952TIP3    H169271   1.185   0.365  17.175 -1.1295 -3.9085  2.5071
15952TIP3    H269272   1.182   0.456  17.296  0.0756  0.4446 -0.4997
15953TIP3   OH269273   2.615   1.336  16.388  0.4460  0.0913  0.1486
15953TIP3    H169274   2.699   1.343  16.433  1.7671 -1.5561 -1.8699
15953TIP3    H269275   2.628   1.383  16.306  0.5098 -2.6486 -1.5400
15954TIP3   OH269276   3.831   3.302  13.473 -0.2782 -0.4532  0.2651
15954TIP3    H169277   3.865   3.315  13.562 -1.5441  1.1598  0.5717
15954TIP3    H269278   3.770   3.229  13.481 -1.7076  0.7660  1.1727
15955TIP3   OH269279   1.910   5.490  12.402  0.5819  0.6307 -0.1653
15955TIP3    H169280   1.902   5.484  12.307  1.2475  1.7606 -0.3167
15955TIP3    H269281   1.898   5.401  12.433 -0.8733  0.4361 -1.2080
15956TIP3   OH269282   5.299   6.162   3.655 -0.4948  0.7320  0.0042
15956TIP3    H169283   5.338   6.164   3.742 -2.9668 -0.4558  1.2212
15956TIP3    H269284   5.216   6.208   3.663  0.5661  3.4284 -2.5799
15957TIP3   OH269285   1.043   2.807   6.007  0.4968 -0.8919 -0.1461
15957TIP3    H169286   1.006   2.809   6.095 -2.0780 -1.1886 -1.1283
15957TIP3    H269287   1.062   2.715   5.990  0.6085 -0.8845 -0.0629
15958TIP3   OH269288   2.701   4.509   0.199 -0.1749 -0.5410  0.6461
15958TIP3    H169289   2.689   4.487   0.107 -0.1666 -0.4714  0.6288
15958TIP3    H269290   2.696   4.604   0.202  2.6751 -0.3055  0.3195
15959TIP3   OH269291   4.245   1.182   5.748 -0.0912 -0.2955  0.3916
15959TIP3    H169292   4.257   1.138   5.832 -0.8792  2.7110  2.2304
15959TIP3    H269293   4.326   1.230   5.734 -0.0467 -0.6105 -0.5059
15960TIP3   OH269294   2.740   1.328   6.026  0.0405  0.6554  0.0503
15960TIP3    H169295   2.832   1.317   6.001  0.0378  2.1382 -0.6767
15960TIP3    H269296   2.693   1.267   5.969  0.6056 -0.6940  0.9603
15961TIP3   OH269297   6.177   0.012  16.963 -0.1459  0.2151  0.1030
15961TIP3    H169298   6.105  -0.013  16.905  0.4974  0.4307 -0.8317
15961TIP3    H269299   6.142   0.006  17.051 -0.5481 -2.2070 -0.1645
15962TIP3   OH269300   4.704   1.156   5.692 -0.4960  0.0599 -0.1897
15962TIP3    H169301   4.776   1.119   5.744 -0.9710 -0.4450  0.1228
15962TIP3    H269302   4.658   1.213   5.753  0.8038  1.9654 -0.9298
15963TIP3   OH269303   2.485   1.855   1.057  0.0720 -0.1527  0.4511
15963TIP3    H169304   2.478   1.769   1.015  1.3081  0.2328 -0.6221
15963TIP3    H269305   2.429   1.912   1.006  1.2458  0.2225 -0.4629
15964TIP3   OH269306   3.263   5.414  12.673  0.1699  0.0948  0.1783
15964TIP3    H169307   3.279   5.320  12.667 -1.2688 -0.3404  2.0713
15964TIP3    H269308   3.188   5.429  12.615 -0.5945 -0.2577  1.0399
15965TIP3   OH269309   5.483   4.556   0.252  0.2627  0.2871 -0.1889
15965TIP3    H169310   5.555   4.613   0.225  0.2333 -0.4276 -1.8955
15965TIP3    H269311   5.404   4.605   0.229  0.2351 -0.0356 -0.8110
15966TIP3   OH269312   1.053   5.367  14.212 -0.2733  0.1056  0.0574
15966TIP3    H169313   1.085   5.397  14.127 -0.4207  1.4637  0.4593
15966TIP3    H269314   1.132   5.343  14.260 -0.0903  0.4471 -0.0625
15967TIP3   OH269315   2.604   2.134   1.519 -0.0326  0.7367 -0.4297
15967TIP3    H169316   2.578   2.153   1.429  3.1571  1.1117 -1.3667
15967TIP3    H269317   2.587   2.040   1.529 -0.7968  0.7710 -1.2406
15968TIP3   OH269318   1.219   2.489   5.724 -0.1507  0.3191  1.0024
15968TIP3    H169319   1.195   2.553   5.657 -2.9372  0.0331  1.6228
15968TIP3    H269320   1.211   2.404   5.680  2.3837  0.2383  0.5233
15969TIP3   OH269321   2.145   1.213   2.005  0.1289 -0.1443 -0.0458
15969TIP3    H169322   2.167   1.121   2.023 -1.2046 -0.1916  1.6448
15969TIP3    H269323   2.174   1.260   2.084 -1.0995  0.5437  0.0220
15970TIP3   OH269324   3.726   3.134  12.953  0.3087 -0.4995 -0.1158
15970TIP3    H169325   3.641   3.107  12.988  0.4857 -0.7408  0.1341
15970TIP3    H269326   3.708   3.217  12.909  0.1777  0.0857  0.9945
15971TIP3   OH269327   6.397   6.153   2.683  0.4085  1.1138  0.2285
15971TIP3    H169328   6.420   6.236   2.725  1.8691 -0.1197  2.0110
15971TIP3    H269329   6.482   6.112   2.663 -0.2825  0.0956 -0.7265
15972TIP3   OH269330   1.516   0.558  13.584  0.3751  0.5709 -0.4845
15972TIP3    H169331   1.521   0.473  13.627 -0.4054  0.5051 -0.5070
15972TIP3    H269332   1.580   0.554  13.514  0.4386  0.0513 -0.3962
15973TIP3   OH269333   0.946   1.836  12.661 -0.4432 -0.5520 -0.0261
15973TIP3    H169334   0.876   1.851  12.725  0.1207 -1.0290  0.7287
15973TIP3    H269335   0.901   1.824  12.578 -1.1861  0.3375  0.2275
15974TIP3   OH269336   4.041   5.270   5.394  0.3897  0.0520  0.0175
15974TIP3    H169337   3.982   5.195   5.396 -0.6399  0.4850 -4.0218
15974TIP3    H269338   3.983   5.347   5.403  0.5901  0.4074 -1.3939
15975TIP3   OH269339   0.277   4.518  13.064 -0.1376  0.1120 -0.3250
15975TIP3    H169340   0.189   4.514  13.028  0.3402  0.4495 -1.5917
15975TIP3    H269341   0.300   4.611  13.061  0.3925 -0.0147 -0.3496
15976TIP3   OH269342   0.119   2.297  14.731 -0.2427  0.6481  0.1315
15976TIP3    H169343   0.124   2.338  14.817 -0.4899  2.3912 -0.6256
15976TIP3    H269344   0.048   2.343  14.687  0.0918  0.0191 -1.1187
15977TIP3   OH269345   2.748   2.595   4.783  0.1465  0.1607  0.0087
15977TIP3    H169346   2.809   2.538   4.735  0.3020 -1.4349  1.9533
15977TIP3    H269347   2.661   2.569   4.752  0.2603 -0.5833  0.2998
15978TIP3   OH269348   2.589   5.087  17.107 -0.5701 -0.1227  0.0559
15978TIP3    H169349   2.541   5.016  17.150 -0.1215  0.7586  2.1439
15978TIP3    H269350   2.568   5.077  17.014 -0.8463 -2.7327  0.3022
15979TIP3   OH269351   2.934   2.829  14.259 -0.2019  0.3293 -1.0907
15979TIP3    H169352   2.858   2.809  14.205 -0.4372  0.2490 -0.7325
15979TIP3    H269353   2.998   2.761  14.236 -0.4205  0.1040 -1.0288
15980TIP3   OH269354   3.091   3.270   1.905  0.1793  0.4846  0.3944
15980TIP3    H169355   3.162   3.298   1.847 -0.2243 -0.2920 -0.5018
15980TIP3    H269356   3.022   3.334   1.890  0.6323  1.1988  1.2134
15981TIP3   OH269357   2.654   0.077   1.063 -0.5018 -0.1040  0.1720
15981TIP3    H169358   2.562   0.058   1.043 -0.2442 -0.6176 -0.5733
15981TIP3    H269359   2.694  -0.008   1.078 -0.1198  0.1085  0.3849
15982TIP3   OH269360   1.709   3.682  11.167  0.5166  0.4405 -0.3141
15982TIP3    H169361   1.787   3.675  11.112 -0.6424  0.2757 -1.9850
15982TIP3    H269362   1.636   3.689  11.106 -0.8140  0.4661  1.2053
15983TIP3   OH269363   6.397   3.247  13.516 -0.0240  0.4360 -0.4473
15983TIP3    H169364   6.337   3.215  13.448  1.3796 -2.9546 -0.2986
15983TIP3    H269365   6.483   3.247  13.473  0.7061 -0.6509  0.9351
15984TIP3   OH269366   0.334   6.503  14.451  0.1548  0.1939 -0.7743
15984TIP3    H169367   0.410   6.543  14.493 -1.4036  2.1209  0.4097
15984TIP3    H269368   0.360   6.493  14.360  2.6272 -1.4356  0.0082
15985TIP3   OH269369   2.738   5.512   1.298 -0.1038 -0.4679  0.1300
15985TIP3    H169370   2.806   5.445   1.297  0.6432  0.2606 -1.0934
15985TIP3    H269371   2.669   5.477   1.355  0.9221 -1.5875  0.7087
15986TIP3   OH269372   6.251   3.094  14.732  0.0578 -0.0659 -0.3634
15986TIP3    H169373   6.301   3.015  14.753  1.1939  0.5195 -0.7806
15986TIP3    H269374   6.318   3.159  14.712 -0.8551  1.0864  0.2466
15987TIP3   OH269375   0.787   6.159   5.014  0.0823  0.4759  0.0139
15987TIP3    H169376   0.873   6.139   4.976  0.0580 -0.1470  0.2677
15987TIP3    H269377   0.754   6.231   4.962  0.1891 -0.1558 -0.9547
15988TIP3   OH269378   4.499   0.470  11.619 -0.0438  0.5493  0.1652
15988TIP3    H169379   4.595   0.477  11.628 -0.0697 -0.7457  1.9239
15988TIP3    H269380   4.483   0.378  11.602 -0.9366  0.9843 -1.5658
15989TIP3   OH269381   0.418   2.934   4.209 -0.3435  0.4364  0.2871
15989TIP3    H169382   0.347   2.913   4.270 -0.1272 -1.0104  0.0837
15989TIP3    H269383   0.441   2.850   4.169  1.0390  0.9838 -0.1412
15990TIP3   OH269384   4.702   5.926   3.763  0.3684 -0.6562 -0.1388
15990TIP3    H169385   4.666   5.939   3.675  3.2046  1.9288 -1.1079
15990TIP3    H269386   4.664   5.997   3.815 -1.2160 -2.1135  0.7570
15991TIP3   OH269387   0.102   0.418   2.121  0.2965 -0.1919 -0.0013
15991TIP3    H169388   0.016   0.443   2.154  0.7005  0.8328  0.3130
15991TIP3    H269389   0.090   0.410   2.026  0.0697  0.8751 -0.0674
15992TIP3   OH269390   0.915   0.723  13.399  0.4324  0.2737 -0.3362
15992TIP3    H169391   0.906   0.762  13.312  0.4340  1.7773  0.3095
15992TIP3    H269392   0.937   0.797  13.456  0.5368 -0.7051  0.9237
15993TIP3   OH269393   6.723   3.977  13.745 -0.0819  0.3316 -0.2642
15993TIP3    H169394   6.697   3.892  13.708 -0.3477  0.2155  0.1866
15993TIP3    H269395   6.816   3.985  13.723 -0.2468  0.2900 -1.0071
15994TIP3   OH269396   2.827   0.075  12.806 -0.0115 -0.2109  0.3956
15994TIP3    H169397   2.812  -0.005  12.856  1.0718  0.3146  1.6593
15994TIP3    H269398   2.880   0.129  12.865 -1.8944  2.0386  0.1734
15995TIP3   OH269399   0.978   0.384   6.250  0.4476 -0.0975  0.3342
15995TIP3    H169400   0.920   0.416   6.180  1.6837  0.1490 -0.6087
15995TIP3    H269401   0.919   0.340   6.311 -0.9187  1.3988  0.1472
15996TIP3   OH269402   6.534   1.272   5.524  0.1024 -0.3261  0.6070
15996TIP3    H169403   6.609   1.266   5.584  1.3532  0.3024 -0.8335
15996TIP3    H269404   6.569   1.250   5.438 -1.2152  0.6070 -0.2186
15997TIP3   OH269405   0.887   1.739  13.885  0.1630  0.0029  1.1781
15997TIP3    H169406   0.941   1.763  13.961  1.8545  0.9655 -0.2489
15997TIP3    H269407   0.806   1.789  13.896  1.1087  1.5595  1.4869
15998TIP3   OH269408   1.273   5.356  15.336  0.1718 -0.2301 -0.5681
15998TIP3    H169409   1.331   5.285  15.362  1.1188 -0.4519 -3.0118
15998TIP3    H269410   1.186   5.316  15.331  0.3555 -0.7022 -0.0376
15999TIP3   OH269411   1.041   0.892  15.605  0.0470  0.1595 -0.3839
15999TIP3    H169412   1.013   0.919  15.518 -1.0309 -0.3580 -0.2067
15999TIP3    H269413   1.073   0.802  15.593  1.5982  0.6948 -0.5607
16000TIP3   OH269414   6.717   1.618  12.535 -0.6922 -0.4481  0.3041
16000TIP3    H169415   6.689   1.556  12.467  2.2159 -0.2274 -1.2461
16000TIP3    H269416   6.746   1.562  12.607 -2.7172 -0.7090  0.9764
16001TIP3   OH269417   4.916   5.224   5.284  0.0599  0.0969 -0.0164
16001TIP3    H169418   4.877   5.252   5.201  3.0088 -0.6896 -1.8068
16001TIP3    H269419   4.944   5.134   5.268  0.5794 -0.1275  1.9142
16002TIP3   OH269420   1.248   2.679  11.781 -0.5452  0.3331 -0.2248
16002TIP3    H169421   1.281   2.611  11.840  0.0742  1.2758  0.5460
16002TIP3    H269422   1.170   2.641  11.742 -1.3319 -0.0901  1.6670
16003TIP3   OH269423   5.635   3.983  15.467  0.0902 -0.3822 -0.6514
16003TIP3    H169424   5.685   3.911  15.430  1.0435  1.0849 -2.4219
16003TIP3    H269425   5.672   3.996  15.554  0.5492 -1.3886 -0.6834
16004TIP3   OH269426   5.527   6.477   6.397  0.3337 -0.2427 -0.1566
16004TIP3    H169427   5.581   6.400   6.416 -0.7020 -0.8978  0.1708
16004TIP3    H269428   5.439   6.443   6.385 -0.0541  0.8398 -0.5137
16005TIP3   OH269429   2.988   0.599  16.542 -0.0170  0.4121 -0.7452
16005TIP3    H169430   3.026   0.662  16.481  0.8827  0.2896 -0.3367
16005TIP3    H269431   2.942   0.536  16.487  0.8763  0.2394 -1.3164
16006TIP3   OH269432   1.070   6.719   1.785  0.7267 -0.1750 -0.6210
16006TIP3    H169433   1.132   6.785   1.816  1.1223 -0.7233 -0.2060
16006TIP3    H269434   1.048   6.669   1.864  1.5952 -1.4844 -1.1760
16007TIP3   OH269435   3.986   0.788  11.443 -0.4441 -0.3020  0.0600
16007TIP3    H169436   3.896   0.769  11.469 -0.5491 -1.0424 -0.8081
16007TIP3    H269437   4.034   0.708  11.463 -0.4868 -0.8206 -1.7483
16008TIP3   OH269438   1.811   5.908  11.628 -0.0466  0.0049 -0.2627
16008TIP3    H169439   1.771   5.841  11.683  2.4262 -0.5158  1.0679
16008TIP3    H269440   1.832   5.979  11.688  1.7526 -0.1182 -0.6877
16009TIP3   OH269441   3.767   6.099  11.379 -0.0607  0.1227 -0.3229
16009TIP3    H169442   3.701   6.063  11.320  0.4541  1.0006 -1.4945
16009TIP3    H269443   3.846   6.107  11.324  1.3697 -1.9040  1.3061
16010TIP3   OH269444   2.879   0.520  12.791 -0.4479  0.1736 -0.1055
16010TIP3    H169445   2.906   0.536  12.882 -1.3957  0.3232  0.1622
16010TIP3    H269446   2.802   0.576  12.779 -0.4241  0.0331 -0.9540
16011TIP3   OH269447   3.546   0.017   2.346  0.0003 -0.2928  0.7483
16011TIP3    H169448   3.635  -0.014   2.363  0.3708 -0.0190 -0.5956
16011TIP3    H269449   3.492  -0.062   2.351  0.5595 -0.7384 -0.0176
16012TIP3   OH269450   3.387   5.495  16.771 -0.5642 -0.1894  0.4572
16012TIP3    H169451   3.387   5.572  16.714  1.2619 -0.1628  0.4595
16012TIP3    H269452   3.422   5.526  16.854 -0.7974 -0.8098  0.7960
16013TIP3   OH269453   5.690   0.890  12.825  0.0363  0.4812  0.3105
16013TIP3    H169454   5.693   0.802  12.861  1.0458  0.0991 -0.6397
16013TIP3    H269455   5.599   0.917  12.834 -1.4700 -2.4255 -3.3704
16014TIP3   OH269456   5.509   0.828  14.126 -0.0705 -0.0743 -0.2099
16014TIP3    H169457   5.442   0.846  14.061  2.7994  2.6072 -2.7590
16014TIP3    H269458   5.563   0.759  14.087 -0.3074 -1.0499  1.0800
16015TIP3   OH269459   1.207   5.023  12.303  0.0630  0.0015 -0.2509
16015TIP3    H169460   1.256   5.048  12.225  0.5837 -1.3439 -0.3836
16015TIP3    H269461   1.123   5.067  12.294  0.3787  0.4293 -1.2123
16016TIP3   OH269462   6.552   1.033  11.040  0.1157 -0.0518  0.3032
16016TIP3    H169463   6.552   1.018  10.946  3.6498 -1.6550  0.4111
16016TIP3    H269464   6.547   1.128  11.050 -1.3681  0.0938 -1.3903
16017TIP3   OH269465   1.402   4.334   4.322 -0.0940 -0.2599 -0.7782
16017TIP3    H169466   1.351   4.400   4.275 -0.7830 -1.0643 -1.2073
16017TIP3    H269467   1.493   4.364   4.316 -0.2144 -0.1244 -2.2850
16018TIP3   OH269468   6.144   4.309  16.769  0.1070  0.2032  0.0012
16018TIP3    H169469   6.187   4.227  16.795 -0.7598  0.1965  1.5510
16018TIP3    H269470   6.149   4.309  16.674 -1.4198 -2.5457 -0.1853
16019TIP3   OH269471   0.065   6.359   1.232  0.1715  0.4738  0.4735
16019TIP3    H169472   0.085   6.404   1.150 -0.1695 -0.3428 -0.0681
16019TIP3    H269473   0.127   6.396   1.295 -0.0916  1.6832  0.0515
16020TIP3   OH269474   6.597   0.694   5.526 -0.0587  1.0568  0.0211
16020TIP3    H169475   6.547   0.776   5.517 -0.6461  1.0230  2.4297
16020TIP3    H269476   6.657   0.710   5.598 -0.5291 -0.7853  0.8681
16021TIP3   OH269477   3.406   0.163   4.201 -0.2582  0.1732  0.2784
16021TIP3    H169478   3.404   0.256   4.181 -1.9845  0.2744  0.7965
16021TIP3    H269479   3.410   0.159   4.297  0.1522 -0.2908  0.2474
16022TIP3   OH269480   0.169   6.579   6.019 -0.1423 -0.3242 -0.1406
16022TIP3    H169481   0.131   6.522   6.087  0.6427  0.4240  0.9578
16022TIP3    H269482   0.231   6.522   5.973  0.4504 -0.4651  0.7859
16023TIP3   OH269483   3.717   6.265   4.726  0.2982 -0.2563  0.3554
16023TIP3    H169484   3.690   6.246   4.636  0.5000 -0.2684  0.2970
16023TIP3    H269485   3.813   6.264   4.723  0.3207  0.7893  0.3451
16024TIP3   OH269486   0.510   6.317  13.179  0.2113  0.6954  0.8861
16024TIP3    H169487   0.597   6.349  13.204 -0.0213  1.0380  1.2460
16024TIP3    H269488   0.476   6.384  13.119 -0.4691  1.3705  2.0073
16025TIP3   OH269489   4.849   2.287   1.965 -0.0774 -0.6532  0.2271
16025TIP3    H169490   4.881   2.365   2.010 -0.7226 -1.5888  2.4645
16025TIP3    H269491   4.927   2.233   1.952  0.4112  0.3946 -1.5480
16026TIP3   OH269492   5.486   5.513   3.076 -0.0319  0.0792 -0.2248
16026TIP3    H169493   5.434   5.545   3.150  1.5338  0.8847  0.5766
16026TIP3    H269494   5.424   5.463   3.023 -1.1739 -0.6635  1.6995
16027TIP3   OH269495   3.390   3.844   5.733  0.1777  0.0388 -0.1719
16027TIP3    H169496   3.390   3.899   5.812 -0.3463  1.7018 -1.2671
16027TIP3    H269497   3.321   3.882   5.678  1.0026 -0.6216 -1.7292
16028TIP3   OH269498   0.639   5.644   0.889 -0.2395 -0.2849 -0.1031
16028TIP3    H169499   0.653   5.649   0.794 -0.0721 -0.6965 -0.1045
16028TIP3    H269500   0.660   5.732   0.921 -0.7388 -0.0136 -0.5005
16029TIP3   OH269501   2.142   5.671  15.913  0.6738 -0.1541  0.0565
16029TIP3    H169502   2.158   5.579  15.934  1.3309 -0.4504 -1.5917
16029TIP3    H269503   2.081   5.669  15.840  0.5153  0.7286  0.1559
16030TIP3   OH269504   3.121   2.153  14.166 -0.3238  0.3151 -0.7249
16030TIP3    H169505   3.192   2.174  14.227  1.6491 -3.0362 -1.6073
16030TIP3    H269506   3.053   2.113  14.221 -0.1584  0.5855 -0.3132
16031TIP3   OH269507   5.540   4.492  16.339 -0.2906 -0.2793  0.5912
16031TIP3    H169508   5.509   4.537  16.261 -0.6390 -0.7110  0.4737
16031TIP3    H269509   5.573   4.408  16.306  0.2401 -0.1641  0.8197
16032TIP3   OH269510   4.910   2.398   1.623 -0.0315  0.1259 -0.0848
16032TIP3    H169511   4.966   2.321   1.636  0.0057 -0.2514 -2.0467
16032TIP3    H269512   4.821   2.362   1.624 -0.1906  0.5049  1.6313
16033TIP3   OH269513   4.873   0.901  12.654  0.0357  0.4701  0.1262
16033TIP3    H169514   4.905   0.822  12.610 -0.9957 -0.8770  1.6428
16033TIP3    H269515   4.827   0.950  12.586  0.9308 -0.0970 -0.9160
16034TIP3   OH269516   0.019   2.968   4.866 -0.4388  0.2463  0.6803
16034TIP3    H169517   0.093   3.014   4.907 -0.1637 -0.7771  1.3732
16034TIP3    H269518  -0.029   2.931   4.939 -1.8713  1.2005  0.2534
16035TIP3   OH269519   6.571   3.947   1.144  0.2971 -0.3917  0.1979
16035TIP3    H169520   6.599   3.884   1.078 -2.9440  0.4574 -2.2300
16035TIP3    H269521   6.497   3.905   1.188  0.9156  0.0125  1.6971
16036TIP3   OH269522   6.644   2.644   2.404 -0.5197 -0.4694 -0.9404
16036TIP3    H169523   6.619   2.726   2.361  0.4327 -0.5020 -1.5610
16036TIP3    H269524   6.604   2.651   2.491 -3.0407 -0.6920 -1.9701
16037TIP3   OH269525   3.796   1.365   2.709 -0.3590 -0.3974 -0.0698
16037TIP3    H169526   3.875   1.320   2.679  0.4502 -0.4965  2.0880
16037TIP3    H269527   3.730   1.342   2.643  1.2670 -0.6467 -1.6928
16038TIP3   OH269528   3.727   6.451   2.713 -0.4725 -0.1511 -0.3709
16038TIP3    H169529   3.798   6.387   2.722 -0.7907 -0.4841 -0.1846
16038TIP3    H269530   3.703   6.473   2.802 -0.1834  0.4424 -0.4337
16039TIP3   OH269531   6.576   2.606   1.675 -0.4814 -0.5284  0.0881
16039TIP3    H169532   6.612   2.694   1.683  0.5085 -0.8055 -0.9705
16039TIP3    H269533   6.531   2.607   1.590  0.8812 -1.4672 -0.6810
16040TIP3   OH269534   2.426   1.024   4.701  0.5413  0.1685  0.0195
16040TIP3    H169535   2.409   0.930   4.695 -2.1855  0.5507  0.2128
16040TIP3    H269536   2.448   1.051   4.612 -0.2529 -0.4209 -0.3658
16041TIP3   OH269537   6.594   4.745   2.137 -0.3136  0.0580 -0.3429
16041TIP3    H169538   6.614   4.798   2.059 -0.1097  0.1034 -0.2594
16041TIP3    H269539   6.615   4.655   2.111  0.3013  0.1460 -0.1502
16042TIP3   OH269540   6.395   4.779  12.189 -0.3850  0.1540 -0.4377
16042TIP3    H169541   6.435   4.800  12.105 -2.0216  1.7130 -0.8954
16042TIP3    H269542   6.371   4.864  12.226  1.1833 -0.4175  2.1196
16043TIP3   OH269543   0.383   3.799  11.624  0.2881 -0.5386 -0.2697
16043TIP3    H169544   0.448   3.847  11.571  1.0377  0.1127  1.1971
16043TIP3    H269545   0.313   3.779  11.562  0.4695  1.4517 -1.2110
16044TIP3   OH269546   3.595   2.773  15.589 -0.0445  0.1647 -0.6938
16044TIP3    H169547   3.679   2.741  15.556  1.5069  0.9770  2.1702
16044TIP3    H269548   3.587   2.861  15.551  0.3360  0.0544 -1.0404
16045TIP3   OH269549   1.505   3.919  13.868  0.6433 -0.1482 -0.1304
16045TIP3    H169550   1.428   3.919  13.925  1.5947 -0.1622  1.1895
16045TIP3    H269551   1.532   3.827  13.864  0.5237 -0.1644 -0.7144
16046TIP3   OH269552   4.043   3.133  16.223  0.4962 -0.4189 -0.0538
16046TIP3    H169553   4.035   3.174  16.137  0.7606 -0.1419  0.0514
16046TIP3    H269554   4.129   3.160  16.255  0.3314 -0.3798  0.3690
16047TIP3   OH269555   1.957   3.516   0.580  0.0808  0.1703  0.1625
16047TIP3    H169556   1.904   3.449   0.537 -1.2196  1.0934  0.2800
16047TIP3    H269557   1.923   3.599   0.546  2.4397  0.7912 -0.9204
16048TIP3   OH269558   4.364   3.741  16.354 -0.5722 -0.1084 -0.2744
16048TIP3    H169559   4.357   3.805  16.425  0.9780  0.8677 -0.9495
16048TIP3    H269560   4.311   3.777  16.283 -1.1275 -0.4726 -0.0511
16049TIP3   OH269561   3.216   6.005  16.603  0.5375 -0.3002  0.2052
16049TIP3    H169562   3.137   5.961  16.635  0.5699  0.2737  1.1186
16049TIP3    H269563   3.197   6.024  16.511  0.0363 -1.1015  0.1313
16050TIP3   OH269564   0.949   3.758  13.315 -0.2500 -0.4702  0.0343
16050TIP3    H169565   0.904   3.728  13.395 -0.5751 -2.0979 -0.7310
16050TIP3    H269566   0.908   3.842  13.296 -0.8843 -0.5324  1.0168
16051TIP3   OH269567   4.298   1.634  14.693  0.1813  0.9668  0.5054
16051TIP3    H169568   4.374   1.613  14.639 -0.6273 -0.4138 -0.1423
16051TIP3    H269569   4.332   1.693  14.760  1.4025  2.0411 -0.9729
16052TIP3   OH269570   1.416   6.319   4.785 -0.1529  0.4496 -0.0817
16052TIP3    H169571   1.451   6.303   4.872  0.4548 -1.3155 -0.6168
16052TIP3    H269572   1.448   6.406   4.762  0.2079  0.6662  1.1851
16053TIP3   OH269573   2.592   4.583  14.106  0.2932 -0.1632  0.1562
16053TIP3    H169574   2.519   4.641  14.083  1.3634  0.5268 -1.6917
16053TIP3    H269575   2.647   4.635  14.164  1.7783  1.1258 -2.3043
16054TIP3   OH269576   2.889   0.481   1.209 -0.7870  0.0951 -0.0409
16054TIP3    H169577   2.847   0.454   1.128 -0.3956  0.7351 -0.4673
16054TIP3    H269578   2.832   0.550   1.243 -2.3129 -1.8058  1.5414
16055TIP3   OH269579   2.602   4.703   2.985  0.0539 -0.1784  0.7889
16055TIP3    H169580   2.573   4.711   2.895 -0.2127  3.1561  1.0471
16055TIP3    H269581   2.657   4.625   2.986  0.0232 -0.3381 -2.2169
16056TIP3   OH269582   5.553   2.158   1.778  0.3080 -0.0810 -0.1798
16056TIP3    H169583   5.630   2.103   1.796  0.1823 -0.0533  0.4807
16056TIP3    H269584   5.537   2.204   1.861 -0.3291  0.0236 -0.3583
16057TIP3   OH269585   1.116   2.053   3.886 -0.2749 -0.3556  0.1561
16057TIP3    H169586   1.102   2.035   3.793 -0.5770 -2.8610  0.6217
16057TIP3    H269587   1.206   2.026   3.903  0.0763  0.9306  0.4343
16058TIP3   OH269588   3.810   0.424  14.737  0.1251  0.3346 -0.0948
16058TIP3    H169589   3.829   0.400  14.828 -2.3402  1.2144  0.7290
16058TIP3    H269590   3.861   0.503  14.721 -2.8086  2.9605  2.2111
16059TIP3   OH269591   2.648   0.773  14.776 -0.0200  0.3032 -0.2385
16059TIP3    H169592   2.553   0.788  14.782  0.1196  0.6499  2.5873
16059TIP3    H269593   2.679   0.782  14.866  2.4922 -1.3910 -0.8298
16060TIP3   OH269594   6.596   6.148  15.392  0.7082 -0.3164  0.0705
16060TIP3    H169595   6.601   6.157  15.297  0.5720  0.7843  0.1472
16060TIP3    H269596   6.655   6.216  15.426 -0.6237  0.5437  0.7757
16061TIP3   OH269597   1.952   5.753   6.313  0.5731  0.0578  0.2995
16061TIP3    H169598   2.017   5.685   6.295 -0.3311 -1.5678  2.7286
16061TIP3    H269599   1.878   5.731   6.256  1.2549  0.5924 -0.8247
16062TIP3   OH269600   5.599   2.992   3.751 -0.0123 -0.1611 -0.3654
16062TIP3    H169601   5.538   2.921   3.729 -0.3434  0.3137 -1.0207
16062TIP3    H269602   5.661   2.952   3.812  0.3155 -1.2423 -1.3741
16063TIP3   OH269603   1.726   1.925  15.336 -0.2462  0.2156  0.7403
16063TIP3    H169604   1.748   1.992  15.272 -0.7730 -0.9903 -0.7543
16063TIP3    H269605   1.686   1.854  15.285  0.4578 -1.3300  2.2285
16064TIP3   OH269606   6.033   4.554   4.257  0.1380  0.4634 -0.5561
16064TIP3    H169607   6.067   4.632   4.300  4.3718 -0.6669 -1.4452
16064TIP3    H269608   6.008   4.495   4.329 -0.9765  1.7059  0.1204
16065TIP3   OH269609   0.643   6.589  12.025  0.0060  0.2469 -0.6070
16065TIP3    H169610   0.678   6.500  12.020 -1.1510 -0.3382  0.8018
16065TIP3    H269611   0.620   6.600  12.117  1.2271  2.4652 -0.5204
16066TIP3   OH269612   1.414   6.606  13.568  0.2071 -0.1427  0.0746
16066TIP3    H169613   1.485   6.560  13.522  0.2316 -1.5352  1.4232
16066TIP3    H269614   1.440   6.605  13.660 -1.6672 -0.9474  0.6509
16067TIP3   OH269615   2.077   4.300  16.581 -0.3409 -0.0759  0.3279
16067TIP3    H169616   2.131   4.369  16.619  1.3745 -1.1106 -0.1187
16067TIP3    H269617   1.996   4.344  16.555  1.0557  1.9808 -0.7776
16068TIP3   OH269618   2.453   0.895  13.634 -0.4419 -0.7522 -0.2125
16068TIP3    H169619   2.450   0.965  13.569  3.8799  0.6484  0.7383
16068TIP3    H269620   2.494   0.822  13.588  2.2349  0.1044  0.6114
16069TIP3   OH269621   5.094   0.865  12.942 -0.3162 -1.1363 -0.1427
16069TIP3    H169622   5.128   0.790  12.991 -0.0260 -1.3326 -0.6294
16069TIP3    H269623   5.144   0.864  12.860  1.5362  1.1119  0.8557
16070TIP3   OH269624   6.363   0.596   2.161  0.5933  0.3648 -0.1254
16070TIP3    H169625   6.359   0.514   2.113 -0.0975  0.9494 -1.0899
16070TIP3    H269626   6.312   0.581   2.241  0.5578 -0.1592 -0.2472
16071TIP3   OH269627   5.375   5.187  12.633  0.0466 -0.2486 -0.5790
16071TIP3    H169628   5.339   5.142  12.557 -1.1164 -0.3053 -0.0163
16071TIP3    H269629   5.462   5.214  12.606  0.7700 -2.7174 -0.9986
16072TIP3   OH269630   4.968   5.544  11.286  0.0904  0.5871 -0.0424
16072TIP3    H169631   4.898   5.493  11.325 -0.5766  3.1348  2.4289
16072TIP3    H269632   4.932   5.576  11.203 -0.5402 -0.5039 -0.1952
16073TIP3   OH269633   5.815   1.978   5.229  0.4408 -0.3152  0.5165
16073TIP3    H169634   5.755   1.904   5.242  0.9391 -1.2381 -1.9376
16073TIP3    H269635   5.757   2.054   5.224 -0.5987 -1.1545 -1.5317
16074TIP3   OH269636   1.374   5.095   3.408  0.6069 -0.2070 -0.6482
16074TIP3    H169637   1.285   5.061   3.409  0.4959  0.0185  0.9016
16074TIP3    H269638   1.397   5.102   3.501  1.6011  1.3959 -0.9828
16075TIP3   OH269639   2.370   1.654   3.961 -0.3898  0.2702  0.2568
16075TIP3    H169640   2.409   1.648   4.048  0.1329 -0.9701 -0.0430
16075TIP3    H269641   2.283   1.691   3.976 -0.3692 -0.0753  1.3206
16076TIP3   OH269642   1.971   1.776   0.350  0.0918  0.0410 -0.0167
16076TIP3    H169643   1.921   1.754   0.429 -0.2408  3.1991  0.7775
16076TIP3    H269644   1.905   1.788   0.282  0.1728 -0.2385 -0.1471
16077TIP3   OH269645   0.676   2.384  15.981  0.4311 -0.1915 -0.3681
16077TIP3    H169646   0.727   2.457  16.017  0.5996 -0.1173 -0.7588
16077TIP3    H269647   0.587   2.416  15.978  0.7756  0.7367 -2.3948
16078TIP3   OH269648   4.720   5.478  15.447 -0.2500  0.3498 -0.1281
16078TIP3    H169649   4.717   5.434  15.532 -1.2948  0.3867 -0.1342
16078TIP3    H269650   4.654   5.547  15.454 -0.0316  0.6285 -0.8148
16079TIP3   OH269651   5.191   2.300  11.463 -0.7109 -0.1851  0.4044
16079TIP3    H169652   5.268   2.277  11.412 -1.1548 -1.1207  0.1422
16079TIP3    H269653   5.130   2.337  11.400 -1.5987 -2.1426  0.0633
16080TIP3   OH269654   0.792   2.132   5.962 -0.5350  0.2789  0.7090
16080TIP3    H169655   0.733   2.130   5.887 -0.6210  0.7162  0.7572
16080TIP3    H269656   0.773   2.051   6.010  0.0983 -0.3987 -0.1624
16081TIP3   OH269657   3.292   0.562  15.821 -0.6389 -0.7678 -0.4369
16081TIP3    H169658   3.301   0.657  15.833 -0.3564 -0.7678 -0.6617
16081TIP3    H269659   3.367   0.537  15.767 -0.1751 -1.2713  0.4183
16082TIP3   OH269660   0.681   4.047  17.121 -0.1506 -0.4057  0.0330
16082TIP3    H169661   0.597   4.093  17.116 -0.4288 -0.3477  3.1184
16082TIP3    H269662   0.671   3.989  17.197  1.9538 -1.8653 -0.7272
16083TIP3   OH269663   2.650   4.601   4.865  0.4069 -0.1625 -0.1943
16083TIP3    H169664   2.618   4.587   4.954 -0.9379 -2.3924 -0.9670
16083TIP3    H269665   2.742   4.576   4.868  0.5804  0.5263  0.7076
16084TIP3   OH269666   1.680   2.369   4.919  0.6427  0.2458 -0.3654
16084TIP3    H169667   1.653   2.284   4.885 -0.8922  0.2551  0.7433
16084TIP3    H269668   1.687   2.424   4.841 -0.3036 -0.3843 -0.9184
16085TIP3   OH269669   1.469   1.456  14.677 -0.0221 -0.1926 -0.5407
16085TIP3    H169670   1.504   1.543  14.658 -0.0769 -0.0069  0.1828
16085TIP3    H269671   1.424   1.429  14.596  0.4692  0.2137 -0.9488
16086TIP3   OH269672   3.841   1.093  12.046  0.3611  0.2350 -0.9401
16086TIP3    H169673   3.839   1.116  12.139  0.3321 -0.4389 -0.7716
16086TIP3    H269674   3.771   1.145  12.006 -0.6839 -0.6605 -0.3127
16087TIP3   OH269675   6.492   1.933   4.235 -0.2388  0.3058  0.1796
16087TIP3    H169676   6.412   1.893   4.269  0.7135 -1.5938  0.3076
16087TIP3    H269677   6.563   1.892   4.286  1.1539 -1.4215 -2.8559
16088TIP3   OH269678   5.855   5.635   0.552 -0.0569  0.4074 -0.0121
16088TIP3    H169679   5.944   5.601   0.548  0.5131  1.5977  1.2807
16088TIP3    H269680   5.839   5.673   0.466  0.3437 -0.5734 -0.5306
16089TIP3   OH269681   6.023   3.629   0.829 -0.2751  0.3813 -0.4673
16089TIP3    H169682   6.108   3.652   0.792 -0.4520 -0.5383 -1.4881
16089TIP3    H269683   5.971   3.710   0.822 -0.2166  0.3105 -2.0098
16090TIP3   OH269684   4.312   0.518   1.974  0.2694  0.8306  0.3290
16090TIP3    H169685   4.305   0.556   2.062 -1.3553  0.7411  0.2706
16090TIP3    H269686   4.313   0.593   1.915 -0.3113  0.8641  0.3524
16091TIP3   OH269687   0.115   4.904   3.255 -0.4030 -0.5329  0.6627
16091TIP3    H169688   0.167   4.857   3.189 -1.1031  0.3998 -0.6007
16091TIP3    H269689   0.180   4.954   3.304  0.0647 -0.5499  0.0852
16092TIP3   OH269690   6.433   2.382  13.120  0.4456 -0.0061 -0.4342
16092TIP3    H169691   6.342   2.402  13.103 -0.3239 -1.4675  1.5181
16092TIP3    H269692   6.483   2.440  13.063 -1.6939  0.7338 -1.6171
16093TIP3   OH269693   6.144   5.450  15.603 -0.1732  0.3901 -0.2157
16093TIP3    H169694   6.176   5.485  15.520 -2.0574 -0.3728 -1.3148
16093TIP3    H269695   6.096   5.522  15.643 -0.5530  0.3129 -0.5250
16094TIP3   OH269696   0.150   3.854  15.005  0.2564 -0.1581  0.2191
16094TIP3    H169697   0.179   3.880  14.917  0.0365  1.7938  0.7018
16094TIP3    H269698   0.063   3.816  14.991  0.0694  0.4781 -0.3625
16095TIP3   OH269699   6.582   0.755   4.636 -0.2527 -0.0530  0.6907
16095TIP3    H169700   6.500   0.774   4.682  0.3601  0.7774  1.4749
16095TIP3    H269701   6.645   0.735   4.706  0.7662  1.5177  0.2731
16096TIP3   OH269702   5.469   0.453   6.081 -0.2558 -0.1450 -0.2513
16096TIP3    H169703   5.497   0.481   6.168 -2.0395  0.1491  0.2630
16096TIP3    H269704   5.534   0.388   6.054  0.3643 -0.1697  1.2440
16097TIP3   OH269705   4.275   6.598  16.719 -0.4729 -0.1368  0.1157
16097TIP3    H169706   4.190   6.557  16.704 -0.0445 -0.6611 -0.9608
16097TIP3    H269707   4.338   6.541  16.673  0.6269 -0.4673  1.9147
16098TIP3   OH269708   1.157   3.148   1.095  0.4182  0.2203 -0.3412
16098TIP3    H169709   1.155   3.133   1.000 -1.5363  0.9702 -0.4662
16098TIP3    H269710   1.066   3.142   1.122  0.9626 -0.1818  1.5515
16099TIP3   OH269711   5.895   0.431  10.661  0.0453 -0.0936 -0.6428
16099TIP3    H169712   5.825   0.416  10.725 -0.5391  0.3781 -1.1549
16099TIP3    H269713   5.856   0.492  10.598  1.7215  2.1998  0.4074
16100TIP3   OH269714   2.571   0.650  16.671 -0.0234  0.4193  0.1656
16100TIP3    H169715   2.603   0.563  16.645  0.1211  1.1352 -2.3420
16100TIP3    H269716   2.596   0.658  16.763  1.0506 -1.7129  0.1315
16101TIP3   OH269717   6.089   1.480   4.144 -0.2666  0.5443  0.6349
16101TIP3    H169718   6.019   1.428   4.104 -0.1767  0.5363  0.4857
16101TIP3    H269719   6.106   1.550   4.082  1.1707 -0.5377 -0.2701
16102TIP3   OH269720   0.917   3.722  11.336  0.5028 -0.3592  0.0503
16102TIP3    H169721   0.863   3.763  11.269  0.9320 -1.7027 -1.1707
16102TIP3    H269722   0.860   3.716  11.413  0.3103  2.1115  0.1818
16103TIP3   OH269723   0.717   3.279  15.780  0.2571 -0.2792 -0.6961
16103TIP3    H169724   0.750   3.209  15.724  0.4315 -1.6170  0.9802
16103TIP3    H269725   0.662   3.234  15.844 -0.8157  1.3150 -0.4413
16104TIP3   OH269726   0.535   4.837   1.739 -0.1072 -0.1747  0.0236
16104TIP3    H169727   0.630   4.829   1.733 -0.1674 -1.2400  0.4097
16104TIP3    H269728   0.502   4.791   1.662 -0.2707  2.0582 -1.3324
16105TIP3   OH269729   4.243   5.007  17.309  0.6676 -0.1433 -0.2831
16105TIP3    H169730   4.277   5.039  17.393 -1.4253  1.1396  0.1519
16105TIP3    H269731   4.210   4.920  17.328  2.0059 -0.6880 -0.3053
16106TIP3   OH269732   3.303   2.120   3.004 -0.1103 -0.6675 -0.1948
16106TIP3    H169733   3.330   2.031   2.982  0.6429  0.1108 -2.8919
16106TIP3    H269734   3.238   2.142   2.937  0.4536  1.1254 -0.2113
16107TIP3   OH269735   4.891   4.547  13.600 -0.4228  0.0250 -0.2699
16107TIP3    H169736   4.799   4.537  13.574 -0.8485  1.5414  0.5527
16107TIP3    H269737   4.893   4.521  13.692 -0.2031  0.8154 -0.0475
16108TIP3   OH269738   3.051   0.648   4.804 -0.2097 -0.1875  0.5553
16108TIP3    H169739   3.131   0.612   4.764  0.2415  0.4900  0.8363
16108TIP3    H269740   2.989   0.575   4.801  0.7538 -1.0749  1.3155
16109TIP3   OH269741   3.416   5.598   4.347 -0.0111  0.2226  0.0731
16109TIP3    H169742   3.449   5.635   4.266 -1.3609  0.3196 -0.4695
16109TIP3    H269743   3.484   5.616   4.412  0.3682  1.6325 -0.6755
16110TIP3   OH269744   3.115   2.402   5.842 -0.2352  0.0347  0.0960
16110TIP3    H169745   3.181   2.433   5.780  0.6772 -1.3273  0.3292
16110TIP3    H269746   3.165   2.382   5.921 -1.1114 -0.0011  0.6527
16111TIP3   OH269747   0.457   0.383  11.537  0.0593  0.6490 -0.0952
16111TIP3    H169748   0.423   0.469  11.560  1.6694  1.4843 -0.7285
16111TIP3    H269749   0.541   0.400  11.495  0.4327 -1.2373 -0.2111
16112TIP3   OH269750   1.499   4.244  15.125 -0.2523 -0.4650 -0.1380
16112TIP3    H169751   1.456   4.328  15.110  0.4221 -0.2394 -0.8533
16112TIP3    H269752   1.428   4.186  15.155 -0.5494  0.6036  1.3597
16113TIP3   OH269753   2.068   3.794  13.555 -0.0007 -0.0118  0.3114
16113TIP3    H169754   2.127   3.771  13.483  0.8463  0.8016  0.7223
16113TIP3    H269755   2.106   3.751  13.632  0.0188  0.4473  0.5622
16114TIP3   OH269756   1.249   6.701   2.748  0.5692  0.9340  0.4227
16114TIP3    H169757   1.232   6.766   2.816  0.7504 -0.5894  1.9862
16114TIP3    H269758   1.344   6.702   2.737  0.4467  2.0458 -0.7388
16115TIP3   OH269759   1.922   4.788   3.169 -0.1261 -0.5338 -0.2632
16115TIP3    H169760   1.869   4.720   3.210 -1.2143 -0.1709 -1.0231
16115TIP3    H269761   1.980   4.819   3.239 -1.0507 -0.8097  0.6404
16116TIP3   OH269762   3.685   5.852   2.723  0.5527  0.2407  0.6443
16116TIP3    H169763   3.769   5.812   2.699 -1.2666 -3.6256 -0.0837
16116TIP3    H269764   3.691   5.867   2.817  1.5322 -1.5207  0.8993
16117TIP3   OH269765   1.047   6.277   3.566  0.2462  0.1688 -0.1705
16117TIP3    H169766   1.089   6.258   3.650  0.1591 -2.0797 -0.5741
16117TIP3    H269767   1.097   6.226   3.502 -0.9301  0.2485 -1.1818
16118TIP3   OH269768   0.206   3.452   0.406  0.2670  0.2270 -0.2222
16118TIP3    H169769   0.265   3.378   0.393  0.2188 -0.1553  1.4718
16118TIP3    H269770   0.257   3.516   0.455 -0.5640  0.0689  0.8887
16119TIP3   OH269771   3.631   3.857  11.154 -0.4361 -0.3481 -0.0697
16119TIP3    H169772   3.543   3.824  11.172  0.3623 -2.7404 -0.2321
16119TIP3    H269773   3.623   3.903  11.070 -1.1617 -2.2701 -1.0917
16120TIP3   OH269774   1.880   0.971  13.545 -0.6784  0.5069  0.4815
16120TIP3    H169775   1.910   0.893  13.591  3.5200  1.6650  0.0417
16120TIP3    H269776   1.924   1.044  13.589 -0.6484  2.1610 -2.0945
16121TIP3   OH269777   0.485   1.452  12.547  0.0748 -0.6217 -0.2897
16121TIP3    H169778   0.469   1.542  12.518 -0.8012 -0.5658  0.3451
16121TIP3    H269779   0.565   1.427  12.502 -0.7202 -0.2027 -2.0163
16122TIP3   OH269780   6.736   1.427   6.521 -0.1852 -0.7114 -0.3925
16122TIP3    H169781   6.654   1.455   6.562 -0.1853 -1.6562  0.2887
16122TIP3    H269782   6.740   1.332   6.537  1.9445 -0.4154  1.2739
16123TIP3   OH269783   2.277   3.703  16.199 -0.3328 -0.8030 -0.6618
16123TIP3    H169784   2.279   3.776  16.261  1.6051 -1.2019 -0.1764
16123TIP3    H269785   2.318   3.737  16.119 -0.3681 -1.0499 -0.7890
16124TIP3   OH269786   2.764   1.277   0.121  0.1811  0.7204 -0.4397
16124TIP3    H169787   2.818   1.215   0.072 -0.0194  1.2294 -1.3320
16124TIP3    H269788   2.826   1.340   0.158  0.4395 -0.2818  0.9278
16125TIP3   OH269789   2.331   3.763   2.883 -0.5868 -0.3088 -0.0459
16125TIP3    H169790   2.237   3.784   2.886 -0.1637  1.7870  0.0118
16125TIP3    H269791   2.350   3.753   2.790 -0.9763 -1.3601 -0.0215
16126TIP3   OH269792   3.877   2.020   1.567 -0.0886 -0.1981 -0.2752
16126TIP3    H169793   3.893   2.019   1.661  0.1912  1.1259 -0.2878
16126TIP3    H269794   3.965   2.017   1.528 -0.0464  1.6987 -0.4276
16127TIP3   OH269795   1.268   3.999   1.591 -0.3118 -0.1418  0.0619
16127TIP3    H169796   1.290   4.065   1.525 -0.4115 -1.8024 -1.6859
16127TIP3    H269797   1.352   3.976   1.631 -0.0442 -0.2437 -0.5610
16128TIP3   OH269798   4.678   1.255   6.026 -0.2148  0.5861  0.4018
16128TIP3    H169799   4.618   1.266   6.099 -1.1827 -0.4580 -0.2106
16128TIP3    H269800   4.711   1.343   6.009 -0.7634  1.0049  1.4180
16129TIP3   OH269801   3.939   5.513   3.578  0.3531 -0.5435 -0.1758
16129TIP3    H169802   3.878   5.548   3.643  0.8258 -0.6541  0.3361
16129TIP3    H269803   3.894   5.438   3.539 -0.0830 -0.2485 -0.2457
16130TIP3   OH269804   1.320   5.819  16.770 -0.1311  0.5391 -0.1899
16130TIP3    H169805   1.413   5.839  16.760  0.6400 -2.1566  0.6439
16130TIP3    H269806   1.310   5.796  16.863 -1.7264  1.0951 -0.1841
16131TIP3   OH269807   5.912   1.334   2.041  0.2250 -0.0860  0.1803
16131TIP3    H169808   5.914   1.325   1.946 -0.2933  0.5807  0.0948
16131TIP3    H269809   5.820   1.352   2.061  0.2109 -0.8792  0.8777
16132TIP3   OH269810   4.404   2.437  11.437 -0.2240  0.1658 -0.7050
16132TIP3    H169811   4.456   2.358  11.419  0.6752  0.7203 -0.5576
16132TIP3    H269812   4.450   2.507  11.391  0.7971  1.2031  1.7624
16133TIP3   OH269813   2.841   6.050  16.015  0.0053  0.0319 -0.2766
16133TIP3    H169814   2.931   6.020  16.030 -0.3391 -1.0328 -0.2355
16133TIP3    H269815   2.850   6.133  15.969  1.0471  1.0865  1.7094
16134TIP3   OH269816   5.676   5.776  14.024 -1.1995 -0.0412  0.0239
16134TIP3    H169817   5.639   5.755  14.110 -0.1941 -4.7054 -0.4229
16134TIP3    H269818   5.768   5.751  14.031 -0.5691  1.5068 -1.8432
16135TIP3   OH269819   3.011   0.541   6.096  0.2602 -0.1885  0.0903
16135TIP3    H169820   3.010   0.611   6.161  2.6427 -0.4512  0.5017
16135TIP3    H269821   3.096   0.498   6.108 -1.2992 -3.5516  0.2659
16136TIP3   OH269822   5.129   5.524   5.447 -0.1861  0.2395  0.2290
16136TIP3    H169823   5.184   5.571   5.383  2.4648  0.2116  2.3172
16136TIP3    H269824   5.059   5.586   5.468  0.8924  1.6260 -0.1092
16137TIP3   OH269825   1.273   4.565  10.701  0.0609 -0.6690  0.4201
16137TIP3    H169826   1.222   4.641  10.672  0.1871 -0.2626  1.2392
16137TIP3    H269827   1.358   4.577  10.660  0.6430  0.5599  1.8799
16138TIP3   OH269828   2.335   6.700   3.331  0.0887 -0.0670 -0.0999
16138TIP3    H169829   2.358   6.771   3.392  2.1012 -0.1257 -0.7100
16138TIP3    H269830   2.341   6.621   3.384 -0.8995  0.0856  0.2674
16139TIP3   OH269831   5.095   0.846  17.038 -0.3125  0.0863  0.4109
16139TIP3    H169832   5.156   0.799  17.094  0.1274  1.0561  0.7593
16139TIP3    H269833   5.010   0.804  17.054 -0.0952  0.0246  1.4208
16140TIP3   OH269834   3.936   0.057  11.452 -0.0849 -0.6929  0.8423
16140TIP3    H169835   3.888   0.084  11.373 -0.4923 -1.0701  0.9541
16140TIP3    H269836   3.997  -0.010  11.421  1.5485  0.9067  0.4057
16141TIP3   OH269837   2.178   0.706   2.183  0.7991 -0.0683 -0.5072
16141TIP3    H169838   2.202   0.666   2.266 -1.5616 -0.9715 -0.1862
16141TIP3    H269839   2.218   0.650   2.116 -0.0884 -1.3205 -0.0168
16142TIP3   OH269840   3.606   2.107   6.006 -0.6351  0.4973  0.1730
16142TIP3    H169841   3.698   2.125   5.986 -0.9507  0.7715 -1.1003
16142TIP3    H269842   3.589   2.155   6.087  0.4049  0.2163  0.5796
16143TIP3   OH269843   4.103   3.912  16.455 -0.7205 -0.0651  0.1320
16143TIP3    H169844   4.106   3.892  16.549  0.4876 -1.6464 -0.1930
16143TIP3    H269845   4.031   3.974  16.446 -2.6546 -1.9187  1.7553
16144TIP3   OH269846   0.106   4.262   1.391  0.0167 -0.7904 -0.1369
16144TIP3    H169847   0.096   4.226   1.303  0.6449 -0.9056 -0.1632
16144TIP3    H269848   0.143   4.191   1.443 -1.1279 -0.9975  0.4394
16145TIP3   OH269849   5.338   5.960   0.118 -0.3582  0.4657  0.3225
16145TIP3    H169850   5.410   5.951   0.056  1.2217 -0.2315  2.1453
16145TIP3    H269851   5.355   6.044   0.162 -1.3960  0.9002 -0.0701
16146TIP3   OH269852   2.949   2.790   3.293 -0.4238 -0.1237  0.0085
16146TIP3    H169853   2.899   2.863   3.328  0.0289 -0.4087  1.2884
16146TIP3    H269854   2.884   2.721   3.279 -0.7853  0.3590 -0.8215
16147TIP3   OH269855   2.506   5.867  17.114  0.1745  0.2373 -0.4991
16147TIP3    H169856   2.421   5.831  17.140 -0.6614  2.5092  0.1449
16147TIP3    H269857   2.556   5.872  17.195 -0.0995  1.4187 -0.3869
16148TIP3   OH269858   5.866   5.544   1.233  0.4416 -0.1013  0.7980
16148TIP3    H169859   5.831   5.456   1.247  0.0521 -0.0231  0.3229
16148TIP3    H269860   5.937   5.532   1.170 -0.3972  0.0766 -0.2070
16149TIP3   OH269861   6.754   0.330   3.421  0.1762 -0.3831  0.2829
16149TIP3    H169862   6.774   0.350   3.329  0.5921 -1.0610  0.2115
16149TIP3    H269863   6.716   0.410   3.456  0.3745  0.0104 -0.3820
16150TIP3   OH269864   1.572   4.238  13.797 -0.3178 -0.0836  0.4933
16150TIP3    H169865   1.578   4.162  13.855  2.5446  0.6018  1.2381
16150TIP3    H269866   1.630   4.303  13.836 -1.0480  1.7352 -1.2611
16151TIP3   OH269867   3.359   0.166  11.660 -0.0737  0.8197  0.0790
16151TIP3    H169868   3.342   0.207  11.575  0.9516  0.8396 -0.1295
16151TIP3    H269869   3.392   0.079  11.638  0.8110  1.0576  0.4277
16152TIP3   OH269870   3.013   1.869  14.480 -0.4680  0.2972  0.1893
16152TIP3    H169871   3.082   1.893  14.542  1.5071 -2.2026 -0.8810
16152TIP3    H269872   2.962   1.802  14.525  0.3324 -0.7762 -0.4837
16153TIP3   OH269873   0.167   1.387   2.350 -0.2694  0.5140  0.2940
16153TIP3    H169874   0.123   1.434   2.421  0.5460 -0.2108  1.3122
16153TIP3    H269875   0.248   1.435   2.335 -0.1535  0.3116  0.2708
16154TIP3   OH269876   5.210   6.516  13.673 -0.4804  0.4431  0.2164
16154TIP3    H169877   5.241   6.579  13.608  0.7407 -0.8704 -0.5550
16154TIP3    H269878   5.281   6.452  13.680 -0.0971  1.0531  3.6366
16155TIP3   OH269879   1.378   0.390  16.672  0.9501  0.6081  0.3140
16155TIP3    H169880   1.406   0.454  16.738  0.3264 -0.6130  1.8409
16155TIP3    H269881   1.318   0.332  16.720 -0.2439  0.2028 -1.5829
16156TIP3   OH269882   0.997   0.241   2.130 -0.1172  0.3678  0.6635
16156TIP3    H169883   0.902   0.230   2.140 -0.0848 -0.7677 -0.0839
16156TIP3    H269884   1.012   0.335   2.143 -1.4831  0.7355 -0.2529
16157TIP3   OH269885   3.559   0.503  14.576  0.4637  0.0331 -0.2937
16157TIP3    H169886   3.558   0.447  14.498 -1.0482 -2.2326  1.2036
16157TIP3    H269887   3.636   0.474  14.625 -1.0246 -1.8613  1.1107
16158TIP3   OH269888   0.935   5.675  13.042 -0.1213 -0.1143 -0.7019
16158TIP3    H169889   0.966   5.687  12.952  1.3596 -2.4488 -0.5865
16158TIP3    H269890   1.012   5.642  13.090 -1.0938  0.2894  1.2418
16159TIP3   OH269891   3.113   2.874   3.105  0.2510 -0.2945  0.4399
16159TIP3    H169892   3.070   2.943   3.055  2.0365  1.3999  1.0972
16159TIP3    H269893   3.050   2.852   3.174 -0.4059  0.6064  0.1536
16160TIP3   OH269894   5.341   3.917  16.202 -0.3613 -0.1757 -0.1164
16160TIP3    H169895   5.301   3.995  16.238 -3.4191 -1.8469  0.4570
16160TIP3    H269896   5.352   3.936  16.109 -1.2026  0.8847 -0.0136
16161TIP3   OH269897   2.722   2.721   3.634 -0.6594 -0.8179  0.3265
16161TIP3    H169898   2.787   2.664   3.592  0.0815 -0.4764  0.9816
16161TIP3    H269899   2.679   2.766   3.561 -0.6441 -1.5599 -0.1541
16162TIP3   OH269900   1.009   4.915   4.770  0.0300  0.1847 -0.9662
16162TIP3    H169901   1.016   4.820   4.776  0.4332  0.2905  0.7129
16162TIP3    H269902   0.924   4.935   4.809 -0.0116  0.5248 -1.2298
16163TIP3   OH269903   2.012   3.197   1.277 -0.3928 -0.0769 -0.0417
16163TIP3    H169904   1.960   3.190   1.357 -0.4611 -0.2966 -0.1043
16163TIP3    H269905   2.032   3.107   1.253 -0.2759 -0.0074 -0.2101
16164TIP3   OH269906   2.125   0.749   4.106 -0.1721  0.0593 -0.1332
16164TIP3    H169907   2.107   0.718   4.017 -0.0065  0.4583 -0.3106
16164TIP3    H269908   2.161   0.673   4.151  0.8484  0.1569 -0.7498
16165TIP3   OH269909   5.667   1.135   0.001 -0.0962 -0.4828 -0.2099
16165TIP3    H169910   5.760   1.149   0.013 -0.3110  1.2266 -0.3883
16165TIP3    H269911   5.642   1.078   0.074  0.7185  0.7018  1.0398
16166TIP3   OH269912   5.541   5.718   2.205  0.4850  0.3920  0.1903
16166TIP3    H169913   5.540   5.732   2.300  1.2363  1.6735  0.0292
16166TIP3    H269914   5.628   5.683   2.187  0.0123 -0.7802  0.0669
16167TIP3   OH269915   2.155   2.069  12.346  0.1883  0.5603  0.4466
16167TIP3    H169916   2.178   2.086  12.255 -0.7414  0.9120  0.2555
16167TIP3    H269917   2.191   2.143  12.394  2.6781 -0.7528  0.7322
16168TIP3   OH269918   1.604   4.989  15.952  0.2926 -0.0873  0.3873
16168TIP3    H169919   1.629   4.939  16.030 -0.1263  0.3067  0.7820
16168TIP3    H269920   1.663   4.958  15.883  0.5723 -0.5410  0.8268
16169TIP3   OH269921   0.886   4.082   3.325  0.7493 -0.0558 -0.0361
16169TIP3    H169922   0.966   4.110   3.368  1.0226 -0.9518  0.0699
16169TIP3    H269923   0.880   4.137   3.247  0.9344  0.6952  0.4673
16170TIP3   OH269924   6.585   3.473   0.121  0.5304  0.7510  0.3156
16170TIP3    H169925   6.541   3.496   0.039  1.4563  1.4525 -0.0092
16170TIP3    H269926   6.613   3.558   0.157 -0.4452  0.5131  1.7054
16171TIP3   OH269927   4.353   0.821   3.550  0.1866 -0.2535 -0.2586
16171TIP3    H169928   4.438   0.857   3.523  0.2068 -0.7354 -0.8696
16171TIP3    H269929   4.374   0.734   3.583  0.2278  0.4930  1.8518
16172TIP3   OH269930   1.765   0.009   3.420 -0.4421 -0.3528 -0.5337
16172TIP3    H169931   1.691  -0.051   3.428 -0.6897 -0.0487 -0.5290
16172TIP3    H269932   1.796  -0.003   3.330 -0.4496 -0.5322 -0.5128
16173TIP3   OH269933   2.856   4.239  17.018  0.4972 -0.6423 -0.1605
16173TIP3    H169934   2.908   4.315  17.042  0.2086 -0.4452 -0.1540
16173TIP3    H269935   2.870   4.177  17.089 -1.2657  0.3715  1.1584
16174TIP3   OH269936   5.427   0.235   3.510 -0.2979 -0.3299  0.0799
16174TIP3    H169937   5.479   0.192   3.442  0.7089  1.2371 -0.2014
16174TIP3    H269938   5.374   0.299   3.462 -0.1944  0.2126  0.6783
16175TIP3   OH269939   5.776   4.216   4.286 -0.3756  0.2180 -0.4702
16175TIP3    H169940   5.720   4.261   4.222 -0.9845  1.2062  0.7080
16175TIP3    H269941   5.865   4.242   4.263 -0.5934  0.6237 -0.8650
16176TIP3   OH269942   6.082   6.016   3.391 -0.1400 -0.0271 -0.4789
16176TIP3    H169943   5.991   5.998   3.368  0.6893 -3.5409 -1.6361
16176TIP3    H269944   6.078   6.045   3.482 -2.3676 -0.7651 -0.2754
16177TIP3   OH269945   1.634   2.036   4.045  0.1236  0.5172  0.0900
16177TIP3    H169946   1.662   2.053   3.955  0.1166 -1.7306 -0.3829
16177TIP3    H269947   1.709   2.063   4.098  0.9945 -0.1851 -0.7578
16178TIP3   OH269948   3.740   2.127  11.899  0.5135  0.4130 -0.8514
16178TIP3    H169949   3.784   2.174  11.828  0.1392  0.6814 -0.9089
16178TIP3    H269950   3.726   2.194  11.967  0.3026  0.3043 -0.7869
16179TIP3   OH269951   5.788   6.164  12.904  0.1755 -0.1082 -0.1689
16179TIP3    H169952   5.785   6.076  12.867  0.5069 -0.0184 -0.4105
16179TIP3    H269953   5.828   6.152  12.990  1.1300 -0.0612 -0.6008
16180TIP3   OH269954   4.482   0.574  16.883 -0.5919 -0.0855  0.0981
16180TIP3    H169955   4.435   0.614  16.956  1.2943  1.4948  0.5238
16180TIP3    H269956   4.552   0.524  16.924  0.1969  0.4324 -0.6015
16181TIP3   OH269957   3.873   4.855   3.173 -0.4759  0.5671 -0.3950
16181TIP3    H169958   3.851   4.924   3.110  1.0232  1.5820  0.1476
16181TIP3    H269959   3.878   4.899   3.257  0.8408 -0.1322 -0.0826
16182TIP3   OH269960   4.858   4.675  11.441 -0.6423  0.3735 -0.2029
16182TIP3    H169961   4.861   4.758  11.488  1.0833  0.5040 -0.4603
16182TIP3    H269962   4.903   4.614  11.499 -1.8967 -0.4028 -0.0178
16183TIP3   OH269963   5.659   3.554   4.757 -0.1119 -0.0098 -0.0515
16183TIP3    H169964   5.642   3.642   4.723  0.5646  0.8537  1.7304
16183TIP3    H269965   5.579   3.531   4.803 -0.4655 -0.5429 -0.9183
16184TIP3   OH269966   6.505   0.790   2.038 -0.1151 -0.4555  0.5472
16184TIP3    H169967   6.458   0.725   2.089 -1.3163 -0.8523 -0.9929
16184TIP3    H269968   6.466   0.874   2.063 -0.4567 -0.6076  0.5264
16185TIP3   OH269969   4.742   3.164   2.190 -0.0804  0.0747 -0.2800
16185TIP3    H169970   4.822   3.171   2.241 -0.0879 -0.9316 -0.1158
16185TIP3    H269971   4.710   3.254   2.184  1.4185  0.5994 -0.9393
16186TIP3   OH269972   5.540   3.106   0.985 -0.0551  0.3146 -0.4040
16186TIP3    H169973   5.586   3.190   0.980  1.2710 -0.4747 -2.3494
16186TIP3    H269974   5.558   3.063   0.902 -1.6932 -1.4212  0.0685
16187TIP3   OH269975   4.462   1.601  12.243  0.2099 -0.1322 -0.5645
16187TIP3    H169976   4.478   1.602  12.149  0.3821  0.9380 -0.5321
16187TIP3    H269977   4.450   1.693  12.267 -1.2668 -0.4926  0.2200
16188TIP3   OH269978   1.829   4.302  12.852 -0.2937  0.2306 -0.1838
16188TIP3    H169979   1.751   4.357  12.860 -0.2407  0.2727  0.0691
16188TIP3    H269980   1.831   4.252  12.934  0.4347  0.8787  0.2197
16189TIP3   OH269981   4.337   5.646  15.800  0.1850 -0.0697 -0.1790
16189TIP3    H169982   4.331   5.730  15.846  1.3900 -0.5890  1.0092
16189TIP3    H269983   4.424   5.647  15.759  0.0302 -0.5483 -0.5332
16190TIP3   OH269984   0.775   0.368  15.648  1.1967  0.1094 -0.2530
16190TIP3    H169985   0.844   0.405  15.704  1.4954 -1.5798  0.6006
16190TIP3    H269986   0.722   0.316  15.709 -0.0538  0.3331 -1.1316
16191TIP3   OH269987   2.954   0.174  14.222  0.1499 -0.4795 -0.8495
16191TIP3    H169988   2.921   0.201  14.136 -2.9797 -0.3369  0.2653
16191TIP3    H269989   3.000   0.251  14.255 -0.3992  0.1928 -1.5842
16192TIP3   OH269990   3.355   2.306  17.332 -0.5967  0.0792  0.1404
16192TIP3    H169991   3.401   2.333  17.252  0.6099  0.7148  1.0185
16192TIP3    H269992   3.362   2.211  17.332  1.7251  0.1916  0.7778
16193TIP3   OH269993   1.605   1.641   3.973  0.3149  0.1629  0.0288
16193TIP3    H169994   1.677   1.662   3.913 -0.7705  0.1849 -1.3253
16193TIP3    H269995   1.535   1.608   3.916 -0.6738 -0.0737  1.3255
16194TIP3   OH269996   3.558   2.899   2.416 -0.0721  0.2315  0.2288
16194TIP3    H169997   3.512   2.863   2.340  0.2314 -0.0963  0.1969
16194TIP3    H269998   3.597   2.823   2.458 -2.2334  0.0528  2.1107
16195TIP3   OH269999   3.792   2.489  17.100  0.0437 -0.1905  0.4174
16195TIP3    H170000   3.801   2.583  17.116  0.8710 -0.3508  0.9737
16195TIP3    H270001   3.710   2.480  17.052  1.2918  1.1105 -2.1378
16196TIP3   OH270002   6.153   1.732   1.877  0.1867  0.0667  0.3056
16196TIP3    H170003   6.123   1.752   1.788 -0.5870  1.7113  0.8799
16196TIP3    H270004   6.170   1.638   1.876 -2.2118 -0.4540 -0.9178
16197TIP3   OH270005   1.914   0.458  14.158  0.1600  0.0210 -0.3626
16197TIP3    H170006   1.821   0.448  14.136 -0.0588  1.9592 -0.4986
16197TIP3    H270007   1.930   0.553  14.152  2.0761 -0.2447 -0.0502
16198TIP3   OH270008   3.519   3.978  14.615 -0.8072 -0.2411 -0.2761
16198TIP3    H170009   3.485   3.908  14.670  1.3248 -2.5177 -1.6130
16198TIP3    H270010   3.593   4.013  14.664 -0.8104 -0.1241 -0.3548
16199TIP3   OH270011   0.415   1.424  15.242 -0.0503 -0.0372 -0.2407
16199TIP3    H170012   0.322   1.401  15.244 -0.0859  0.1427  0.3538
16199TIP3    H270013   0.436   1.447  15.333 -0.2108  3.0150 -0.8607
16200TIP3   OH270014   3.763   5.597  15.142 -0.5054 -0.2064 -0.4759
16200TIP3    H170015   3.846   5.614  15.188 -0.4104 -1.2138 -0.2385
16200TIP3    H270016   3.698   5.595  15.212 -0.5083 -0.8032 -0.4926
16201TIP3   OH270017   3.420   0.567   5.300 -0.3616 -0.2274  0.0974
16201TIP3    H170018   3.443   0.603   5.215 -1.2593  1.0660  0.3726
16201TIP3    H270019   3.501   0.570   5.351  0.2112 -1.1348 -0.7338
16202TIP3   OH270020   4.180   3.606   5.556 -0.0529 -0.0195  0.5159
16202TIP3    H170021   4.149   3.690   5.589 -2.5683 -0.0092 -1.5253
16202TIP3    H270022   4.139   3.540   5.612  1.1760  0.0365  1.5337
16203TIP3   OH270023   5.255   4.173   0.152  0.3568 -0.1835 -0.1036
16203TIP3    H170024   5.256   4.154   0.246 -0.2686  0.4744  0.0481
16203TIP3    H270025   5.253   4.087   0.111  0.7772 -0.4832  0.4812
16204TIP3   OH270026   4.163   1.606  16.048 -0.0018 -0.2786 -0.5481
16204TIP3    H170027   4.251   1.581  16.078  0.4154  1.5515 -0.1211
16204TIP3    H270028   4.169   1.606  15.953  0.2666 -0.7751 -0.5350
16205TIP3   OH270029   4.386   3.358   5.622 -0.3832  0.3114  0.5421
16205TIP3    H170030   4.387   3.285   5.560 -0.2412 -0.4019  1.3655
16205TIP3    H270031   4.315   3.414   5.592  1.9392  1.9231 -2.4571
16206TIP3   OH270032   6.389   4.644  11.602 -0.2369  0.2512 -0.2006
16206TIP3    H170033   6.453   4.574  11.608 -0.5728 -0.1883 -1.4168
16206TIP3    H270034   6.440   4.725  11.612  0.5646 -0.0788 -1.3852
16207TIP3   OH270035   1.315   1.830  14.705  0.0253 -0.3361 -0.3296
16207TIP3    H170036   1.336   1.922  14.718 -1.7288 -0.1714  2.3271
16207TIP3    H270037   1.399   1.787  14.695  0.8943  1.5089 -1.4417
16208TIP3   OH270038   6.600   1.426  13.518 -0.6268  0.0410 -0.3537
16208TIP3    H170039   6.505   1.421  13.506 -0.7467 -0.1675  0.5831
16208TIP3    H270040   6.628   1.335  13.528 -0.3883  0.1310 -0.1863
16209TIP3   OH270041   0.977   1.001  17.105 -0.1532  0.0021 -0.0320
16209TIP3    H170042   0.921   0.924  17.094  1.7615 -1.6581  1.0549
16209TIP3    H270043   0.991   1.035  17.017 -0.0109 -1.7130 -0.6974
16210TIP3   OH270044   3.686   6.048   0.846  0.1436 -0.1004 -0.2849
16210TIP3    H170045   3.643   6.039   0.761  0.8255  1.0018 -0.7758
16210TIP3    H270046   3.774   6.013   0.832  0.2361  0.0227 -0.0203
16211TIP3   OH270047   5.886   2.966   5.710 -0.1069 -0.0241  0.1350
16211TIP3    H170048   5.895   2.879   5.750 -1.2551  0.0975  0.6870
16211TIP3    H270049   5.806   3.002   5.748  1.2233  1.9722  1.2298
16212TIP3   OH270050   2.550   1.362   2.942 -0.6980 -0.2821 -0.2092
16212TIP3    H170051   2.543   1.441   2.889 -0.2446  0.3025  0.5859
16212TIP3    H270052   2.471   1.363   2.997  0.0504  0.4573  0.8974
16213TIP3   OH270053   1.244   3.505  14.850 -0.0215  0.0960  0.3864
16213TIP3    H170054   1.190   3.427  14.838  2.7815 -1.8439 -0.6933
16213TIP3    H270055   1.262   3.536  14.761  2.0102 -0.4119  0.5609
16214TIP3   OH270056   0.561   5.372  10.810 -0.5992 -0.2607 -0.2353
16214TIP3    H170057   0.465   5.379  10.809 -0.5059  2.7576  1.2246
16214TIP3    H270058   0.581   5.341  10.899 -0.1898  1.8578  0.4562
16215TIP3   OH270059   3.292   0.779   5.892  0.0638  0.0037  0.8184
16215TIP3    H170060   3.245   0.741   5.966  0.6498  2.0863  2.3448
16215TIP3    H270061   3.383   0.753   5.906  0.1550  0.2865  0.7568
16216TIP3   OH270062   4.811   5.850  15.759 -0.5527 -0.1557  0.5925
16216TIP3    H170063   4.904   5.831  15.753 -0.1375  0.8404  2.8642
16216TIP3    H270064   4.790   5.893  15.675  1.0296 -0.3184  0.0775
16217TIP3   OH270065   0.376   6.551   3.124 -0.4885  0.5365  0.1038
16217TIP3    H170066   0.449   6.504   3.167  1.0651  1.5646 -1.2791
16217TIP3    H270067   0.372   6.635   3.169  0.7256  1.3683 -1.2752
16218TIP3   OH270068   2.552   6.621  13.603  0.1775  0.0867 -0.1646
16218TIP3    H170069   2.646   6.616  13.583  0.0165 -1.1330 -0.7383
16218TIP3    H270070   2.530   6.532  13.630 -0.4725  0.7540  1.6275
16219TIP3   OH270071   3.180   4.485  11.450 -0.9263 -0.2398 -0.2551
16219TIP3    H170072   3.209   4.455  11.364  0.8532 -0.1852  0.2758
16219TIP3    H270073   3.131   4.412  11.487  1.9104 -1.9930  0.3496
16220TIP3   OH270074   2.164   1.956  15.162 -0.1214  0.1089  0.1308
16220TIP3    H170075   2.130   1.872  15.191 -0.7083 -0.4652 -2.0977
16220TIP3    H270076   2.195   1.998  15.243 -1.1038 -1.6226  1.4722
16221TIP3   OH270077   0.718   5.920  12.721 -0.0759 -0.6801 -0.0183
16221TIP3    H170078   0.624   5.913  12.736 -0.0334 -0.6204  0.2838
16221TIP3    H270079   0.748   5.830  12.708  0.0081 -0.8047  1.0162
16222TIP3   OH270080   3.048   2.691  16.119 -0.2280  0.2670 -0.4185
16222TIP3    H170081   3.055   2.778  16.159  0.6814 -0.8550  2.0187
16222TIP3    H270082   3.138   2.667  16.098 -0.2616 -0.7590  0.5109
16223TIP3   OH270083   5.962   0.418   3.396 -0.0498 -0.0114 -0.0437
16223TIP3    H170084   5.949   0.416   3.301  0.3229  0.8691 -0.1237
16223TIP3    H270085   6.056   0.430   3.407  0.0685 -1.2073  0.4668
16224TIP3   OH270086   3.750   2.136  10.730  0.0387  0.3457 -0.0018
16224TIP3    H170087   3.725   2.143  10.822  1.3413 -0.0301  0.4076
16224TIP3    H270088   3.683   2.080  10.691 -1.5001  1.9198  0.3057
16225TIP3   OH270089   5.780   4.318   3.160  0.0677 -0.2567 -0.2333
16225TIP3    H170090   5.754   4.396   3.209  3.7957  0.4218  1.0051
16225TIP3    H270091   5.810   4.351   3.076 -0.3586 -0.6628 -0.5521
16226TIP3   OH270092   0.946   4.187  13.995  0.1250  0.2281  0.1000
16226TIP3    H170093   0.962   4.239  14.074 -1.5001 -1.3701  1.5947
16226TIP3    H270094   0.858   4.215  13.967  0.0620 -0.2983 -0.2232
16227TIP3   OH270095   4.628   0.002   1.497  0.2850 -0.4113 -0.1993
16227TIP3    H170096   4.617   0.001   1.402  0.1739  2.1546 -0.3020
16227TIP3    H270097   4.704  -0.054   1.513 -0.1365 -1.4762 -1.6920
16228TIP3   OH270098   0.368   5.599  15.962 -0.6001 -0.5970  0.2023
16228TIP3    H170099   0.334   5.687  15.977 -1.3864 -0.6098 -1.3509
16228TIP3    H270100   0.424   5.608  15.885  0.7280 -1.1410  1.0560
16229TIP3   OH270101   3.853   1.622  15.944 -0.3444  0.2535  0.1161
16229TIP3    H170102   3.876   1.586  15.858 -3.8192  0.0002 -0.8809
16229TIP3    H270103   3.874   1.716  15.937 -1.3189  0.3917 -1.3585
16230TIP3   OH270104   4.817   5.391   1.641  0.0956  0.1697  0.0153
16230TIP3    H170105   4.779   5.400   1.729 -0.1467  1.9002 -0.2317
16230TIP3    H270106   4.909   5.367   1.657 -0.2760 -0.8973  0.6812
16231TIP3   OH270107   5.704   5.613  11.874  0.3207 -0.0141  0.1717
16231TIP3    H170108   5.741   5.528  11.899  1.3125 -0.0112 -1.1307
16231TIP3    H270109   5.777   5.659  11.833 -0.4331  1.1325  0.0828
16232TIP3   OH270110   0.863   3.895   1.027  0.2298 -0.2682 -0.2289
16232TIP3    H170111   0.791   3.838   1.052  0.0240 -0.4320 -1.1387
16232TIP3    H270112   0.938   3.863   1.076 -0.3534  0.0400  0.8887
16233TIP3   OH270113   5.261   1.554   3.852  0.4773 -0.3141 -0.3981
16233TIP3    H170114   5.248   1.646   3.877 -1.3027 -0.7091  0.3051
16233TIP3    H270115   5.335   1.525   3.905 -0.2187  0.1858  0.8830
16234TIP3   OH270116   2.264   2.178   5.081  0.3591  0.1738  0.5283
16234TIP3    H170117   2.358   2.192   5.067  0.5871  0.5040  2.2204
16234TIP3    H270118   2.259   2.088   5.114 -0.1221 -0.4328 -1.0760
16235TIP3   OH270119   5.234   0.895  12.706 -0.2303  1.1335  0.0966
16235TIP3    H170120   5.267   0.826  12.649  2.0624  2.6265 -0.5334
16235TIP3    H270121   5.197   0.960  12.645 -1.1258  1.0894  0.5788
16236TIP3   OH270122   1.052   4.518  14.935  0.0544 -0.3515  0.8819
16236TIP3    H170123   0.994   4.581  14.892 -0.7052 -1.4094  0.2964
16236TIP3    H270124   1.043   4.438  14.882  1.5825 -0.7293  1.1502
16237TIP3   OH270125   4.409   2.430  14.239  0.0455  0.8235  0.3492
16237TIP3    H170126   4.347   2.369  14.198  0.4266 -0.0818  1.0712
16237TIP3    H270127   4.452   2.378  14.307  1.0085  1.6665  0.4115
16238TIP3   OH270128   6.311   2.144  11.266 -0.5096 -0.4459 -0.3161
16238TIP3    H170129   6.301   2.228  11.222 -0.9581 -0.3507 -0.0456
16238TIP3    H270130   6.382   2.100  11.220  1.5373  1.1184  1.1675
16239TIP3   OH270131   3.570   0.221  14.522 -0.4345 -0.0777  0.3441
16239TIP3    H170132   3.650   0.171  14.503  0.3584  1.4058 -0.3679
16239TIP3    H270133   3.528   0.171  14.592 -1.2129 -3.3317 -2.1757
16240TIP3   OH270134   3.263   3.491   5.328  0.2201 -0.0369  0.3030
16240TIP3    H170135   3.298   3.402   5.319 -1.1910 -0.5296 -0.7596
16240TIP3    H270136   3.282   3.533   5.245 -1.0712 -0.1156 -0.0642
16241TIP3   OH270137   4.381   0.906  15.696  0.3374  0.1629 -0.1473
16241TIP3    H170138   4.419   0.825  15.662 -0.0034 -0.1164  0.1303
16241TIP3    H270139   4.444   0.937  15.760  0.3185 -0.0587 -0.0187
16242TIP3   OH270140   4.247   3.035  12.013 -0.1294  0.2777  0.3270
16242TIP3    H170141   4.294   3.013  11.933 -3.2865 -1.0943 -1.3309
16242TIP3    H270142   4.253   2.956  12.067  1.0073  0.7795  0.9509
16243TIP3   OH270143   0.361   0.091  15.425  0.6486 -0.6393 -0.9936
16243TIP3    H170144   0.401   0.173  15.454  0.5848 -0.3547 -1.6898
16243TIP3    H270145   0.306   0.064  15.498  0.8907 -0.2110 -0.6489
16244TIP3   OH270146   2.234   0.331   0.333 -0.3144  0.0920 -0.2397
16244TIP3    H170147   2.296   0.398   0.361 -1.5600  0.6947  1.2226
16244TIP3    H270148   2.154   0.379   0.313 -0.8168 -0.8369 -0.5393
16245TIP3   OH270149   5.120   6.080  11.670  0.5993  0.5540  0.0657
16245TIP3    H170150   5.164   6.164  11.662  0.6253  0.8742  2.6387
16245TIP3    H270151   5.082   6.064  11.584  1.9150  2.4247 -0.9232
16246TIP3   OH270152   0.685   5.586  13.994 -0.1345 -0.0754 -0.7553
16246TIP3    H170153   0.766   5.613  14.037 -0.4764 -1.0867  0.6045
16246TIP3    H270154   0.710   5.572  13.902  1.4489 -1.1840 -0.2061
16247TIP3   OH270155   5.738   0.058   1.115 -0.0340 -0.7714  0.3897
16247TIP3    H170156   5.672   0.004   1.071 -0.6985  1.2175 -1.2332
16247TIP3    H270157   5.809   0.065   1.051  1.6415 -2.4817  1.9320
16248TIP3   OH270158   1.503   4.285   4.959  0.1483  0.2774 -0.2180
16248TIP3    H170159   1.450   4.329   4.893 -0.9461  0.5702  0.8226
16248TIP3    H270160   1.462   4.198   4.968  0.6978 -0.0027 -0.3915
16249TIP3   OH270161   5.373   6.224  11.441 -0.7265 -0.1955 -0.4423
16249TIP3    H170162   5.420   6.276  11.376  2.2552 -0.5561  1.2327
16249TIP3    H270163   5.375   6.135  11.406  1.5435 -0.5265  0.3560
16250TIP3   OH270164   2.033   3.252   0.296  0.8497 -0.0684  0.4858
16250TIP3    H170165   2.126   3.274   0.305  1.0622 -1.1248  1.0091
16250TIP3    H270166   2.026   3.214   0.208  1.4858 -2.5642  1.4456
16251TIP3   OH270167   5.865   6.012   0.400  0.3535 -0.1697 -0.3591
16251TIP3    H170168   5.870   5.961   0.320  3.0363 -1.9100  0.7638
16251TIP3    H270169   5.920   5.964   0.462 -1.9700  0.8030  2.7064
16252TIP3   OH270170   1.916   2.780  13.187 -0.3518  0.2954 -0.0417
16252TIP3    H170171   1.915   2.872  13.161  1.6604  0.2020 -0.6182
16252TIP3    H270172   1.974   2.778  13.263 -1.2113 -0.3733  0.6159
16253TIP3   OH270173   6.280   0.979   1.831  0.1614 -0.2093 -0.3528
16253TIP3    H170174   6.304   0.893   1.866  0.0911 -0.2750 -0.4670
16253TIP3    H270175   6.301   0.974   1.738 -1.8850 -0.8757 -0.8425
16254TIP3   OH270176   4.658   6.613   1.838 -0.5663 -0.0926  0.0281
16254TIP3    H170177   4.634   6.682   1.776  0.8528  0.4738  0.0801
16254TIP3    H270178   4.594   6.622   1.909 -0.9598  0.5639 -0.4014
16255TIP3   OH270179   1.715   1.943   5.684  0.0949 -0.1235 -0.1620
16255TIP3    H170180   1.640   1.910   5.733  0.3110  0.7288  0.7844
16255TIP3    H270181   1.677   2.002   5.619 -0.0394  0.8406  0.7582
16256TIP3   OH270182   2.614   1.858   4.138 -0.0171 -0.2382  0.1053
16256TIP3    H170183   2.681   1.792   4.120  1.2387  1.2139 -0.8408
16256TIP3    H270184   2.596   1.898   4.053 -1.6288 -0.1567  0.4640
16257TIP3   OH270185   1.403   6.435   2.996 -0.3765 -0.4763 -0.3216
16257TIP3    H170186   1.498   6.442   3.001 -0.4406  0.2238  0.0112
16257TIP3    H270187   1.374   6.433   3.087 -0.8337  1.6986 -0.3804
16258TIP3   OH270188   4.733   0.370  12.173 -0.4104  0.0939  0.6533
16258TIP3    H170189   4.651   0.324  12.188  0.0702 -0.8166  0.5874
16258TIP3    H270190   4.726   0.402  12.083 -0.2366 -0.9889  0.2362
16259TIP3   OH270191   4.723   1.270  11.046 -0.1040 -0.1103 -0.3277
16259TIP3    H170192   4.772   1.330  10.989  0.7176 -0.1410  0.3220
16259TIP3    H270193   4.756   1.183  11.024  0.6415 -0.0725  0.5767
16260TIP3   OH270194   5.508   6.476   4.220 -0.5551 -0.7942 -0.1809
16260TIP3    H170195   5.540   6.556   4.178  0.5354 -2.1528 -2.1057
16260TIP3    H270196   5.538   6.482   4.311 -0.0179  0.7196 -0.4444
16261TIP3   OH270197   6.548   0.072  14.984 -0.0786  0.1340  0.1521
16261TIP3    H170198   6.476   0.115  14.938 -0.3474 -0.2383  0.2290
16261TIP3    H270199   6.519   0.067  15.075  0.3194  0.5778  0.3081
16262TIP3   OH270200   1.872   5.385   0.234 -0.7855  0.0080  0.3973
16262TIP3    H170201   1.890   5.297   0.266  0.8776  0.7785  1.8193
16262TIP3    H270202   1.841   5.432   0.311 -0.3144  0.9882  0.0089
16263TIP3   OH270203   1.424   3.316   1.970  0.3139  0.4669 -0.2383
16263TIP3    H170204   1.334   3.344   1.958  0.7497  1.2505 -1.8650
16263TIP3    H270205   1.425   3.224   1.943  0.1358  0.6336 -0.7994
16264TIP3   OH270206   0.803   2.855   4.273  0.4418 -0.2143  0.0756
16264TIP3    H170207   0.762   2.868   4.358  0.2532  0.2597 -0.0872
16264TIP3    H270208   0.763   2.920   4.216  0.3040 -0.7632 -0.4698
16265TIP3   OH270209   0.058   5.173  14.324  0.1556 -0.3245 -0.1310
16265TIP3    H170210  -0.015   5.178  14.386  0.1477 -1.3310 -0.0484
16265TIP3    H270211   0.047   5.090  14.279  1.5366 -0.7451  0.2450
16266TIP3   OH270212   5.370   0.848   0.344 -0.6487 -0.5580 -0.2797
16266TIP3    H170213   5.370   0.934   0.387 -0.2758 -0.5401 -0.3129
16266TIP3    H270214   5.356   0.786   0.415 -0.6120 -0.4900 -0.2126
16267TIP3   OH270215   4.691   4.694   2.631  0.8114  0.3240  0.6312
16267TIP3    H170216   4.778   4.665   2.659  1.2684  0.6586 -0.4049
16267TIP3    H270217   4.638   4.614   2.629  1.5763 -0.1824 -0.4453
16268TIP3   OH270218   6.003   5.137   0.759 -0.3869  0.6654  0.4204
16268TIP3    H170219   5.956   5.167   0.837  0.3823  0.6719  0.8918
16268TIP3    H270220   5.975   5.197   0.690  0.4416  1.9468  1.1423
16269TIP3   OH270221   3.984   1.743  11.099  0.0465  0.4023  0.3401
16269TIP3    H170222   4.074   1.761  11.126 -0.5504  1.3974  1.8099
16269TIP3    H270223   3.961   1.817  11.042 -0.8973  2.0859  2.7140
16270TIP3   OH270224   5.585   1.417  12.210  0.0081 -0.3624  0.5773
16270TIP3    H170225   5.653   1.475  12.245  0.1301  0.8372 -1.5045
16270TIP3    H270226   5.503   1.453  12.242  0.1913 -0.1898  0.8550
16271TIP3   OH270227   0.200   5.897  14.722 -0.5564  0.6153 -0.5825
16271TIP3    H170228   0.241   5.830  14.667 -0.8973 -0.3197  0.2667
16271TIP3    H270229   0.155   5.847  14.791  1.7313  1.7321  1.9118
16272TIP3   OH270230   5.604   2.153   0.032  0.0425  0.5882  0.0147
16272TIP3    H170231   5.528   2.095   0.033 -1.1031  2.0252  0.4406
16272TIP3    H270232   5.638   2.148  -0.058 -0.6756  0.0862 -0.2326
16273TIP3   OH270233   2.205   6.092  14.071 -0.3004  0.0307  0.0165
16273TIP3    H170234   2.114   6.061  14.071 -0.6074  0.8975  0.9312
16273TIP3    H270235   2.249   6.036  14.135 -1.1543  2.1903  2.6753
16274TIP3   OH270236   2.947   3.513   2.722  0.6578  0.0344  0.0178
16274TIP3    H170237   2.894   3.535   2.799  0.5246  0.2063 -0.1224
16274TIP3    H270238   3.032   3.486   2.757  0.0223 -1.6797  0.3509
16275TIP3   OH270239   5.730   0.516  16.746 -0.4565  0.1083 -0.0713
16275TIP3    H170240   5.792   0.583  16.719 -0.3403 -0.4645 -1.2817
16275TIP3    H270241   5.764   0.435  16.708 -0.0369 -0.8585  2.1863
16276TIP3   OH270242   1.920   3.127   6.561  0.1118 -0.2941  0.0885
16276TIP3    H170243   1.925   3.212   6.604 -1.2565  0.4902 -1.2162
16276TIP3    H270244   1.996   3.126   6.502 -0.9721  0.9703 -1.4301
16277TIP3   OH270245   6.245   1.576   3.572 -0.4558  0.5001 -0.0730
16277TIP3    H170246   6.296   1.652   3.546  1.1246 -0.5225 -0.0978
16277TIP3    H270247   6.280   1.551   3.658  0.1612 -1.1153 -0.7578
16278TIP3   OH270248   2.308   3.872   3.509  0.9093 -0.1904  0.1044
16278TIP3    H170249   2.244   3.808   3.541  0.9770  0.6935  2.1901
16278TIP3    H270250   2.260   3.954   3.505  1.4388  0.1128 -0.1244
16279TIP3   OH270251   1.477   1.301   3.229 -0.0319  0.0907 -0.1566
16279TIP3    H170252   1.553   1.242   3.226  0.4653  0.7206 -0.0157
16279TIP3    H270253   1.415   1.261   3.168  0.6590 -0.0888 -0.7718
16280TIP3   OH270254   3.551   3.135   4.492  0.2317 -0.1841  0.0855
16280TIP3    H170255   3.645   3.117   4.487 -0.1532 -2.0693 -3.5675
16280TIP3    H270256   3.516   3.064   4.545  0.8239  0.6806  1.7005
16281TIP3   OH270257   5.169   2.315   2.520 -0.5236 -0.2356 -0.2707
16281TIP3    H170258   5.217   2.389   2.556  0.5508 -0.5072 -1.0968
16281TIP3    H270259   5.155   2.337   2.428 -1.6688 -0.3352 -0.1370
16282TIP3   OH270260   4.316   6.475   6.207 -0.3221  0.1086 -0.1705
16282TIP3    H170261   4.334   6.383   6.222 -0.1430  0.1234 -0.2970
16282TIP3    H270262   4.295   6.510   6.294 -0.8049 -0.1410 -0.1877
16283TIP3   OH270263   4.398   1.699   0.678  0.1950 -0.2143  0.2217
16283TIP3    H170264   4.458   1.713   0.752  0.5579 -0.0838 -0.0962
16283TIP3    H270265   4.420   1.611   0.646 -0.8758 -0.8345  1.1026
16284TIP3   OH270266   2.478   4.156  15.615  0.7475 -0.4898  0.1640
16284TIP3    H170267   2.487   4.088  15.549 -0.0180  0.7114 -1.2422
16284TIP3    H270268   2.533   4.127  15.688  1.1072 -2.1680 -0.7382
16285TIP3   OH270269   2.066   4.715  16.197 -0.1125  0.4507 -0.1375
16285TIP3    H170270   2.010   4.763  16.257 -0.4548  0.1722 -0.2320
16285TIP3    H270271   2.088   4.634  16.243  1.3959  1.1730  0.4908
16286TIP3   OH270272   2.078   1.908   2.140  0.2672 -0.3745  0.3987
16286TIP3    H170273   2.024   1.982   2.113 -0.5203 -0.8932  0.5259
16286TIP3    H270274   2.166   1.929   2.107 -0.4588 -0.5690 -1.8074
16287TIP3   OH270275   0.300   4.724  14.838  0.5470  0.0881  0.1722
16287TIP3    H170276   0.239   4.689  14.903  1.2191 -0.7447  0.3634
16287TIP3    H270277   0.341   4.647  14.799  1.7083  0.6323  0.2721
16288TIP3   OH270278   2.986   6.441  11.495  0.0187 -0.2278  0.3065
16288TIP3    H170279   2.972   6.490  11.414  0.8024 -1.1102 -0.4002
16288TIP3    H270280   2.983   6.507  11.564  1.3346  0.8762 -0.6258
16289TIP3   OH270281   4.011   1.812  15.789  0.1441  0.0067  0.0802
16289TIP3    H170282   3.956   1.753  15.738  1.5173 -1.3889  0.1375
16289TIP3    H270283   4.088   1.828  15.734  0.8606 -0.1567  0.9911
16290TIP3   OH270284   1.720   1.618   2.232  0.6374 -0.6397  1.2169
16290TIP3    H170285   1.719   1.536   2.182  0.8721 -0.3492  0.7267
16290TIP3    H270286   1.813   1.640   2.239  0.5637 -0.3144  1.1820
16291TIP3   OH270287   6.682   5.189   5.263 -0.5951 -0.0630  0.2552
16291TIP3    H170288   6.729   5.166   5.183  1.5033  0.4509  1.2473
16291TIP3    H270289   6.691   5.111   5.319  0.0910  0.4303  0.8606
16292TIP3   OH270290   6.579   2.682   3.872 -0.3061 -0.1074  0.0579
16292TIP3    H170291   6.593   2.754   3.933 -0.5064  0.9424 -1.1102
16292TIP3    H270292   6.509   2.711   3.814 -0.5610 -1.3379 -0.2902
16293TIP3   OH270293   6.409   2.446   1.843 -0.1467  0.3979  0.2473
16293TIP3    H170294   6.456   2.493   1.774 -1.7704 -1.3546 -2.2459
16293TIP3    H270295   6.462   2.459   1.922  2.5524  1.4085 -1.5904
16294TIP3   OH270296   0.943   0.518  11.216 -0.1724  0.4862 -0.3817
16294TIP3    H170297   0.886   0.570  11.161 -1.5194 -0.0792  0.4195
16294TIP3    H270298   0.932   0.555  11.304  0.5270  0.2241 -0.1751
16295TIP3   OH270299   3.582   5.036  11.485 -0.0538 -0.2477  0.2485
16295TIP3    H170300   3.638   4.963  11.513  0.2482 -0.2248 -0.2773
16295TIP3    H270301   3.505   4.993  11.448  0.7482 -0.3514 -1.3686
16296TIP3   OH270302   6.158   1.766   2.177 -0.8228  0.4928 -0.6600
16296TIP3    H170303   6.205   1.711   2.114  1.2636  0.7558  0.5852
16296TIP3    H270304   6.114   1.704   2.235 -0.8363  0.2088 -0.9701
16297TIP3   OH270305   2.325   5.465   2.217 -0.3864 -0.2215  0.2262
16297TIP3    H170306   2.408   5.429   2.249  0.3409  1.5861  0.4845
16297TIP3    H270307   2.263   5.447   2.288 -0.0679 -0.9701  0.3297
16298TIP3   OH270308   5.623   6.049  16.020  0.3663  0.6116  0.0718
16298TIP3    H170309   5.603   6.102  16.098 -1.3410  1.5204 -0.9000
16298TIP3    H270310   5.566   5.972  16.029 -0.8099  1.3413 -0.8593
16299TIP3   OH270311   2.985   0.783   6.296  0.1137 -0.3859  0.0564
16299TIP3    H170312   2.922   0.848   6.327 -0.8725 -0.8501 -0.9280
16299TIP3    H270313   2.972   0.708   6.354  0.0563 -0.3289  0.1178
16300TIP3   OH270314   4.036   4.953  14.256 -0.0514  0.0700 -0.0838
16300TIP3    H170315   4.125   4.967  14.289 -0.2995 -1.9198  1.6935
16300TIP3    H270316   3.984   5.023  14.297  0.2636 -0.3523  1.0883
16301TIP3   OH270317   4.776   4.737   5.356  0.0031  0.1903 -0.0599
16301TIP3    H170318   4.777   4.770   5.266  2.8282 -0.2615 -0.2719
16301TIP3    H270319   4.787   4.816   5.410 -0.6897  0.3537 -0.1496
16302TIP3   OH270320   3.821   3.305  14.422  0.5505 -0.2338  0.2010
16302TIP3    H170321   3.726   3.314  14.423  0.5504 -0.1883  1.2337
16302TIP3    H270322   3.838   3.228  14.478  1.1773  0.5869  1.1734
16303TIP3   OH270323   3.969   5.585   2.483  0.3700  0.2481 -0.3899
16303TIP3    H170324   3.994   5.515   2.422 -0.9453 -0.3024 -0.3456
16303TIP3    H270325   3.961   5.663   2.428  0.9841  0.1659 -0.5992
16304TIP3   OH270326   0.303   4.958   4.830  0.3225 -0.7038 -0.4171
16304TIP3    H170327   0.388   4.947   4.872  0.1059  0.0936  0.2412
16304TIP3    H270328   0.251   4.883   4.860  0.5176 -0.7221 -0.1250
16305TIP3   OH270329   2.616   0.573   4.277  0.0911 -0.0794  0.2045
16305TIP3    H170330   2.600   0.495   4.224 -1.2179  1.1674 -1.3372
16305TIP3    H270331   2.615   0.645   4.214 -2.1237  1.5490  1.9730
16306TIP3   OH270332   0.285   0.373   6.339  0.0624  0.3464  0.0282
16306TIP3    H170333   0.294   0.420   6.421  1.6869  1.6007 -0.8238
16306TIP3    H270334   0.196   0.393   6.309 -0.7923 -0.6569  1.7338
16307TIP3   OH270335   5.610   1.737   3.988  0.3196  0.3640  0.2146
16307TIP3    H170336   5.586   1.659   4.038  1.4548  0.8554  1.5836
16307TIP3    H270337   5.537   1.797   4.001  0.7438  0.6166  1.6248
16308TIP3   OH270338   5.892   2.652   0.865 -0.2205  0.0316 -0.4216
16308TIP3    H170339   5.978   2.685   0.838  0.2935  0.1185  1.1780
16308TIP3    H270340   5.892   2.561   0.837  0.6379 -0.1182  0.0093
16309TIP3   OH270341   3.052   0.966  15.510  0.1864 -0.1692  0.3849
16309TIP3    H170342   3.011   0.991  15.593 -0.6717  2.9175 -0.7927
16309TIP3    H270343   3.140   1.003  15.515 -0.6615  2.2517 -0.8871
16310TIP3   OH270344   6.704   4.665   0.727 -0.4856  0.6894  0.2607
16310TIP3    H170345   6.706   4.593   0.790 -0.0523  0.0830 -0.4221
16310TIP3    H270346   6.611   4.681   0.711 -0.5883 -0.1208 -0.0180
16311TIP3   OH270347   0.440   3.240  11.298 -0.0262 -0.1552  0.2261
16311TIP3    H170348   0.502   3.188  11.248  0.1924 -0.3233  0.6712
16311TIP3    H270349   0.382   3.176  11.339 -1.0780  0.0212 -0.9145
16312TIP3   OH270350   1.800   6.728  16.008  0.3588 -0.1717  0.5178
16312TIP3    H170351   1.745   6.653  16.030 -1.2147  1.0858  1.1042
16312TIP3    H270352   1.809   6.724  15.913 -0.1105 -0.8437  0.4938
16313TIP3   OH270353   6.427   2.954   0.552 -0.2276  0.4507 -0.8437
16313TIP3    H170354   6.359   3.015   0.579  0.0165  1.1236 -1.6961
16313TIP3    H270355   6.431   2.963   0.456 -0.5823 -1.3214 -1.0748
16314TIP3   OH270356   0.067   5.414   5.549 -0.5786 -0.4511  0.0721
16314TIP3    H170357  -0.007   5.454   5.504 -0.8512  0.5760  1.3637
16314TIP3    H270358   0.122   5.488   5.576 -0.0446 -1.0739  0.7388
16315TIP3   OH270359   6.443   3.589  13.796  0.0368 -0.4449  0.4625
16315TIP3    H170360   6.464   3.565  13.886 -0.5478  1.2477  1.0923
16315TIP3    H270361   6.472   3.514  13.743  2.3798 -0.5580  1.8037
16316TIP3   OH270362   1.126   3.450  10.550  0.6936 -0.8659  0.6233
16316TIP3    H170363   1.179   3.518  10.592 -0.3205  0.4573 -0.1684
16316TIP3    H270364   1.036   3.481  10.557  0.2152 -2.0603  0.0901
16317TIP3   OH270365   1.876   3.981  14.980  0.0395 -0.2939 -0.5153
16317TIP3    H170366   1.960   4.001  14.940 -0.1301  2.4642  0.2763
16317TIP3    H270367   1.836   3.915  14.923  2.2942 -0.9519 -1.4120
16318TIP3   OH270368   2.359   2.094  13.203 -0.3752 -0.1484  0.5881
16318TIP3    H170369   2.440   2.125  13.243 -0.8159 -0.1634  1.5088
16318TIP3    H270370   2.364   1.999  13.206 -1.3776 -0.1894  2.6958
16319TIP3   OH270371   2.411   4.525   3.159 -0.3617 -0.5858  0.3753
16319TIP3    H170372   2.392   4.549   3.068 -0.6202 -0.1587  0.5414
16319TIP3    H270373   2.402   4.429   3.160 -0.2362 -0.6059 -0.0770
16320TIP3   OH270374   5.429   0.808  13.439 -0.0373 -0.0943  0.2206
16320TIP3    H170375   5.361   0.745  13.415 -2.2548  2.0880  0.4049
16320TIP3    H270376   5.444   0.859  13.359 -0.3163  0.8974  0.7780
16321TIP3   OH270377   5.532   2.739  11.183 -0.4081 -0.6686  0.1958
16321TIP3    H170378   5.507   2.647  11.172 -0.7136 -0.4691 -0.9517
16321TIP3    H270379   5.619   2.736  11.223  0.1460 -1.4925 -1.0110
16322TIP3   OH270380   6.359   2.033   6.094  0.9492  0.3654 -0.0609
16322TIP3    H170381   6.435   2.046   6.037 -0.1107  0.4396 -1.5038
16322TIP3    H270382   6.334   2.121   6.122 -0.2110  0.6238 -1.7840
16323TIP3   OH270383   5.060   3.312   2.046  0.6320 -0.5099 -0.0128
16323TIP3    H170384   5.047   3.232   2.096 -0.2999 -0.5987 -0.3799
16323TIP3    H270385   5.032   3.382   2.105  2.8020 -0.2835  0.8549
16324TIP3   OH270386   6.075   0.990  12.816  0.3970  0.0382  0.0980
16324TIP3    H170387   5.985   1.008  12.789  0.4004 -0.4245 -0.2273
16324TIP3    H270388   6.107   0.926  12.753  1.8835  2.1861 -1.4661
16325TIP3   OH270389   4.816   5.363   5.490 -0.5419 -0.4891  0.5843
16325TIP3    H170390   4.791   5.289   5.546 -0.8803 -0.9906 -0.2049
16325TIP3    H270391   4.866   5.323   5.418 -0.6124  0.0689  0.2160
16326TIP3   OH270392   5.526   3.962   0.742  0.2949  0.5564 -0.0966
16326TIP3    H170393   5.447   3.913   0.765  1.1511 -0.5469  0.5940
16326TIP3    H270394   5.584   3.896   0.703  1.4403  1.0347  0.7627
16327TIP3   OH270395   4.919   4.015  10.828 -0.0519 -0.7559  0.1396
16327TIP3    H170396   4.905   3.940  10.771 -2.2330  0.0579 -0.4704
16327TIP3    H270397   4.832   4.039  10.859  0.5047  1.7842 -0.0449
16328TIP3   OH270398   6.181   1.544   5.323  0.1060 -0.7677 -0.5412
16328TIP3    H170399   6.193   1.465   5.375 -0.4523 -0.8045 -0.4571
16328TIP3    H270400   6.241   1.608   5.362 -0.0942 -0.8839 -0.0331
16329TIP3   OH270401   1.797   0.853   4.481 -0.4765  0.3611 -0.1415
16329TIP3    H170402   1.715   0.896   4.507 -0.9186 -0.0175 -0.8686
16329TIP3    H270403   1.864   0.895   4.535 -0.5726  3.3384 -2.0966
16330TIP3   OH270404   5.132   3.076  15.803 -0.0512  0.4181  0.6250
16330TIP3    H170405   5.216   3.122  15.793  0.1534  0.0307  0.5432
16330TIP3    H270406   5.154   2.984  15.789 -0.4862  0.3127  0.6432
16331TIP3   OH270407   1.693   1.307  16.699 -0.0748  0.2506 -0.0577
16331TIP3    H170408   1.658   1.344  16.781 -1.7569 -0.3862 -0.4581
16331TIP3    H270409   1.754   1.239  16.728 -0.0406  0.5746  0.6643
16332TIP3   OH270410   1.549   1.799  12.222  0.6394  0.2913 -0.0408
16332TIP3    H170411   1.640   1.774  12.208  1.0394  0.3665  2.1293
16332TIP3    H270412   1.519   1.741  12.292 -1.0616  0.1353 -0.8484
16333TIP3   OH270413   4.554   5.678  15.556  0.6619  0.0315 -0.2335
16333TIP3    H170414   4.603   5.693  15.637  1.3909 -0.1755 -0.6287
16333TIP3    H270415   4.527   5.766  15.529 -0.1631  0.0483  0.5709
16334TIP3   OH270416   1.058   3.107  16.065  0.3557 -0.1978  0.3574
16334TIP3    H170417   1.093   3.169  16.129 -0.7359  0.3821  0.4104
16334TIP3    H270418   1.128   3.042  16.054  1.0045  0.3220  1.2742
16335TIP3   OH270419   6.050   2.795   1.638  0.0334 -0.0441 -0.9475
16335TIP3    H170420   5.976   2.803   1.578  0.3924  0.7545 -1.3008
16335TIP3    H270421   6.016   2.744   1.711 -1.1420  1.0826 -0.6714
16336TIP3   OH270422   3.706   3.714  14.288  0.3880  0.4976 -0.4027
16336TIP3    H170423   3.773   3.782  14.284  0.1300  0.6939 -2.0123
16336TIP3    H270424   3.648   3.741  14.359  0.6167  1.6571 -0.6444
16337TIP3   OH270425   6.670   5.128   3.795  0.7044  0.0176  0.7602
16337TIP3    H170426   6.587   5.108   3.750 -0.0028  4.0843 -0.1431
16337TIP3    H270427   6.737   5.110   3.729  0.2879 -0.3997  0.4366
16338TIP3   OH270428   2.379   0.697   5.262  0.0080  0.7840 -0.3991
16338TIP3    H170429   2.422   0.657   5.338  1.0555  2.6281  0.0414
16338TIP3    H270430   2.349   0.782   5.294 -2.8005  0.1493 -1.1077
16339TIP3   OH270431   5.863   2.230  13.559  0.7612 -0.3660 -0.1943
16339TIP3    H170432   5.958   2.233  13.543  0.7978  0.4789  0.1284
16339TIP3    H270433   5.837   2.322  13.562 -0.0775 -0.5982 -0.3000
16340TIP3   OH270434   3.377   4.941  16.557 -0.3925 -0.2299  0.0209
16340TIP3    H170435   3.435   5.009  16.523  0.7318 -1.3199 -0.2973
16340TIP3    H270436   3.332   4.983  16.630 -0.9520  1.3530 -1.1916
16341TIP3   OH270437   6.752   4.514  12.988  0.1679 -0.2767  0.0817
16341TIP3    H170438   6.762   4.451  12.918  3.9164 -0.2070  0.3961
16341TIP3    H270439   6.790   4.595  12.955  0.9528  0.0952  1.7603
16342TIP3   OH270440   1.469   1.220   1.490 -0.1467  0.5539 -0.4668
16342TIP3    H170441   1.517   1.173   1.558  2.0534 -0.4454 -2.5950
16342TIP3    H270442   1.396   1.162   1.467 -0.1366  0.3082  0.1116
16343TIP3   OH270443   1.342   4.631   4.169 -0.5544  0.0157  0.1710
16343TIP3    H170444   1.310   4.706   4.219 -1.4604 -0.2477  0.0053
16343TIP3    H270445   1.287   4.630   4.091 -0.5793 -0.8484  0.1955
16344TIP3   OH270446   4.099   0.118   5.043 -0.2405 -0.1036 -0.1699
16344TIP3    H170447   4.025   0.059   5.040  0.4376 -0.9319 -2.1532
16344TIP3    H270448   4.101   0.159   4.956  2.0689 -0.7304 -0.4783
16345TIP3   OH270449   3.283   2.046  13.715 -0.3477 -0.6318 -0.8150
16345TIP3    H170450   3.248   2.135  13.707  1.9836  0.2050 -2.9247
16345TIP3    H270451   3.284   2.012  13.626  1.7656 -1.5025 -0.5368
16346TIP3   OH270452   5.994   5.767  15.225 -0.0368  0.8690  0.1758
16346TIP3    H170453   5.904   5.790  15.248 -0.5849 -1.1352  0.2534
16346TIP3    H270454   5.997   5.774  15.130 -0.5993 -0.0337  0.0789
16347TIP3   OH270455   5.767   4.598  10.989 -0.1950 -0.0710  0.3277
16347TIP3    H170456   5.691   4.656  10.991 -0.9369 -1.0381  1.6087
16347TIP3    H270457   5.767   4.561  10.901 -1.6103 -0.5504  0.4983
16348TIP3   OH270458   2.022   3.130  12.832 -0.5982 -0.1466  0.2584
16348TIP3    H170459   2.097   3.076  12.807  0.1101  0.7570  0.3884
16348TIP3    H270460   2.043   3.217  12.798 -1.7361  0.0528  0.0212
16349TIP3   OH270461   3.866   5.422  15.815 -0.1427  0.0549 -0.3294
16349TIP3    H170462   3.815   5.484  15.868 -0.3505 -2.1527  2.2129
16349TIP3    H270463   3.934   5.476  15.774 -0.2586  1.9601  1.8096
16350TIP3   OH270464   0.882   6.746   4.941 -0.0963 -0.2011 -0.1353
16350TIP3    H170465   0.825   6.818   4.967 -0.2059 -0.9508  1.8235
16350TIP3    H270466   0.970   6.784   4.942 -0.1307 -0.1101  1.0862
16351TIP3   OH270467   2.455   2.984   5.332 -0.6243  0.3444 -0.5656
16351TIP3    H170468   2.391   2.969   5.402 -0.3291 -1.2642 -0.5858
16351TIP3    H270469   2.426   3.065   5.289 -1.8971  0.3408  0.2332
16352TIP3   OH270470   4.830   6.375   1.707  0.5108  0.6946  0.1152
16352TIP3    H170471   4.833   6.425   1.789 -0.5639  1.5751 -0.3458
16352TIP3    H270472   4.737   6.355   1.695  0.7992 -0.4670 -0.2870
16353TIP3   OH270473   6.119   5.933  12.950  0.0337 -0.0442  0.7709
16353TIP3    H170474   6.072   5.877  13.012 -1.5472  1.6414  1.1788
16353TIP3    H270475   6.059   6.006  12.934  0.3904 -0.3310 -2.6785
16354TIP3   OH270476   6.490   1.597  16.113  0.2067  0.2589 -0.3156
16354TIP3    H170477   6.582   1.596  16.088  0.5039  1.2697  0.6704
16354TIP3    H270478   6.450   1.529  16.059  1.6607 -0.6968 -0.2482
16355TIP3   OH270479   4.960   5.544  17.301  0.9413  0.4301 -0.2117
16355TIP3    H170480   4.891   5.523  17.364  1.7013 -0.4070  0.3694
16355TIP3    H270481   4.915   5.584  17.227 -0.3774 -1.7208 -0.6195
16356TIP3   OH270482   4.191   6.090  10.926 -0.4164  0.2026  0.3930
16356TIP3    H170483   4.263   6.122  10.872  1.0789 -0.4312  1.9121
16356TIP3    H270484   4.130   6.163  10.930  0.9738  1.4100  0.4712
16357TIP3   OH270485   3.374   0.436  15.552  0.0897 -0.9104  0.1985
16357TIP3    H170486   3.304   0.398  15.500 -0.1629 -0.8879  0.5163
16357TIP3    H270487   3.423   0.361  15.586 -1.1279 -1.0411  1.8211
16358TIP3   OH270488   3.251   3.076   4.982 -0.1450 -0.5604  0.2042
16358TIP3    H170489   3.183   3.038   5.036  0.2829 -2.1342 -0.3088
16358TIP3    H270490   3.203   3.126   4.915 -0.6615  2.7270  2.8062
16359TIP3   OH270491   0.537   0.058  17.117 -0.2776  0.1646  0.1220
16359TIP3    H170492   0.630   0.054  17.138 -0.2005 -1.2013 -0.3750
16359TIP3    H270493   0.500  -0.019  17.160 -0.9590  0.0070 -0.7253
16360TIP3   OH270494   3.643   5.687  16.818  0.2985 -0.1430 -0.1820
16360TIP3    H170495   3.710   5.751  16.797 -0.2534  0.2704 -0.7044
16360TIP3    H270496   3.581   5.734  16.874  0.6019 -0.6180  0.5870
16361TIP3   OH270497   2.319   4.841  16.478 -0.5066 -0.8373  0.4342
16361TIP3    H170498   2.397   4.834  16.533 -0.5453  0.3079  0.6540
16361TIP3    H270499   2.335   4.778  16.408  1.6173  0.8226 -0.7040
16362TIP3   OH270500   2.508   6.316   0.944 -0.2441 -0.0682  0.1316
16362TIP3    H170501   2.560   6.366   0.881 -0.0127  0.7981  0.9950
16362TIP3    H270502   2.417   6.334   0.921 -0.1798  1.6334  1.0848
16363TIP3   OH270503   5.287   2.677   3.009 -0.1413  0.1458  0.3423
16363TIP3    H170504   5.228   2.719   2.947 -0.5815  0.7578  1.1595
16363TIP3    H270505   5.351   2.745   3.031 -0.7354  0.3485  1.5144
16364TIP3   OH270506   1.591   3.472  17.065 -0.2780  0.3854 -0.1389
16364TIP3    H170507   1.613   3.432  17.150  1.4062  0.1463 -0.6406
16364TIP3    H270508   1.514   3.424  17.035  1.3041 -2.1724 -0.4369
16365TIP3   OH270509   4.741   2.062  16.108  0.2768  0.3726  0.5524
16365TIP3    H170510   4.662   2.027  16.066  0.6721 -1.1263  0.9807
16365TIP3    H270511   4.708   2.110  16.184 -0.2100 -1.5162  1.6116
16366TIP3   OH270512   2.858   3.404  11.075  0.2119 -0.1341  0.2550
16366TIP3    H170513   2.799   3.421  11.002  2.0103 -2.2909 -1.8823
16366TIP3    H270514   2.872   3.309  11.072  2.4309  0.0806  1.7481
16367TIP3   OH270515   3.128   2.465  15.695  0.3133  0.3213  0.7866
16367TIP3    H170516   3.187   2.470  15.770 -1.0207 -1.9710  2.0883
16367TIP3    H270517   3.185   2.449  15.620  1.4196 -1.5847  1.9606
16368TIP3   OH270518   1.909   4.696  15.313  0.1624  0.3740 -0.2009
16368TIP3    H170519   1.828   4.680  15.264  0.5245 -1.4183 -0.2770
16368TIP3    H270520   1.881   4.706  15.404 -0.1109 -0.8084 -0.1449
16369TIP3   OH270521   0.577   5.695  11.184 -0.4349  0.1984  0.2454
16369TIP3    H170522   0.632   5.738  11.119  0.6243 -0.4978  0.6637
16369TIP3    H270523   0.531   5.768  11.227 -0.2683  0.7440 -0.4754
16370TIP3   OH270524   1.321   4.413  13.894  0.1125 -0.2149 -0.3520
16370TIP3    H170525   1.369   4.358  13.956  0.2535  0.8236  0.4851
16370TIP3    H270526   1.387   4.440  13.830  1.1371  2.4412  1.6151
16371TIP3   OH270527   5.292   6.385   2.704  0.0642  0.1817 -0.3849
16371TIP3    H170528   5.328   6.428   2.626  0.7722 -0.3838 -0.3839
16371TIP3    H270529   5.210   6.346   2.674  1.8823 -2.9576 -1.8345
16372TIP3   OH270530   3.769   1.761   1.448  0.0161  0.1057 -0.2643
16372TIP3    H170531   3.759   1.796   1.537  2.6490 -0.2416  0.2546
16372TIP3    H270532   3.687   1.714   1.432 -1.1269  1.3941  1.3767
16373TIP3   OH270533   0.909   1.362   4.042 -0.5243  0.1647  0.5748
16373TIP3    H170534   0.909   1.272   4.074 -1.2407  0.0813  0.3747
16373TIP3    H270535   0.816   1.382   4.027 -0.1950 -0.0897 -2.2150
16374TIP3   OH270536   2.259   5.868   3.783  0.2793 -0.1722 -0.5170
16374TIP3    H170537   2.212   5.944   3.816 -0.4599 -0.1281 -1.6603
16374TIP3    H270538   2.300   5.897   3.702  2.3404 -0.2006  0.4272
16375TIP3   OH270539   5.271   4.308   1.841  0.0444 -0.1309  0.5353
16375TIP3    H170540   5.327   4.243   1.799  0.3006  0.0588  0.5796
16375TIP3    H270541   5.293   4.301   1.934 -0.7276 -0.7517  0.6797
16376TIP3   OH270542   2.064   5.638   0.342  0.7839  0.3510  0.0630
16376TIP3    H170543   2.032   5.691   0.414 -1.8435 -1.9738  0.7783
16376TIP3    H270544   2.128   5.579   0.381  0.9424  0.5129  0.0469
16377TIP3   OH270545   0.370   4.242   5.125 -0.3696 -0.4898  0.4443
16377TIP3    H170546   0.382   4.182   5.198  0.5301  0.4411  1.0844
16377TIP3    H270547   0.441   4.221   5.064  0.0456  0.0226  0.7457
16378TIP3   OH270548   4.404   4.388  12.204  0.2844 -0.0631 -0.2865
16378TIP3    H170549   4.317   4.354  12.223  1.2160 -1.4384  1.8574
16378TIP3    H270550   4.418   4.455  12.271  1.4234 -0.8969  0.3326
16379TIP3   OH270551   4.528   3.325   5.150  0.3629 -0.0605  0.0280
16379TIP3    H170552   4.433   3.335   5.154 -0.0445 -3.1469  0.1833
16379TIP3    H270553   4.550   3.273   5.227  1.7197 -2.0058 -1.5673
16380TIP3   OH270554   2.187   2.966   2.916  0.6928  0.2616  0.7571
16380TIP3    H170555   2.183   2.900   2.848  2.3054  1.0817 -0.1911
16380TIP3    H270556   2.095   2.988   2.934  0.2066 -0.9023 -0.1947
16381TIP3   OH270557   2.834   5.732   4.892  0.1538  0.0414 -0.5432
16381TIP3    H170558   2.819   5.781   4.811  1.7330 -0.2303 -1.0302
16381TIP3    H270559   2.747   5.722   4.930 -0.6737 -0.0343 -2.3407
16382TIP3   OH270560   0.051   5.039   1.094  0.2885 -0.3289  0.5374
16382TIP3    H170561   0.088   5.108   1.039  0.4611 -1.0299 -0.2602
16382TIP3    H270562   0.090   4.958   1.059  0.6712 -0.7720  1.9197
16383TIP3   OH270563   0.769   1.358  15.593  0.0065  0.4290  0.4843
16383TIP3    H170564   0.707   1.398  15.533 -1.6930 -0.7542  1.3506
16383TIP3    H270565   0.784   1.424  15.661 -0.2024  0.7876  0.1792
16384TIP3   OH270566   0.827   0.227   1.645 -0.6769  0.2725 -0.2712
16384TIP3    H170567   0.764   0.299   1.650 -0.0579  0.7720  0.5146
16384TIP3    H270568   0.818   0.182   1.729  0.9964  1.2099  0.4556
16385TIP3   OH270569   2.041   5.384  14.122 -0.3622 -0.2944  0.3085
16385TIP3    H170570   2.068   5.395  14.031 -0.4120  0.5281  0.3833
16385TIP3    H270571   1.965   5.442  14.132  0.6920  0.9806  1.3108
16386TIP3   OH270572   4.895   5.714   2.144  0.0575  0.7230 -0.5305
16386TIP3    H170573   4.968   5.775   2.137  0.0965  0.5073 -2.8330
16386TIP3    H270574   4.895   5.667   2.060 -0.2056 -2.1982  0.9978
16387TIP3   OH270575   2.796   4.457  11.944 -0.2479  0.3998 -0.3979
16387TIP3    H170576   2.803   4.444  11.850  0.1673  0.7132 -0.4122
16387TIP3    H270577   2.757   4.375  11.977 -1.1505  0.6022 -0.9309
16388TIP3   OH270578   6.148   4.796   2.741  0.2289  0.1316 -0.3375
16388TIP3    H170579   6.107   4.875   2.705 -1.0534  1.1243  2.8789
16388TIP3    H270580   6.231   4.827   2.778  0.7305 -0.5002 -0.9171
16389TIP3   OH270581   0.864   5.878   2.414  0.2298  0.0625  0.0530
16389TIP3    H170582   0.769   5.894   2.416  0.3797  1.1510 -0.6899
16389TIP3    H270583   0.883   5.836   2.498 -1.0220 -0.8919 -0.1070
16390TIP3   OH270584   2.412   2.956   4.479  0.2522  0.2685  0.0398
16390TIP3    H170585   2.501   2.988   4.466  0.5543 -0.8034 -0.6835
16390TIP3    H270586   2.357   3.015   4.426  0.5153  0.9677  0.5362
16391TIP3   OH270587   5.331   4.139  13.876 -0.5611 -1.1424  0.0621
16391TIP3    H170588   5.389   4.118  13.803  0.6124  0.6446  0.4201
16391TIP3    H270589   5.384   4.119  13.954 -0.7685 -0.4336  0.3930
16392TIP3   OH270590   5.460   4.474   6.065  0.4542  0.5063 -0.2725
16392TIP3    H170591   5.444   4.433   6.150 -0.7697  1.4348 -0.0256
16392TIP3    H270592   5.547   4.515   6.074  0.2285  0.8119  0.6318
16393TIP3   OH270593   3.836   2.487  15.495  0.4522  0.4617 -0.1041
16393TIP3    H170594   3.922   2.515  15.524 -0.0130 -0.5047  2.4586
16393TIP3    H270595   3.852   2.407  15.445  1.2135  1.7594 -2.0530
16394TIP3   OH270596   1.510   0.182   3.580  0.1363  0.0144 -0.2125
16394TIP3    H170597   1.429   0.229   3.597  0.4154  0.1878  0.7267
16394TIP3    H270598   1.515   0.176   3.485 -1.2587 -0.5070 -0.2746
16395TIP3   OH270599   4.964   0.405  14.996 -0.1162  0.5591 -0.5825
16395TIP3    H170600   4.936   0.482  14.947 -1.4364  0.3578 -0.1871
16395TIP3    H270601   4.944   0.425  15.088 -1.0498 -0.4500 -0.5321
16396TIP3   OH270602   0.449   0.211   6.640 -0.1002  0.2304  0.6437
16396TIP3    H170603   0.451   0.307   6.637 -0.5527  0.2274  0.1132
16396TIP3    H270604   0.464   0.184   6.550  2.2224 -0.2627  1.1083
16397TIP3   OH270605   4.660   2.951   1.469 -0.2566  0.0066  0.1234
16397TIP3    H170606   4.754   2.970   1.465 -0.0604 -0.9492 -0.1474
16397TIP3    H270607   4.636   2.930   1.379 -0.1634 -2.2215  0.5672
16398TIP3   OH270608   5.444   2.567  12.187 -0.0010  0.2088  0.0015
16398TIP3    H170609   5.437   2.548  12.093 -1.1238 -2.1601  0.4999
16398TIP3    H270610   5.354   2.570  12.218  0.3627 -2.2302  1.5441
16399TIP3   OH270611   2.029   5.265  13.850 -0.1101 -0.3187 -0.4319
16399TIP3    H170612   2.018   5.205  13.924 -0.6911  0.4907  0.1673
16399TIP3    H270613   2.005   5.214  13.773 -1.6696 -0.5483  0.1731
16400TIP3   OH270614   3.120   0.657   4.037 -0.0123 -0.2053 -0.0552
16400TIP3    H170615   3.192   0.608   3.997 -0.0061 -0.7193  0.5686
16400TIP3    H270616   3.087   0.600   4.106 -1.8504 -0.5112 -1.1157
16401TIP3   OH270617   4.560   3.056  13.143  0.7001  0.4232  0.1501
16401TIP3    H170618   4.519   3.070  13.228 -0.5393  0.0026 -0.3600
16401TIP3    H270619   4.578   2.962  13.139  1.2338  0.5174  0.1384
16402TIP3   OH270620   5.621   1.540  12.756  0.0238  0.3872 -0.3765
16402TIP3    H170621   5.607   1.493  12.838  0.6738  1.6012  0.4672
16402TIP3    H270622   5.675   1.481  12.704 -1.7737 -1.1275 -0.6633
16403TIP3   OH270623   3.980   4.671   2.172 -0.0705  0.0857 -0.2689
16403TIP3    H170624   3.918   4.721   2.120 -0.7628 -2.6938 -2.3434
16403TIP3    H270625   4.048   4.644   2.109 -0.4524 -2.6322  0.3457
16404TIP3   OH270626   0.809   0.644   3.830  0.0063 -0.3028 -0.3392
16404TIP3    H170627   0.845   0.670   3.914  0.0242 -1.8251  0.1486
16404TIP3    H270628   0.881   0.654   3.768 -0.1129  1.1768 -0.2621
16405TIP3   OH270629   3.115   5.379   3.649 -0.6356  0.4364  0.3895
16405TIP3    H170630   3.172   5.303   3.649  0.0759  0.9589 -0.3663
16405TIP3    H270631   3.152   5.438   3.584 -3.1963 -0.0442 -1.6740
16406TIP3   OH270632   4.754   3.337   3.130  0.2157  0.6233  0.0877
16406TIP3    H170633   4.686   3.399   3.101 -1.0164 -1.6878 -2.4323
16406TIP3    H270634   4.724   3.308   3.216 -0.7912  1.3233 -0.0025
16407TIP3   OH270635   0.141   3.043   3.398 -0.0510 -0.4387  0.4370
16407TIP3    H170636   0.081   3.118   3.403  1.5454  0.9375 -0.0877
16407TIP3    H270637   0.088   2.968   3.426 -2.0682  0.6578 -0.2315
16408TIP3   OH270638   6.089   6.500  11.259  0.0730  0.2569  0.6333
16408TIP3    H170639   6.094   6.469  11.169 -1.9023  2.1714 -0.2253
16408TIP3    H270640   6.154   6.571  11.263  0.3602 -0.0121  0.8250
16409TIP3   OH270641   2.749   0.848  11.367  0.3847  0.1533 -0.3952
16409TIP3    H170642   2.834   0.842  11.324 -0.0093 -0.3447 -1.1447
16409TIP3    H270643   2.687   0.856  11.294 -0.2858 -0.4712  0.0955
16410TIP3   OH270644   6.398   0.399  11.957  0.0806 -0.3000 -0.2166
16410TIP3    H170645   6.354   0.322  11.921  0.5162 -0.6214 -0.0623
16410TIP3    H270646   6.380   0.395  12.051  2.3937 -1.7561  0.2459
16411TIP3   OH270647   1.983   6.200  13.204  0.6262 -0.3435 -0.0318
16411TIP3    H170648   1.933   6.154  13.136  1.5769 -2.7387  0.7514
16411TIP3    H270649   2.072   6.206  13.169  0.7833 -0.2316  0.3823
16412TIP3   OH270650   2.745   0.796   0.530 -1.3933  0.2334  0.1179
16412TIP3    H170651   2.692   0.723   0.563  0.2911 -0.4125  1.5948
16412TIP3    H270652   2.692   0.874   0.546 -2.1251 -0.4363  1.0528
16413TIP3   OH270653   0.604   0.414   6.493  0.1396 -0.0334  0.0021
16413TIP3    H170654   0.671   0.481   6.508  0.8552 -0.5823 -0.7197
16413TIP3    H270655   0.521   0.459   6.513  0.5924  1.0990 -0.5672
16414TIP3   OH270656   1.078   3.693  14.916  0.7433  0.3184 -0.1472
16414TIP3    H170657   1.164   3.652  14.909  0.9972  0.9781 -1.1202
16414TIP3    H270658   1.069   3.744  14.836 -0.9889 -0.5431 -0.5512
16415TIP3   OH270659   0.255   5.210  13.501 -0.2783  0.2148  0.0164
16415TIP3    H170660   0.283   5.133  13.551 -0.0503  1.3821  1.8023
16415TIP3    H270661   0.165   5.225  13.530 -0.2194  0.7808 -0.0856
16416TIP3   OH270662   2.702   6.686   5.902 -0.1897 -0.1334 -0.1906
16416TIP3    H170663   2.786   6.667   5.861 -0.1398 -0.8633  0.2484
16416TIP3    H270664   2.643   6.618   5.871  0.0130 -1.1067  1.4491
16417TIP3   OH270665   0.683   6.470   5.741 -0.2844  0.6480  0.4588
16417TIP3    H170666   0.647   6.503   5.658 -0.2972  1.1114  0.6472
16417TIP3    H270667   0.615   6.411   5.774  0.8278 -1.7603 -1.1910
16418TIP3   OH270668   5.236   3.890  15.748  0.1031 -0.0709  0.4357
16418TIP3    H170669   5.174   3.905  15.677 -0.0900  2.0208  0.9652
16418TIP3    H270670   5.226   3.798  15.770 -1.2748 -0.2841 -0.9049
16419TIP3   OH270671   3.816   2.728   1.218  0.4578  0.2330 -0.2988
16419TIP3    H170672   3.900   2.694   1.250  0.1316  0.6386  1.0596
16419TIP3    H270673   3.790   2.665   1.151  0.6658 -1.3149  0.9893
16420TIP3   OH270674   2.866   4.444   1.607 -0.2841  0.2769  0.4102
16420TIP3    H170675   2.864   4.368   1.665 -1.1787  0.1514  0.2306
16420TIP3    H270676   2.829   4.412   1.525  0.5864  0.5606 -0.1084
16421TIP3   OH270677   2.838   5.599   5.833 -0.2849  0.0491 -0.2518
16421TIP3    H170678   2.857   5.654   5.757 -0.3380 -1.8298 -1.7076
16421TIP3    H270679   2.743   5.583   5.827 -0.1538 -0.7628 -0.2800
16422TIP3   OH270680   3.275   1.670   1.545 -0.5448  0.1188  0.2341
16422TIP3    H170681   3.206   1.707   1.490  0.0344 -0.0686 -0.6232
16422TIP3    H270682   3.356   1.706   1.510 -0.2385  1.0985  1.8281
16423TIP3   OH270683   4.858   6.458   2.153 -0.1019  0.1730  0.3576
16423TIP3    H170684   4.776   6.408   2.149  0.2594 -0.3896 -0.1258
16423TIP3    H270685   4.867   6.481   2.245 -0.5939 -0.1189  0.4839
16424TIP3   OH270686   0.397   2.627   0.338 -0.4076  0.2791  0.3336
16424TIP3    H170687   0.409   2.532   0.347 -3.5000 -0.2995 -0.4633
16424TIP3    H270688   0.443   2.650   0.258  0.2783 -0.5481  0.4760
16425TIP3   OH270689   0.279   2.421   1.087  0.3017 -0.3908 -0.2903
16425TIP3    H170690   0.219   2.352   1.059 -0.8976  1.2844 -2.1273
16425TIP3    H270691   0.364   2.378   1.093 -0.6695 -2.3565  0.2787
16426TIP3   OH270692   4.392   3.401   2.578 -0.4548 -0.1106 -0.2982
16426TIP3    H170693   4.374   3.420   2.670  1.2215  0.5284 -0.0794
16426TIP3    H270694   4.474   3.351   2.579 -0.5375 -0.3034 -1.4389
16427TIP3   OH270695   3.493   2.186  15.564  0.1002 -0.0581  0.0655
16427TIP3    H170696   3.539   2.106  15.540 -0.3649 -0.1849 -0.4448
16427TIP3    H270697   3.486   2.183  15.659  0.9254 -0.1481  0.1307
16428TIP3   OH270698   3.394   0.272   5.289 -0.1402 -0.1680  0.6228
16428TIP3    H170699   3.406   0.361   5.254 -1.2915 -0.0522  0.4771
16428TIP3    H270700   3.302   0.268   5.313 -0.6217 -1.9825 -1.2353
16429TIP3   OH270701   0.138   6.657  11.946 -0.1170 -0.0923 -0.4288
16429TIP3    H170702   0.152   6.582  12.004 -2.3537 -0.3904 -0.1619
16429TIP3    H270703   0.161   6.733  11.999 -0.6430 -0.4496  0.3361
16430TIP3   OH270704   0.282   2.670  16.213  0.9314  0.5455  0.0374
16430TIP3    H170705   0.234   2.619  16.278  0.1166 -0.8987 -1.6106
16430TIP3    H270706   0.372   2.637  16.220  0.5394 -0.7455 -0.5753
16431TIP3   OH270707   1.571   5.976  10.603 -0.4148  0.2417  0.0053
16431TIP3    H170708   1.476   5.986  10.615 -0.8512 -2.8217  0.0400
16431TIP3    H270709   1.596   5.910  10.668  1.5003  0.1161 -0.7972
16432TIP3   OH270710   2.769   4.572  13.907  0.3791  0.0726 -0.9540
16432TIP3    H170711   2.785   4.661  13.876 -0.3021  0.4350 -0.2958
16432TIP3    H270712   2.704   4.582  13.976  0.0679 -0.9733 -1.0802
16433TIP3   OH270713   5.100   3.840  15.471 -0.2850 -0.1413 -0.0455
16433TIP3    H170714   5.083   3.750  15.445  0.7921 -0.6010  0.7246
16433TIP3    H270715   5.196   3.848  15.467 -0.2919  0.6279  0.9312
16434TIP3   OH270716   4.131   1.617   5.643 -0.0296  0.3770  0.2237
16434TIP3    H170717   4.181   1.699   5.636 -2.4224  2.2268  2.8220
16434TIP3    H270718   4.197   1.548   5.633  2.8351  2.6381  2.0363
16435TIP3   OH270719   4.422   2.348   5.709  0.7916  0.5572 -0.3258
16435TIP3    H170720   4.466   2.348   5.624  1.9674  1.1525  0.2554
16435TIP3    H270721   4.391   2.258   5.719  1.5758  0.2012 -0.9278
16436TIP3   OH270722   1.253   4.921   5.272 -0.7405  0.3392 -0.0468
16436TIP3    H170723   1.274   4.869   5.349  1.4997  2.0151  0.5863
16436TIP3    H270724   1.248   5.011   5.304 -0.9447  0.9437 -1.6755
16437TIP3   OH270725   5.849   5.131  15.168 -0.3380 -0.5755 -0.4665
16437TIP3    H170726   5.938   5.111  15.138 -1.1813 -2.8710 -1.6985
16437TIP3    H270727   5.798   5.139  15.087 -1.5504 -0.8327  0.2528
16438TIP3   OH270728   0.625   2.740  15.679  0.2370  0.1019 -0.2355
16438TIP3    H170729   0.663   2.736  15.591 -0.1730  1.9732 -0.5475
16438TIP3    H270730   0.650   2.658  15.720  0.5165 -0.7794 -2.0739
16439TIP3   OH270731   4.982   6.482   3.333 -0.9053  0.4530 -0.3865
16439TIP3    H170732   4.938   6.445   3.256 -1.7836  0.4237  0.1129
16439TIP3    H270733   4.927   6.557   3.358 -1.8168 -0.7365  1.4155
16440TIP3   OH270734   5.573   3.192  16.582 -0.4400 -0.2998  0.3961
16440TIP3    H170735   5.478   3.181  16.588 -0.4681 -1.0397 -0.9434
16440TIP3    H270736   5.603   3.114  16.534  0.7716  0.2206  0.2729
16441TIP3   OH270737   3.878   4.025   2.244 -0.2471 -0.2458 -0.0348
16441TIP3    H170738   3.834   3.942   2.259 -0.3430 -0.0580  0.7528
16441TIP3    H270739   3.952   4.003   2.188  0.9383 -1.2302  1.8094
16442TIP3   OH270740   0.365   1.900   2.228  0.3801  0.0355 -0.3936
16442TIP3    H170741   0.405   1.902   2.315  0.6412 -0.0689 -0.5091
16442TIP3    H270742   0.281   1.945   2.239 -0.4016 -1.5133  0.3305
16443TIP3   OH270743   3.383   6.543   6.637  0.4332 -0.1174  0.2750
16443TIP3    H170744   3.420   6.513   6.720  0.1737  0.1012  0.4709
16443TIP3    H270745   3.358   6.463   6.591  0.1082 -0.2220  0.6267
16444TIP3   OH270746   0.844   3.111  17.111  0.0507 -0.9083  0.2037
16444TIP3    H170747   0.868   3.134  17.021 -0.5816  1.8263  0.6504
16444TIP3    H270748   0.755   3.144  17.122  0.5131 -0.1655  2.1418
16445TIP3   OH270749   2.416   0.894  15.777  0.2862  0.3444  0.2545
16445TIP3    H170750   2.462   0.940  15.706  0.1593 -0.3327 -0.2723
16445TIP3    H270751   2.426   0.801  15.757 -0.3404  0.1587  0.7523
16446TIP3   OH270752   1.729   6.089  11.239  0.6826  0.5125 -0.6691
16446TIP3    H170753   1.764   6.086  11.149 -0.8293 -0.0348 -1.2603
16446TIP3    H270754   1.660   6.024  11.240  1.5026 -0.4094  1.2955
16447TIP3   OH270755   0.958   3.820   5.804  0.4881  0.0072 -0.0991
16447TIP3    H170756   1.032   3.779   5.849  0.1510 -0.7076 -0.1840
16447TIP3    H270757   0.896   3.841   5.874 -0.6330 -2.3199 -0.2813
16448TIP3   OH270758   5.287   5.416  12.331 -0.4692  0.3095  0.3648
16448TIP3    H170759   5.233   5.375  12.399 -0.0485 -0.2390  0.3725
16448TIP3    H270760   5.291   5.509  12.357 -1.7453  0.4492  0.1284
16449TIP3   OH270761   0.367   1.986  13.088 -0.4191  0.1966 -0.0839
16449TIP3    H170762   0.444   2.006  13.142 -0.6024 -0.6051  0.4858
16449TIP3    H270763   0.373   2.048  13.015  0.3428  0.6678  0.3584
16450TIP3   OH270764   1.733   2.957  13.975  0.0052 -0.3607 -0.1657
16450TIP3    H170765   1.704   2.918  14.058  0.3848  0.8280  0.5510
16450TIP3    H270766   1.678   3.035  13.964  1.1841  0.5185 -0.0742
16451TIP3   OH270767   6.662   3.701  15.844 -0.1344 -0.0202  0.1904
16451TIP3    H170768   6.638   3.794  15.851  1.6469  0.4996 -0.0853
16451TIP3    H270769   6.645   3.665  15.931  1.0151  1.0612  0.8931
16452TIP3   OH270770   6.494   1.973  15.293 -0.3977 -0.5320  0.1850
16452TIP3    H170771   6.459   2.056  15.326  0.7649 -0.3335  1.0080
16452TIP3    H270772   6.419   1.930  15.252 -1.5204  0.0085  1.5727
16453TIP3   OH270773   2.199   1.914   5.176  0.2066  0.4389  0.1732
16453TIP3    H170774   2.143   1.916   5.253 -0.6173  0.7136 -0.4248
16453TIP3    H270775   2.235   1.825   5.175  0.1410  0.3997  0.8047
16454TIP3   OH270776   5.269   4.675   2.845 -0.0069 -0.5128 -0.2800
16454TIP3    H170777   5.273   4.664   2.750 -1.8710 -0.1255 -0.4287
16454TIP3    H270778   5.316   4.758   2.861  0.6616 -0.7800 -0.7979
16455TIP3   OH270779   0.206   1.209   1.608 -0.1816  0.2328 -0.0365
16455TIP3    H170780   0.273   1.244   1.550 -0.9055  2.2355  0.2475
16455TIP3    H270781   0.252   1.190   1.690  0.0862  1.4357  0.1049
16456TIP3   OH270782   0.091   3.889   2.782  0.2707  0.1565  0.1340
16456TIP3    H170783   0.167   3.909   2.729  0.6334 -0.5587  0.3714
16456TIP3    H270784   0.126   3.861   2.867 -0.2924  1.0557  0.6852
16457TIP3   OH270785   2.196   1.428   1.046 -0.1522  0.0634  0.2826
16457TIP3    H170786   2.184   1.342   1.005  0.3311  0.7985 -1.4751
16457TIP3    H270787   2.112   1.472   1.033  0.9033  1.4169 -2.7900
16458TIP3   OH270788   0.360   0.243   2.480 -0.3059  0.8952  0.8842
16458TIP3    H170789   0.372   0.237   2.575  1.2724 -0.8708  0.6380
16458TIP3    H270790   0.431   0.299   2.450  0.6086 -0.3693  0.5687
16459TIP3   OH270791   1.579   3.655   1.771 -0.0022  0.4126  0.6268
16459TIP3    H170792   1.604   3.564   1.755 -0.6288 -0.4057  3.7028
16459TIP3    H270793   1.576   3.695   1.684 -0.0792 -2.5852 -0.8535
16460TIP3   OH270794   6.467   4.545  12.311  0.2809  0.1443 -0.3151
16460TIP3    H170795   6.559   4.572  12.301  0.0526  0.7037 -0.9911
16460TIP3    H270796   6.418   4.609  12.259 -0.6642  0.8636  1.3854
16461TIP3   OH270797   4.228   3.099  13.548  0.2362  0.1378 -0.0872
16461TIP3    H170798   4.219   3.065  13.459 -0.6429  0.5189 -0.1516
16461TIP3    H270799   4.145   3.077  13.591  0.1894  0.9909  0.2801
16462TIP3   OH270800   1.489   2.046   4.862 -0.4035 -0.9107  0.1014
16462TIP3    H170801   1.533   1.961   4.856 -0.3781 -0.8408 -0.7570
16462TIP3    H270802   1.486   2.078   4.772  0.1896  0.3143  0.4905
16463TIP3   OH270803   4.421   3.699   0.274  0.1934  0.1129 -0.4951
16463TIP3    H170804   4.419   3.716   0.368  0.4882 -1.0751 -0.2569
16463TIP3    H270805   4.484   3.762   0.239 -0.4288  1.0309 -0.0163
16464TIP3   OH270806   5.304   5.793  10.557  0.2500 -0.1043 -0.3733
16464TIP3    H170807   5.376   5.743  10.597 -0.1082  1.0232  1.8447
16464TIP3    H270808   5.322   5.883  10.582 -2.1989  0.1419  0.7068
16465TIP3   OH270809   5.624   2.786  16.748 -0.5625 -0.5401  0.3501
16465TIP3    H170810   5.577   2.830  16.677 -0.0982 -0.0742  0.3253
16465TIP3    H270811   5.556   2.740  16.797 -0.9567 -0.4097 -0.0705
16466TIP3   OH270812   5.350   0.471  17.145 -0.6559  0.3315 -0.2509
16466TIP3    H170813   5.350   0.378  17.168 -1.3273  0.6093  0.9145
16466TIP3    H270814   5.397   0.475  17.061 -3.0061 -1.4213 -1.7805
16467TIP3   OH270815   3.031   2.600  14.110  0.0188 -0.5352  0.3983
16467TIP3    H170816   2.957   2.549  14.141  1.1827 -2.0348  0.8272
16467TIP3    H270817   3.092   2.536  14.074  1.9812  0.3815  1.8245
16468TIP3   OH270818   3.051   4.110  11.553  0.0651  0.0039  0.3736
16468TIP3    H170819   3.044   4.160  11.471 -0.6866 -0.3842  0.1954
16468TIP3    H270820   3.114   4.041  11.533  0.1974  0.1570  0.2525
16469TIP3   OH270821   6.045   3.440  15.596 -0.7561  0.2717  0.2069
16469TIP3    H170822   6.004   3.366  15.551 -0.6417  0.4473 -0.1835
16469TIP3    H270823   6.130   3.452  15.552 -0.4005  0.0893  0.8268
16470TIP3   OH270824   0.908   4.121  13.709  0.0422 -0.2084  0.3222
16470TIP3    H170825   0.870   4.049  13.760  0.5913  1.1752  2.8281
16470TIP3    H270826   0.869   4.111  13.622 -1.4471 -2.3270  1.1435
16471TIP3   OH270827   2.025   5.018  17.392 -0.7086  0.4755 -0.0499
16471TIP3    H170828   1.953   5.020  17.330 -0.9039 -2.9036 -0.0994
16471TIP3    H270829   2.098   5.058  17.345 -2.2732  3.4473 -0.1900
16472TIP3   OH270830   5.572   6.017   3.881  0.1874  0.1617  0.2766
16472TIP3    H170831   5.554   6.107   3.853  1.7876  0.4107 -0.0530
16472TIP3    H270832   5.632   6.027   3.955  0.3790 -0.6315  0.2374
16473TIP3   OH270833   0.825   1.865  13.485 -0.3165 -0.3265 -0.6074
16473TIP3    H170834   0.763   1.924  13.529 -1.4984  0.8916 -3.6332
16473TIP3    H270835   0.791   1.777  13.502 -0.0745 -0.0285  1.7306
16474TIP3   OH270836   6.487   0.955   4.228  0.1000  0.3935 -0.5396
16474TIP3    H170837   6.468   1.043   4.196 -1.0391 -0.3264 -1.9382
16474TIP3    H270838   6.432   0.897   4.176  1.3986 -1.2405 -0.2082
16475TIP3   OH270839   3.148   0.570  16.784 -0.6653 -0.4687  0.0060
16475TIP3    H170840   3.140   0.476  16.798 -1.9615 -0.4051 -0.2339
16475TIP3    H270841   3.129   0.583  16.691 -0.2159  0.0009 -0.0268
16476TIP3   OH270842   6.194   0.501   3.962  0.8344  0.5484  0.1804
16476TIP3    H170843   6.123   0.540   4.013  1.6320  0.5441  1.3371
16476TIP3    H270844   6.165   0.412   3.944 -0.8146  1.4491 -2.1080
16477TIP3   OH270845   2.425   4.802  14.394 -0.3234  0.3064  0.0511
16477TIP3    H170846   2.374   4.722  14.407  0.5545 -0.5966 -1.6770
16477TIP3    H270847   2.364   4.861  14.348 -0.2164 -0.3241 -0.9323
16478TIP3   OH270848   5.205   2.373  14.162  0.0456 -0.3333 -0.1362
16478TIP3    H170849   5.268   2.323  14.215  0.2026  0.4581  0.4567
16478TIP3    H270850   5.169   2.438  14.223 -0.9585 -0.4310 -0.6073
16479TIP3   OH270851   6.145   1.187  11.207 -0.1707  0.4919  0.3408
16479TIP3    H170852   6.233   1.156  11.188 -0.2654 -1.0570  2.0954
16479TIP3    H270853   6.133   1.170  11.300 -2.1534  1.1163  0.2559
16480TIP3   OH270854   5.689   5.377  10.853  0.8495  0.4716 -0.0321
16480TIP3    H170855   5.670   5.457  10.900 -1.0025 -1.0765  2.0705
16480TIP3    H270856   5.777   5.391  10.816  1.3163  2.7748  1.7161
16481TIP3   OH270857   4.145   0.335   6.316 -0.1181  0.3679  0.1497
16481TIP3    H170858   4.080   0.270   6.291  0.8256 -0.5264 -0.0219
16481TIP3    H270859   4.203   0.289   6.377  0.1574  1.2464  0.5658
16482TIP3   OH270860   0.252   4.519  16.435  0.5021  0.3170  1.0160
16482TIP3    H170861   0.218   4.443  16.483 -0.8980 -0.3099 -0.8496
16482TIP3    H270862   0.174   4.569  16.411  0.9676 -0.1577 -1.8128
16483TIP3   OH270863   4.703   3.418  13.370 -0.9063  0.1997 -0.1665
16483TIP3    H170864   4.732   3.346  13.314  1.3877 -0.0968  1.2654
16483TIP3    H270865   4.607   3.414  13.367 -0.8735 -2.9331 -0.1453
16484TIP3   OH270866   4.517   0.661  15.592  0.2585 -0.3578 -0.6009
16484TIP3    H170867   4.508   0.567  15.578  1.1999 -0.7414  1.1232
16484TIP3    H270868   4.606   0.682  15.564  1.2587 -0.6672  2.0527
16485TIP3   OH270869   5.824   4.903   0.934 -0.1153 -0.2037 -0.5530
16485TIP3    H170870   5.796   4.856   0.855  0.5847  0.8104 -1.4372
16485TIP3    H270871   5.792   4.992   0.922  0.5735  0.1346 -0.0108
16486TIP3   OH270872   0.381   2.908  12.574  0.2912  0.3723 -0.3522
16486TIP3    H170873   0.378   2.990  12.624  0.7758  0.9913 -1.2933
16486TIP3    H270874   0.446   2.925  12.506  0.6955 -0.9531 -0.3109
16487TIP3   OH270875   2.778   2.014  12.212 -0.2237  0.3337 -0.8453
16487TIP3    H170876   2.760   1.979  12.300 -0.2729  2.4940  0.0588
16487TIP3    H270877   2.839   1.951  12.174 -0.5403 -0.8877  0.5722
16488TIP3   OH270878   6.097   1.593   0.944  0.2919 -0.4245 -0.5529
16488TIP3    H170879   6.079   1.555   0.858  0.2597 -0.6001 -0.4689
16488TIP3    H270880   6.184   1.631   0.935  0.1418 -0.1329 -0.7686
16489TIP3   OH270881   1.400   5.791  13.111  0.4374  0.6639  0.8702
16489TIP3    H170882   1.436   5.784  13.199 -0.6085 -0.1449  1.2552
16489TIP3    H270883   1.337   5.864  13.117  0.7249  0.9310  0.6601
16490TIP3   OH270884   0.843   0.961  15.427  0.5942 -0.4022 -0.1192
16490TIP3    H170885   0.858   0.987  15.336  0.9814  1.1268  0.3492
16490TIP3    H270886   0.811   1.040  15.470  2.3993 -0.4865  1.5280
16491TIP3   OH270887   4.160   2.072  13.083  0.1011 -0.1585  0.1184
16491TIP3    H170888   4.092   2.062  13.149 -0.3771 -2.1041 -0.5865
16491TIP3    H270889   4.145   1.999  13.022  1.8407  0.2962 -0.9295
16492TIP3   OH270890   6.678   4.413  15.595 -0.8263 -0.6364 -0.5594
16492TIP3    H170891   6.702   4.497  15.635 -1.4005 -0.8640  0.2971
16492TIP3    H270892   6.750   4.393  15.536  0.6454 -0.8268  1.1909
16493TIP3   OH270893   1.075   1.085   5.650  0.2328  0.2944  0.7310
16493TIP3    H170894   1.168   1.094   5.671  0.0935  0.6821  1.1943
16493TIP3    H270895   1.063   1.137   5.571  0.6504 -0.7394 -0.0507
16494TIP3   OH270896   4.177   0.556  17.337  0.3969 -0.3274 -0.1637
16494TIP3    H170897   4.153   0.489  17.400 -1.2869 -0.4415 -0.8702
16494TIP3    H270898   4.178   0.511  17.252 -3.0666  0.8350 -1.0142
16495TIP3   OH270899   3.336   0.880  15.006 -0.3251 -0.5737 -0.3029
16495TIP3    H170900   3.289   0.803  14.973  0.5032 -0.8077 -0.9794
16495TIP3    H270901   3.284   0.909  15.080  0.4027 -2.9803  1.2798
16496TIP3   OH270902   4.343   0.733   6.143  0.2362  0.0349  0.2703
16496TIP3    H170903   4.311   0.746   6.053  1.1653 -0.0432 -0.0854
16496TIP3    H270904   4.429   0.693   6.132  1.1806  1.7379  1.1531
16497TIP3   OH270905   6.599   2.970   3.167 -0.8523  0.1952 -0.4845
16497TIP3    H170906   6.669   2.906   3.152 -1.4783 -0.4372 -0.7941
16497TIP3    H270907   6.612   3.036   3.099  1.8147  2.2649  1.8151
16498TIP3   OH270908   4.909   6.566   0.320  0.1265  0.7252 -0.0227
16498TIP3    H170909   4.868   6.549   0.405  0.4926 -0.9059 -0.1286
16498TIP3    H270910   4.985   6.620   0.341  0.2702  0.2528  0.7162
16499TIP3   OH270911   5.630   3.643  17.123 -0.3911 -0.0031  0.3814
16499TIP3    H170912   5.624   3.634  17.028 -0.5246 -1.2790  0.4936
16499TIP3    H270913   5.566   3.711  17.144 -1.2624 -0.5770 -0.3235
16500TIP3   OH270914   5.232   2.413  14.887  0.3581  1.2257 -0.0761
16500TIP3    H170915   5.213   2.390  14.978 -0.7543  2.7093  0.1117
16500TIP3    H270916   5.328   2.407  14.881  0.2959 -1.6394  0.3539
16501TIP3   OH270917   0.182   0.823  15.918  0.4517  0.1367 -0.4557
16501TIP3    H170918   0.159   0.735  15.946 -0.3467  0.8158  1.1379
16501TIP3    H270919   0.213   0.866  15.998  2.3004  0.8710 -1.4886
16502TIP3   OH270920   5.542   3.933   5.815 -0.1165 -0.3235 -0.0657
16502TIP3    H170921   5.588   4.010   5.847 -1.2218 -0.0489  0.9559
16502TIP3    H270922   5.567   3.863   5.877  1.8591 -1.1533 -1.6905
16503TIP3   OH270923   3.118   2.976  13.323  0.3830 -0.6363 -0.6203
16503TIP3    H170924   3.152   2.887  13.321  0.8321 -0.5122  0.5472
16503TIP3    H270925   3.149   3.016  13.242 -0.2051 -1.6633 -1.3739
16504TIP3   OH270926   0.974   5.849   1.758 -0.8010  0.1804  0.2725
16504TIP3    H170927   1.017   5.851   1.672 -1.9226  1.7344 -0.2960
16504TIP3    H270928   0.881   5.839   1.737 -0.9326 -1.4606  1.4232
16505TIP3   OH270929   0.515   1.400   4.089 -0.6093 -0.3157 -0.6800
16505TIP3    H170930   0.560   1.468   4.140 -0.4874 -0.0057 -1.1985
16505TIP3    H270931   0.559   1.319   4.114 -1.3390 -0.3441  0.6208
16506TIP3   OH270932   1.713   6.615  13.039 -0.0655  0.2910 -0.2952
16506TIP3    H170933   1.664   6.576  13.111 -0.4411 -0.0809 -0.7474
16506TIP3    H270934   1.800   6.574  13.045  0.0274  0.5491  0.1757
16507TIP3   OH270935   0.989   3.292   5.017 -0.0171 -0.2936  0.1098
16507TIP3    H170936   0.995   3.388   5.010  0.4532 -0.3693 -0.5481
16507TIP3    H270937   1.076   3.265   5.043  0.1421 -0.6315 -0.7465
16508TIP3   OH270938   4.675   3.783   5.315  0.5659 -0.4142 -0.3600
16508TIP3    H170939   4.638   3.769   5.228 -0.1455  1.5050 -0.4085
16508TIP3    H270940   4.727   3.862   5.306  3.8107 -2.3486  0.0249
16509TIP3   OH270941   5.278   4.658  16.383  0.0556  0.4884 -0.6192
16509TIP3    H170942   5.227   4.609  16.447 -1.5046  1.0993 -1.3630
16509TIP3    H270943   5.362   4.674  16.427 -0.1545 -1.0167  0.4084
16510TIP3   OH270944   4.028   4.525   1.404  0.5139  0.5458  0.1958
16510TIP3    H170945   4.033   4.614   1.441  1.6728  0.0903  1.2240
16510TIP3    H270946   4.017   4.469   1.481 -1.9625 -0.1200 -0.5597
16511TIP3   OH270947   4.950   4.904  17.020 -0.2496 -0.3345  0.3687
16511TIP3    H170948   4.947   4.977  17.082  0.5205 -0.3095  0.3974
16511TIP3    H270949   5.041   4.904  16.989 -0.5679 -0.5062 -0.5733
16512TIP3   OH270950   2.163   4.464   5.016  0.6211 -0.0831 -0.0292
16512TIP3    H170951   2.115   4.512   5.083  1.6738  0.0949  0.6306
16512TIP3    H270952   2.132   4.501   4.933  0.6727  1.0432  0.4331
16513TIP3   OH270953   5.806   0.738   4.389 -0.3564 -0.1390  0.1392
16513TIP3    H170954   5.838   0.821   4.352  1.1168 -0.9187 -0.4289
16513TIP3    H270955   5.715   0.733   4.361 -0.5171  1.3371  0.2805
16514TIP3   OH270956   4.852   3.997   2.096  0.3091 -0.3598  0.5806
16514TIP3    H170957   4.791   3.954   2.155  0.0810  1.1823  1.5241
16514TIP3    H270958   4.821   4.087   2.091 -0.2331 -0.6180 -2.6678
16515TIP3   OH270959   4.876   3.375   2.875 -0.0389 -0.2814 -0.6720
16515TIP3    H170960   4.794   3.399   2.831 -0.0965 -1.7791 -1.4307
16515TIP3    H270961   4.852   3.359   2.966 -0.3369  0.5795 -0.5919
16516TIP3   OH270962   2.847   1.369   1.931 -0.4799 -0.2225  0.4211
16516TIP3    H170963   2.859   1.294   1.873  0.5233  0.6742 -0.5794
16516TIP3    H270964   2.793   1.336   2.003 -0.4356 -1.7683 -0.2278
16517TIP3   OH270965   6.025   1.600  11.259  0.2727 -0.3726  0.3077
16517TIP3    H170966   5.986   1.686  11.240 -0.6222 -1.1486 -1.6039
16517TIP3    H270967   6.111   1.603  11.217  0.1368 -0.5067  0.0223
16518TIP3   OH270968   3.027   4.151  11.877  0.0106  0.1279  0.2391
16518TIP3    H170969   3.057   4.241  11.868 -0.0522  0.2504  1.1803
16518TIP3    H270970   3.018   4.120  11.787  1.4216  0.5931 -0.0910
16519TIP3   OH270971   1.921   1.693   1.969 -0.2400 -0.1541 -0.0770
16519TIP3    H170972   1.966   1.777   1.980  1.1576 -0.7444 -0.9132
16519TIP3    H270973   1.893   1.669   2.057  0.1628  0.7653  0.3154
16520TIP3   OH270974   1.430   0.926   3.790 -0.2122  0.3767  0.2663
16520TIP3    H170975   1.450   0.995   3.727 -1.6086 -0.1613 -0.8354
16520TIP3    H270976   1.437   0.968   3.876 -2.2188  2.2512 -0.4088
16521TIP3   OH270977   5.086   2.938   5.210  0.2965  0.1044 -0.0957
16521TIP3    H170978   5.094   3.028   5.242 -0.2012  0.2937 -0.4918
16521TIP3    H270979   5.174   2.916   5.178  0.4173  0.4509 -0.0060
16522TIP3   OH270980   0.853   0.617  16.707  0.1979  0.3663 -0.5778
16522TIP3    H170981   0.896   0.667  16.638 -1.8394  1.2192 -1.3079
16522TIP3    H270982   0.845   0.678  16.781  0.4348  0.1370 -0.3578
16523TIP3   OH270983   2.382   6.284  12.495 -0.3272  0.0783 -0.0773
16523TIP3    H170984   2.461   6.248  12.457  0.7426 -2.5466  4.0219
16523TIP3    H270985   2.312   6.258  12.435  1.5030 -0.3411 -2.1420
16524TIP3   OH270986   0.288   3.882   3.228  0.2635 -0.1505  0.0934
16524TIP3    H170987   0.371   3.928   3.245 -0.0054 -0.2370  1.8427
16524TIP3    H270988   0.222   3.951   3.234  0.1901 -0.0941 -1.2374
16525TIP3   OH270989   1.321   5.323   4.582  0.0851  0.2399 -0.1227
16525TIP3    H170990   1.392   5.380   4.609 -1.6342  2.5983 -0.2681
16525TIP3    H270991   1.320   5.254   4.648  1.5720  0.9428  0.6892
16526TIP3   OH270992   3.635   6.722   1.703 -0.1164  0.0349  0.2170
16526TIP3    H170993   3.573   6.698   1.772  0.2432  3.1718  1.8594
16526TIP3    H270994   3.581   6.743   1.627 -0.8336 -0.1964  0.6555
16527TIP3   OH270995   4.915   2.673  11.645 -0.1383  0.5516 -0.1083
16527TIP3    H170996   4.982   2.688  11.712  0.3443  0.3406 -0.5283
16527TIP3    H270997   4.965   2.668  11.563 -0.3397 -2.2109 -0.1564
16528TIP3   OH270998   1.898   4.348   5.996 -0.0986 -0.6312 -0.4969
16528TIP3    H170999   1.955   4.415   5.958  0.3527 -1.0304 -0.5389
16528TIP3    H271000   1.950   4.311   6.067 -0.8674 -0.0028  0.4302
16529TIP3   OH271001   4.470   2.874   0.516  0.3028 -0.5742 -0.4063
16529TIP3    H171002   4.516   2.844   0.438  0.0633  0.6993 -1.0558
16529TIP3    H271003   4.521   2.949   0.547 -0.3477 -0.2370 -0.1171
16530TIP3   OH271004   0.617   4.475   2.136  0.2096 -0.3102  0.0588
16530TIP3    H171005   0.677   4.481   2.210  0.9873 -0.0843 -0.5687
16530TIP3    H271006   0.550   4.541   2.153 -0.6818 -1.5099  1.4684
16531TIP3   OH271007   1.704   6.476  17.017  0.2222 -0.5508  0.3599
16531TIP3    H171008   1.795   6.489  17.045  0.8613 -1.9355 -0.9468
16531TIP3    H271009   1.656   6.545  17.062  2.0892  0.9383  0.2222
16532TIP3   OH271010   4.290   4.921   1.501 -0.5214 -0.2375 -0.3587
16532TIP3    H171011   4.283   5.003   1.452 -0.8308  0.5290  0.9150
16532TIP3    H271012   4.258   4.943   1.589  0.6035 -1.3979  0.3775
16533TIP3   OH271013   4.824   5.138  12.382  0.2639 -0.3409  0.0589
16533TIP3    H171014   4.731   5.119  12.369  0.7584 -1.8937 -1.5924
16533TIP3    H271015   4.869   5.063  12.342  2.2332  0.6931  0.2586
16534TIP3   OH271016   0.792   1.215   1.111 -0.0927 -0.5438  0.3704
16534TIP3    H171017   0.725   1.160   1.071 -1.7527  0.7932  1.1869
16534TIP3    H271018   0.854   1.233   1.040 -2.4539  1.0269 -1.4785
16535TIP3   OH271019   4.997   5.897   5.854 -0.0257  0.0198  0.2589
16535TIP3    H171020   4.921   5.921   5.908 -0.9736 -2.6513  0.2746
16535TIP3    H271021   5.072   5.907   5.913 -0.4479  1.7188  0.5616
16536TIP3   OH271022   3.183   2.206  13.207  0.0816  0.2182 -0.4681
16536TIP3    H171023   3.134   2.176  13.283  1.7574  0.8181  0.9099
16536TIP3    H271024   3.152   2.296  13.192 -0.3588  0.0467 -0.6149
16537TIP3   OH271025   5.823   3.718   2.443 -0.0997 -0.5164  0.4021
16537TIP3    H171026   5.785   3.736   2.529 -0.1159  2.2834 -0.0995
16537TIP3    H271027   5.771   3.770   2.382  1.3116 -0.6708 -0.9905
16538TIP3   OH271028   1.160   6.517  13.549  0.1583  0.8583 -0.1674
16538TIP3    H171029   1.243   6.563  13.544 -0.3923  1.8185 -0.8447
16538TIP3    H271030   1.139   6.513  13.642  1.5417 -0.5026  0.1207
16539TIP3   OH271031   3.148   6.337   0.954 -0.0641 -0.6546  0.4279
16539TIP3    H171032   3.064   6.384   0.945 -0.9532 -1.3477  3.8041
16539TIP3    H271033   3.212   6.406   0.969 -0.1828 -0.1799 -1.1219
16540TIP3   OH271034   5.469   2.375   0.141  0.4730  0.0762  0.6412
16540TIP3    H171035   5.384   2.342   0.114  0.4869 -0.7224  1.4994
16540TIP3    H271036   5.530   2.304   0.120  0.8778  0.5110  0.3268
16541TIP3   OH271037   4.563   2.662  16.111 -0.1606 -0.7782  0.1412
16541TIP3    H171038   4.492   2.602  16.133 -0.4114 -1.4769 -2.2595
16541TIP3    H271039   4.571   2.656  16.016  1.5274  1.1023  0.0879
16542TIP3   OH271040   3.807   5.166  15.659  0.6919 -0.4895 -0.4635
16542TIP3    H171041   3.837   5.191  15.746 -0.7686 -0.0266 -0.0746
16542TIP3    H271042   3.781   5.074  15.668  1.5554 -0.7740 -0.7071
16543TIP3   OH271043   5.977   2.194  15.267  0.4533  0.1241  0.0144
16543TIP3    H171044   5.917   2.152  15.206  1.6932 -0.3065 -0.9747
16543TIP3    H271045   5.922   2.223  15.339 -1.4120  2.3583 -2.1236
16544TIP3   OH271046   3.717   2.059   0.376  0.1329  0.2338 -0.1670
16544TIP3    H171047   3.671   1.975   0.375  1.2999 -0.4421  0.7199
16544TIP3    H271048   3.789   2.047   0.314  2.0020 -0.4668  2.0034
16545TIP3   OH271049   3.873   3.617  13.679  0.0991  0.4350  0.0601
16545TIP3    H171050   3.960   3.648  13.705  0.2555 -0.8916  1.2455
16545TIP3    H271051   3.838   3.574  13.757 -0.7719 -0.8857 -0.9948
16546TIP3   OH271052   0.487   2.473   6.025 -0.0961 -0.4993  0.6600
16546TIP3    H171053   0.458   2.539   5.962  2.0718 -0.3047 -0.2309
16546TIP3    H271054   0.574   2.503   6.053  0.2736 -2.1654  1.4288
16547TIP3   OH271055   3.232   4.249  14.076  0.1474  0.0626 -0.2475
16547TIP3    H171056   3.254   4.341  14.083 -2.5551  0.9137 -1.6505
16547TIP3    H271057   3.241   4.228  13.983 -1.1557 -0.4958 -0.2851
16548TIP3   OH271058   5.438   6.394  12.614  0.7085  0.0265 -0.3518
16548TIP3    H171059   5.425   6.327  12.547  0.2906  1.0339 -1.3045
16548TIP3    H271060   5.351   6.429  12.630  0.4326 -1.5521  2.2384
16549TIP3   OH271061   4.585   1.772  16.485 -0.3545 -0.8916 -0.2689
16549TIP3    H171062   4.496   1.797  16.459  0.4962  0.6440 -1.8526
16549TIP3    H271063   4.584   1.777  16.580 -1.6914  0.0839 -0.3105
16550TIP3   OH271064   4.546   3.339  11.783  0.1568  0.5151  0.4643
16550TIP3    H171065   4.481   3.402  11.753 -1.3959 -0.7002  1.0751
16550TIP3    H271066   4.591   3.310  11.704 -1.9044 -0.5357 -0.3992
16551TIP3   OH271067   2.174   6.166  14.373  0.2305 -0.0662 -0.4550
16551TIP3    H171068   2.187   6.072  14.381  0.1726 -0.0818 -0.5439
16551TIP3    H271069   2.175   6.183  14.278  1.2508  0.1625 -0.4208
16552TIP3   OH271070   5.922   6.041  13.130 -0.2545 -1.1978  0.8234
16552TIP3    H171071   5.965   6.073  13.209  4.0352 -1.0633 -1.2762
16552TIP3    H271072   5.885   5.956  13.155  0.7099 -1.0303  3.0403
16553TIP3   OH271073   5.728   6.237  16.529  0.1918  0.2005 -0.4036
16553TIP3    H171074   5.755   6.328  16.543  1.4690 -0.5909  3.4112
16553TIP3    H271075   5.810   6.190  16.516 -0.1387 -0.8551  1.1423
16554TIP3   OH271076   0.917   4.010  16.999 -0.2896  0.0727  0.1046
16554TIP3    H171077   0.939   3.937  17.057  1.6212  0.8694  0.4375
16554TIP3    H271078   0.835   4.045  17.034  0.2997 -0.0958  1.7131
16555TIP3   OH271079   3.353   5.357  15.210  0.3065  0.1947 -0.2887
16555TIP3    H171080   3.428   5.346  15.268  1.0556 -0.2520 -1.3236
16555TIP3    H271081   3.300   5.425  15.252  0.6012 -0.4134  1.1347
16556TIP3   OH271082   4.423   3.356  11.519 -0.0380 -0.0215 -0.3567
16556TIP3    H171083   4.412   3.451  11.524  1.0015  0.0643  0.7481
16556TIP3    H271084   4.490   3.343  11.453  1.4788  0.1969  1.0643
16557TIP3   OH271085   3.204   0.645   0.702 -0.5455  0.0802  0.2258
16557TIP3    H171086   3.168   0.565   0.664  0.2081 -0.2211  0.1250
16557TIP3    H271087   3.132   0.708   0.699 -0.7524 -0.1947 -0.9392
16558TIP3   OH271088   3.744   0.597   6.798  0.0823  0.3826  0.0911
16558TIP3    H171089   3.666   0.583   6.743  0.6826 -1.5538 -0.3542
16558TIP3    H271090   3.729   0.682   6.839 -1.1209  1.1907 -1.8714
16559TIP3   OH271091   2.461   6.160  10.998 -0.5066 -0.0104 -0.0682
16559TIP3    H171092   2.407   6.144  11.076 -0.1653 -0.2418  0.1183
16559TIP3    H271093   2.551   6.145  11.026 -0.5279 -2.6649 -1.1259
16560TIP3   OH271094   2.995   2.746  16.415  0.1655  0.0189  0.2021
16560TIP3    H171095   2.925   2.714  16.473  0.8834  0.2240  1.2154
16560TIP3    H271096   3.027   2.667  16.371 -0.2710 -0.1658  0.2044
16561TIP3   OH271097   3.978   5.441  12.648 -0.1564  0.2912  0.8267
16561TIP3    H171098   4.027   5.423  12.567 -0.7767  0.9170  0.3031
16561TIP3    H271099   3.994   5.364  12.703  1.8247  0.6926  0.8834
16562TIP3   OH271100   3.691   2.798  13.286  0.3276  0.4011  0.1362
16562TIP3    H171101   3.673   2.712  13.248 -1.2974  0.5044  0.5939
16562TIP3    H271102   3.724   2.779  13.374 -0.0658  0.2503  0.2499
16563TIP3   OH271103   2.597   1.220  11.365  0.7318  0.4177  0.0750
16563TIP3    H171104   2.681   1.257  11.392  1.6403 -1.0809 -0.5344
16563TIP3    H271105   2.609   1.197  11.273 -0.3476  0.1999 -0.0266
16564TIP3   OH271106   4.091   0.264  12.427  0.4782  0.3006 -0.1891
16564TIP3    H171107   4.018   0.268  12.365 -0.8949  2.7492  1.3840
16564TIP3    H271108   4.075   0.185  12.479 -0.7641  0.4827 -0.2671
16565TIP3   OH271109   1.894   1.306  12.805  0.0020  0.8795  0.2027
16565TIP3    H171110   1.973   1.265  12.840 -0.5199  0.0111  0.3799
16565TIP3    H271111   1.881   1.265  12.719 -2.5591 -2.1594  1.8311
16566TIP3   OH271112   3.033   5.144  16.706  0.7217 -0.0690  0.1209
16566TIP3    H171113   2.977   5.221  16.713 -0.3222 -0.4975 -2.5680
16566TIP3    H271114   3.118   5.179  16.680  0.5743  0.2449  0.0578
16567TIP3   OH271115   1.220   6.295   4.408  0.7762  0.1651 -0.3079
16567TIP3    H171116   1.312   6.321   4.416  0.8010 -0.1941  0.6789
16567TIP3    H271117   1.216   6.207   4.445 -0.6297  1.6298  3.5115
16568TIP3   OH271118   0.976   5.974  13.025  0.0883  0.3740  0.1107
16568TIP3    H171119   0.902   5.977  13.085 -0.7626 -1.7699 -0.7229
16568TIP3    H271120   1.048   6.015  13.073 -1.6452  2.7294  0.8534
16569TIP3   OH271121   2.702   3.928  12.160  0.4726 -0.0825  0.4233
16569TIP3    H171122   2.714   3.957  12.250  1.5486 -0.6669  0.4839
16569TIP3    H271123   2.786   3.947  12.117 -0.3703  1.1810 -0.7504
16570TIP3   OH271124   5.387   6.517  10.914 -0.0997  0.3508  0.1209
16570TIP3    H171125   5.312   6.463  10.941  1.6725 -1.2835  2.1742
16570TIP3    H271126   5.462   6.457  10.919  1.4942  2.1533 -0.9622
16571TIP3   OH271127   3.334   0.461  16.460  0.1210 -0.0615 -0.2993
16571TIP3    H171128   3.416   0.452  16.411  1.7491 -0.6079  2.3023
16571TIP3    H271129   3.334   0.386  16.521 -3.6740 -1.6349 -1.8922
16572TIP3   OH271130   2.329   1.705  12.795  0.1206  0.1673 -0.2778
16572TIP3    H171131   2.271   1.634  12.764  0.8096 -0.1230 -0.9527
16572TIP3    H271132   2.416   1.665  12.797  0.1366  0.2204  1.9868
16573TIP3   OH271133   5.983   2.572   6.761 -0.2560  0.5357  0.5905
16573TIP3    H171134   6.053   2.528   6.810 -1.4567 -1.6315  0.4736
16573TIP3    H271135   6.030   2.626   6.697  1.4173 -2.1309 -0.6284
16574TIP3   OH271136   2.175   4.251   4.352  0.3108  0.1000  0.1535
16574TIP3    H171137   2.233   4.325   4.369 -0.4480  0.4384  1.4117
16574TIP3    H271138   2.221   4.176   4.388  1.4718 -0.2332 -1.8855
16575TIP3   OH271139   2.756   6.066  11.853 -0.0771  0.0907  0.3090
16575TIP3    H171140   2.786   5.982  11.886  0.7389  1.2195  2.6739
16575TIP3    H271141   2.661   6.060  11.852 -0.0092 -1.4230 -1.3006
16576TIP3   OH271142   4.642   5.933   3.499 -0.0244  0.3404  0.1827
16576TIP3    H171143   4.724   5.975   3.473  1.1544 -1.4357  0.7853
16576TIP3    H271144   4.595   5.919   3.417  1.4924 -0.9147 -0.5449
16577TIP3   OH271145   5.769   3.379   2.846  0.0251  0.1182 -0.3041
16577TIP3    H171146   5.715   3.417   2.916  0.0646 -1.1137  0.4406
16577TIP3    H271147   5.706   3.349   2.781 -0.0255  1.0959 -0.7107
16578TIP3   OH271148   4.079   1.777   4.536 -0.1058 -0.4139  0.2470
16578TIP3    H171149   4.009   1.800   4.475 -0.1778 -1.6103 -0.1508
16578TIP3    H271150   4.117   1.697   4.500  0.7903 -0.3527  1.0120
16579TIP3   OH271151   1.592   5.363   4.677  0.5369 -0.5476 -0.1194
16579TIP3    H171152   1.685   5.383   4.671  0.7559 -1.7262 -0.7929
16579TIP3    H271153   1.562   5.413   4.753  1.9082 -0.8397  0.6433
16580TIP3   OH271154   4.034   3.276  15.171 -0.0948 -0.2864  0.0458
16580TIP3    H171155   3.999   3.199  15.215  1.2693 -2.1233 -1.8546
16580TIP3    H271156   3.988   3.279  15.087  3.0827 -1.9787 -1.9445
16581TIP3   OH271157   5.851   0.620   1.548  0.1551  0.3779  1.0254
16581TIP3    H171158   5.764   0.658   1.540  1.0416  2.8343  2.0868
16581TIP3    H271159   5.890   0.630   1.461 -0.4839 -0.4708  0.6261
16582TIP3   OH271160   6.156   5.039   5.622 -0.8470 -0.3915 -0.1423
16582TIP3    H171161   6.231   5.005   5.575 -0.8090 -0.4847 -0.0159
16582TIP3    H271162   6.179   5.130   5.643 -1.6057  0.2658 -1.9052
16583TIP3   OH271163   5.375   1.875  15.884  0.4771  0.0611  0.0644
16583TIP3    H171164   5.425   1.797  15.908  0.5402  0.0622 -0.0636
16583TIP3    H271165   5.287   1.859  15.919  0.7306  0.3318  0.8347
16584TIP3   OH271166   3.758   3.050  15.606 -0.9731  0.0703 -0.1108
16584TIP3    H171167   3.814   3.111  15.558  0.0905  0.2265  1.2745
16584TIP3    H271168   3.815   2.975  15.625 -1.7826 -0.6079 -0.3058
16585TIP3   OH271169   2.053   1.785   2.586 -0.7021  0.0185 -0.2517
16585TIP3    H171170   2.055   1.692   2.610  1.0621  0.1415  0.2556
16585TIP3    H271171   2.073   1.787   2.493 -0.5455 -0.1132 -0.2216
16586TIP3   OH271172   4.012   2.612   4.111 -0.6044 -0.1206 -0.2788
16586TIP3    H171173   4.048   2.651   4.191  0.7731 -1.4075 -0.2227
16586TIP3    H271174   3.924   2.651   4.103  0.2870  2.2119  0.2661
16587TIP3   OH271175   0.766   5.485   0.016  0.2163 -0.2525  0.4822
16587TIP3    H171176   0.732   5.396   0.028  0.6488 -0.5855 -0.6834
16587TIP3    H271177   0.784   5.515   0.105 -0.0996 -1.2566  0.9082
16588TIP3   OH271178   5.065   0.289  11.541  0.0311 -0.4472 -0.0486
16588TIP3    H171179   4.991   0.230  11.532  1.1619 -1.9793  0.2771
16588TIP3    H271180   5.051   0.355  11.474 -2.3756  0.1845  0.9623
16589TIP3   OH271181   1.069   1.534   0.399  0.1370  0.1799  0.6678
16589TIP3    H171182   1.137   1.515   0.335 -0.5703  1.0710 -0.3822
16589TIP3    H271183   1.047   1.449   0.437  1.5691 -0.1606  0.7657
16590TIP3   OH271184   0.426   2.778  13.655  0.4462  0.1980  0.3696
16590TIP3    H171185   0.430   2.849  13.591  2.4496 -2.1397 -2.3463
16590TIP3    H271186   0.514   2.774  13.692  0.6184 -1.3251 -0.1468
16591TIP3   OH271187   0.625   5.605   0.453  0.0505 -0.4038  0.2739
16591TIP3    H171188   0.608   5.607   0.548  0.8560 -0.1389  0.4262
16591TIP3    H271189   0.709   5.650   0.444 -0.4807  0.4295 -0.6761
16592TIP3   OH271190   1.282   3.979  15.242 -0.1409 -0.5562  0.3172
16592TIP3    H171191   1.232   3.907  15.204  0.3170 -1.4395  1.3474
16592TIP3    H271192   1.217   4.032  15.289 -0.6479  0.3269 -1.2752
16593TIP3   OH271193   4.244   5.692  14.677  0.8183  0.0939  0.3272
16593TIP3    H171194   4.169   5.646  14.716 -0.7219  3.0083  1.0696
16593TIP3    H271195   4.212   5.780  14.660  3.3233  0.6966 -1.9339
16594TIP3   OH271196   1.943   2.590  14.614  1.0124 -0.3466 -0.0836
16594TIP3    H171197   1.949   2.653  14.686  0.4523  0.1139 -0.4332
16594TIP3    H271198   1.988   2.633  14.541  1.2525 -0.6538 -0.1164
16595TIP3   OH271199   5.587   1.762  14.588  0.1506  0.3606  0.2859
16595TIP3    H171200   5.583   1.671  14.615 -1.2139 -0.2990 -1.8577
16595TIP3    H271201   5.612   1.758  14.495  1.1548  2.2334  0.4324
16596TIP3   OH271202   3.509   3.516  11.045  0.5665  0.1714 -0.3481
16596TIP3    H171203   3.567   3.489  10.975 -1.4226 -1.0610 -1.6300
16596TIP3    H271204   3.541   3.470  11.123  3.4229  2.3629 -0.0849
16597TIP3   OH271205   4.070   1.380   5.484 -0.7777 -0.0474  0.5175
16597TIP3    H171206   3.991   1.428   5.458 -0.7413 -1.1442 -1.8634
16597TIP3    H271207   4.052   1.289   5.460  0.6311 -0.5929  1.4043
16598TIP3   OH271208   3.380   5.186   5.899 -0.3329 -0.1998  0.0586
16598TIP3    H171209   3.444   5.125   5.937  0.4830  1.4784  1.5009
16598TIP3    H271210   3.352   5.240   5.972  1.9588  3.7879 -1.7026
16599TIP3   OH271211   2.602   2.532   4.130 -0.3019 -0.8776  0.2387
16599TIP3    H171212   2.665   2.488   4.187  0.1528 -0.5288  0.0210
16599TIP3    H271213   2.558   2.595   4.187 -2.0325 -2.5978  0.9151
16600TIP3   OH271214   5.095   3.862   2.319  0.6132  0.1587  0.3807
16600TIP3    H171215   5.184   3.898   2.314  0.7366  0.4761  3.0738
16600TIP3    H271216   5.092   3.820   2.405 -0.8831 -2.6670 -0.9305
16601TIP3   OH271217   5.768   0.153   1.883 -0.2360  0.0118  0.5405
16601TIP3    H171218   5.812   0.226   1.840  0.2794  0.8021  2.3231
16601TIP3    H271219   5.752   0.090   1.813  2.9523  0.0572 -0.3800
16602TIP3   OH271220   2.282   6.048   4.406  0.7531  0.1892  0.1623
16602TIP3    H171221   2.254   6.023   4.494 -0.4884 -0.7719 -0.4676
16602TIP3    H271222   2.262   6.142   4.401 -0.5613 -0.0474  0.4286
16603TIP3   OH271223   3.274   3.291   0.276  0.5910 -0.0007  0.7174
16603TIP3    H171224   3.207   3.284   0.208  0.7235  2.6526  0.2158
16603TIP3    H271225   3.228   3.268   0.357 -0.0969 -1.1882  0.0243
16604TIP3   OH271226   3.586   0.737  11.145 -0.4522 -0.7831 -0.0515
16604TIP3    H171227   3.608   0.673  11.212 -1.4485 -2.6066 -1.3924
16604TIP3    H271228   3.670   0.758  11.104  0.0255 -0.3974  1.0951
16605TIP3   OH271229   4.861   5.651   3.127 -0.2161  0.0670  0.1577
16605TIP3    H171230   4.811   5.586   3.078 -1.4583  0.4715  0.8675
16605TIP3    H271231   4.901   5.602   3.199  2.0560 -0.6466 -1.4332
16606TIP3   OH271232   3.468   5.365  12.835 -0.0005 -0.9821 -0.0677
16606TIP3    H171233   3.551   5.332  12.800 -0.9580 -1.3613 -2.1176
16606TIP3    H271234   3.428   5.411  12.762 -1.5004 -0.5970  0.9551
16607TIP3   OH271235   6.292   5.058  15.769 -0.8755  0.6212 -0.8412
16607TIP3    H171236   6.378   5.072  15.730 -0.9910  1.3835 -0.8585
16607TIP3    H271237   6.277   4.964  15.763 -0.3608  0.5746 -1.5099
16608TIP3   OH271238   1.801   0.694   5.638 -0.0255  0.4210 -0.0474
16608TIP3    H171239   1.850   0.763   5.683  1.6269  0.9271 -2.4247
16608TIP3    H271240   1.733   0.740   5.590  0.7017  0.3725 -1.1574
16609TIP3   OH271241   4.776   6.594  11.485  0.1259  0.3838  0.5113
16609TIP3    H171242   4.687   6.566  11.465  0.4542 -0.6730  0.4579
16609TIP3    H271243   4.769   6.687  11.502 -1.1286  0.1445  1.3969
16610TIP3   OH271244   6.408   4.290  12.078 -0.1497  0.0260 -0.6760
16610TIP3    H171245   6.332   4.335  12.040 -0.3222  0.6417  0.3497
16610TIP3    H271246   6.477   4.355  12.079 -0.3960  0.2979  0.8043
16611TIP3   OH271247   0.509   5.824  13.566  0.2871  0.2874  0.6397
16611TIP3    H171248   0.528   5.740  13.525  1.7422  1.3544 -1.0419
16611TIP3    H271249   0.438   5.861  13.514  2.2408  1.7116 -1.1926
16612TIP3   OH271250   5.633   4.927   3.090  0.6315  0.3199  0.2441
16612TIP3    H171251   5.682   4.967   3.019  2.6295 -0.8104  0.9000
16612TIP3    H271252   5.602   4.844   3.054 -2.0043  1.5465 -0.5608
16613TIP3   OH271253   4.001   0.724   4.407  0.1776  0.6447  0.3961
16613TIP3    H171254   4.038   0.686   4.327  0.9574  1.3056  0.4342
16613TIP3    H271255   4.017   0.818   4.399  1.3221  0.6056  1.8593
16614TIP3   OH271256   5.285   5.746   2.412 -0.8180 -0.3335 -0.5303
16614TIP3    H171257   5.341   5.679   2.374  0.4472 -0.8658  2.0506
16614TIP3    H271258   5.209   5.698   2.446 -0.1938 -0.4301  0.7903
16615TIP3   OH271259   5.666   3.279  16.831 -0.4202 -0.0169 -0.0309
16615TIP3    H171260   5.642   3.246  16.744  0.5179 -1.2520  0.1450
16615TIP3    H271261   5.761   3.287  16.828 -0.5408  1.8134  0.2681
16616TIP3   OH271262   5.651   4.568  15.672 -0.0709  0.0091 -0.5851
16616TIP3    H171263   5.707   4.492  15.690 -0.3087 -0.8248 -2.9551
16616TIP3    H271264   5.628   4.559  15.580 -1.1942  2.2880 -0.5995
16617TIP3   OH271265   6.092   4.269   5.951  0.3319 -0.0804  0.5049
16617TIP3    H171266   6.123   4.321   6.026  1.3269  0.4869 -0.2751
16617TIP3    H271267   6.144   4.189   5.955  0.3332 -0.0811  0.4739
16618TIP3   OH271268   4.653   1.550  15.787  0.5361 -0.5224  0.7114
16618TIP3    H171269   4.660   1.554  15.882  1.9889  0.4606  0.5910
16618TIP3    H271270   4.724   1.605  15.755  2.3996 -3.6205 -0.9778
16619TIP3   OH271271   6.626   5.254  17.123  0.0170 -0.2827  0.2803
16619TIP3    H171272   6.571   5.216  17.055 -0.9223  2.3663 -0.5539
16619TIP3    H271273   6.712   5.215  17.108 -1.2016 -3.3961  0.6884
16620TIP3   OH271274   2.676   2.765  11.903 -0.1040  0.0189 -0.0769
16620TIP3    H171275   2.600   2.751  11.961  0.2392 -1.5895  0.0286
16620TIP3    H271276   2.752   2.744  11.958  0.3116 -0.0804 -0.6833
16621TIP3   OH271277   5.806   1.766  13.820  0.3354 -0.0463 -0.2296
16621TIP3    H171278   5.820   1.856  13.792 -3.4551  0.5891 -0.6927
16621TIP3    H271279   5.823   1.713  13.742 -2.2192  0.9033 -1.5710
16622TIP3   OH271280   2.653   2.529   5.485 -0.2506 -0.2266 -0.5438
16622TIP3    H171281   2.666   2.582   5.564 -0.3744  0.6540 -1.0935
16622TIP3    H271282   2.580   2.572   5.440 -1.8411 -2.1627  0.0525
16623TIP3   OH271283   1.029   6.512   4.999 -0.1887  0.3469  0.7458
16623TIP3    H171284   1.088   6.533   4.927  0.6239 -1.7416  0.7176
16623TIP3    H271285   1.078   6.535   5.078 -0.6197  1.5452  0.6844
16624TIP3   OH271286   0.362   5.406  12.511 -0.7382 -0.2125 -0.5731
16624TIP3    H171287   0.396   5.452  12.434 -0.0092 -0.1031 -0.1868
16624TIP3    H271288   0.436   5.399  12.570 -1.4536  0.2621  0.3963
16625TIP3   OH271289   2.091   5.694  11.034 -0.2695  0.1268  0.7827
16625TIP3    H171290   2.082   5.709  10.940 -0.5220  0.4680  0.8569
16625TIP3    H271291   2.022   5.631  11.055 -0.5156  0.4086  0.8201
16626TIP3   OH271292   1.182   6.735   0.454 -0.0403 -0.4165 -0.2260
16626TIP3    H171293   1.117   6.711   0.521  1.3226  0.3384  1.4533
16626TIP3    H271294   1.236   6.657   0.445  1.1664  0.1735  1.3266
16627TIP3   OH271295   2.870   0.754   3.662 -0.1743 -0.1833 -0.3039
16627TIP3    H171296   2.879   0.778   3.754 -0.1341 -1.0047 -0.0860
16627TIP3    H271297   2.939   0.803   3.617  0.8292 -0.9598  0.3324
16628TIP3   OH271298   3.628   4.864   5.008  0.1804 -0.0745  0.0898
16628TIP3    H171299   3.625   4.948   4.962  0.3862  0.1559  0.4948
16628TIP3    H271300   3.696   4.874   5.073 -1.3726  0.2586  1.7270
16629TIP3   OH271301   1.544   0.573   5.710  0.4240  0.1439 -0.4182
16629TIP3    H171302   1.564   0.501   5.651 -1.7849 -1.1138  0.2678
16629TIP3    H271303   1.618   0.575   5.772  0.0226 -2.3217  0.2385
16630TIP3   OH271304   1.046   5.162  14.719 -0.2213  0.1184 -0.1672
16630TIP3    H171305   1.041   5.096  14.650  1.1744 -0.0872 -0.1014
16630TIP3    H271306   0.976   5.224  14.698 -0.6436 -0.6247 -1.0306
16631TIP3   OH271307   5.693   0.383  16.217  0.1265  0.0286 -0.4134
16631TIP3    H171308   5.788   0.387  16.206  0.5843  0.0104  2.5016
16631TIP3    H271309   5.657   0.412  16.134  2.7238  2.5458 -0.8117
16632TIP3   OH271310   3.089   1.268   3.141  0.3008 -0.4917  0.3677
16632TIP3    H171311   3.005   1.300   3.111 -0.0436 -0.7705  1.0059
16632TIP3    H271312   3.147   1.344   3.138 -0.2104 -0.0752  0.7891
16633TIP3   OH271313   1.521   6.730  13.299 -0.0399 -0.5858 -0.0458
16633TIP3    H171314   1.526   6.793  13.371  3.5649 -0.1051 -0.5348
16633TIP3    H271315   1.481   6.779  13.228 -2.0412 -0.5323  1.0509
16634TIP3   OH271316   3.780   3.933   6.607 -0.3197  0.0569  0.2135
16634TIP3    H171317   3.722   3.858   6.622 -1.6382  1.0238  0.1653
16634TIP3    H271318   3.835   3.906   6.533 -0.2535 -1.1325  0.6742
16635TIP3   OH271319   5.180   4.115   3.009 -0.3754 -0.2092 -0.6122
16635TIP3    H171320   5.128   4.182   3.052 -1.1848 -1.1474 -0.0854
16635TIP3    H271321   5.231   4.075   3.079 -0.7348 -0.8871 -0.7338
16636TIP3   OH271322   6.700   4.659   3.890  0.2740  0.4122  0.1231
16636TIP3    H171323   6.763   4.626   3.826  0.9395  1.8872 -0.0372
16636TIP3    H271324   6.620   4.609   3.873  0.5995  0.3759 -1.5040
16637TIP3   OH271325   3.698   2.324   5.017 -0.2197 -0.2242 -0.1319
16637TIP3    H171326   3.768   2.355   4.959 -0.5449 -0.8100 -0.8613
16637TIP3    H271327   3.742   2.270   5.082 -0.1330 -1.9981 -1.5854
16638TIP3   OH271328   1.948   6.339  12.483  0.1244 -0.6425 -0.5782
16638TIP3    H171329   1.858   6.320  12.510  0.4284  1.4288  2.5045
16638TIP3    H271330   1.940   6.409  12.419 -0.5140  0.0033  0.1750
16639TIP3   OH271331   4.015   3.422  17.004 -0.5897  0.1629 -0.0973
16639TIP3    H171332   4.087   3.452  17.059  0.1914  0.4551 -1.2576
16639TIP3    H271333   3.968   3.358  17.058 -1.1792  2.0454  1.7400
16640TIP3   OH271334   1.108   3.736  11.678  0.0815  0.5096 -0.0500
16640TIP3    H171335   1.056   3.689  11.613 -0.9188 -0.9943  1.7151
16640TIP3    H271336   1.185   3.767  11.630 -0.9822  0.1849 -2.0830
16641TIP3   OH271337   2.989   6.667   2.453 -0.1761 -0.3121  0.4762
16641TIP3    H171338   2.976   6.608   2.379 -1.7525 -0.9106  1.1769
16641TIP3    H271339   2.914   6.726   2.450 -0.4775 -0.5944  1.7959
16642TIP3   OH271340   2.060   3.815   0.137  0.5833 -0.3838 -0.8583
16642TIP3    H171341   2.070   3.784   0.047  0.3827 -1.9073 -0.3918
16642TIP3    H271342   2.082   3.739   0.191  1.3660  0.6978  0.4086
16643TIP3   OH271343   2.894   2.294   1.006 -0.6579  0.5121 -0.2005
16643TIP3    H171344   2.924   2.260   0.922 -1.3594  0.1347 -0.3002
16643TIP3    H271345   2.827   2.358   0.983 -0.7768  0.4848  0.0708
16644TIP3   OH271346   3.324   0.174  14.420 -0.0350  0.2130 -0.5354
16644TIP3    H171347   3.410   0.196  14.454  0.1328 -0.5753 -0.4244
16644TIP3    H271348   3.270   0.251  14.437  0.4933  0.4803 -0.0692
16645TIP3   OH271349   3.282   1.211   5.598 -0.0998  0.2528  0.0111
16645TIP3    H171350   3.342   1.146   5.634  0.9809  0.6007 -1.0823
16645TIP3    H271351   3.215   1.159   5.555  0.8436 -0.1729 -0.9999
16646TIP3   OH271352   3.747   6.438   0.641  0.5006 -0.6258  0.0162
16646TIP3    H171353   3.822   6.439   0.582 -0.0073 -2.6528 -0.7369
16646TIP3    H271354   3.671   6.423   0.584 -0.5242  1.3463  0.7614
16647TIP3   OH271355   0.171   5.550   0.129  0.3603  0.4327  0.3751
16647TIP3    H171356   0.092   5.596   0.102 -0.8013 -0.9884  1.2317
16647TIP3    H271357   0.196   5.591   0.212 -1.6225 -1.4405  2.0012
16648TIP3   OH271358   3.952   2.664   3.135  1.0187  0.2222  0.1234
16648TIP3    H171359   4.031   2.611   3.140  0.7022 -0.3120 -0.3987
16648TIP3    H271360   3.927   2.662   3.042  1.0639  1.3867  0.0707
16649TIP3   OH271361   0.516   2.007  15.775  0.0031  0.1119  0.7059
16649TIP3    H171362   0.477   1.992  15.861 -2.1586 -2.2683 -0.5715
16649TIP3    H271363   0.452   1.973  15.713  1.8509  0.9775 -1.8423
16650TIP3   OH271364   6.415   1.039   5.061  0.2087 -0.1608  0.4486
16650TIP3    H171365   6.413   0.971   4.994  0.4112 -0.6897  0.9719
16650TIP3    H271366   6.414   1.121   5.011  0.0819 -0.5404 -0.1924
16651TIP3   OH271367   1.188   3.388  13.561  0.3126 -0.5233 -0.5214
16651TIP3    H171368   1.120   3.369  13.626  1.0084 -1.1884  0.0261
16651TIP3    H271369   1.160   3.340  13.483 -2.3673  2.9524 -1.9785
16652TIP3   OH271370   1.172   5.892   3.725  0.2182 -0.3261  0.3465
16652TIP3    H171371   1.216   5.824   3.775 -0.5447  0.3838  2.0546
16652TIP3    H271372   1.221   5.896   3.642  0.2735 -2.8916  0.1834
16653TIP3   OH271373   2.575   3.063  16.039 -0.1254 -0.0405 -0.4424
16653TIP3    H171374   2.505   2.998  16.030  0.2833 -0.2646 -2.5705
16653TIP3    H271375   2.647   3.015  16.078 -0.5466 -0.2916  0.0399
16654TIP3   OH271376   6.705   6.456  14.551 -0.1478  0.0961  0.7697
16654TIP3    H171377   6.697   6.543  14.591  0.4468 -0.4567  2.1453
16654TIP3    H271378   6.800   6.441  14.544 -0.2315 -0.0042 -0.5062
16655TIP3   OH271379   0.954   1.964   4.577  0.6015  0.2365 -0.5175
16655TIP3    H171380   0.869   2.006   4.592  0.7656  0.7253 -0.9751
16655TIP3    H271381   0.991   1.954   4.665  1.1746  2.3138 -0.4675
16656TIP3   OH271382   3.009   1.341  12.423 -0.1609 -0.6784  0.0428
16656TIP3    H171383   3.064   1.325  12.346 -0.9662  0.9068 -0.9064
16656TIP3    H271384   3.051   1.413  12.468 -2.1716  1.6778 -1.5633
16657TIP3   OH271385   4.383   0.170   5.957  0.0011 -0.5218  0.2987
16657TIP3    H171386   4.445   0.226   5.910  0.7574 -1.7070 -0.1444
16657TIP3    H271387   4.321   0.140   5.891  0.0373 -0.8063  0.3922
16658TIP3   OH271388   6.610   3.854  12.450  0.5048  0.4223  0.0353
16658TIP3    H171389   6.699   3.868  12.417  0.6431  0.2116  0.3118
16658TIP3    H271390   6.568   3.940  12.445 -0.1523  0.0254 -2.6031
16659TIP3   OH271391   4.786   3.132  12.938  0.0798  0.0977 -0.3975
16659TIP3    H171392   4.701   3.130  12.982 -1.8203 -0.4453 -3.7699
16659TIP3    H271393   4.818   3.221  12.952 -0.1445 -0.1562  2.3157
16660TIP3   OH271394   5.752   4.015   5.250  0.1599 -0.5153  0.3757
16660TIP3    H171395   5.738   3.920   5.259  1.4007 -0.5217  3.5436
16660TIP3    H271396   5.845   4.024   5.233  0.2399  0.1483  1.1101
16661TIP3   OH271397   5.437   5.091  12.873  0.0936  0.0330 -0.3041
16661TIP3    H171398   5.409   5.107  12.783  0.6244 -0.9888 -0.6767
16661TIP3    H271399   5.528   5.061  12.864  0.1836  0.0168  0.5758
16662TIP3   OH271400   0.724   4.672  16.392  0.1285  0.8999  0.2721
16662TIP3    H171401   0.762   4.605  16.335  1.0432 -0.3734  2.2498
16662TIP3    H271402   0.771   4.752  16.370  0.2544  0.5243 -0.9194
16663TIP3   OH271403   2.834   1.329   2.996 -0.3157 -0.1782 -0.4263
16663TIP3    H171404   2.857   1.307   2.906 -2.5118 -0.8198 -0.9042
16663TIP3    H271405   2.741   1.354   2.991 -0.8546 -1.4568  1.8208
16664TIP3   OH271406   0.990   0.899   5.859  0.3095  0.2894 -0.0513
16664TIP3    H171407   1.006   0.959   5.786  2.9039 -0.4415 -0.1669
16664TIP3    H271408   1.067   0.909   5.916 -0.4247 -1.0681  1.2437
16665TIP3   OH271409   2.588   4.277   3.189  0.2024  0.0432 -0.0945
16665TIP3    H171410   2.501   4.264   3.225 -0.4823  1.6483 -1.0405
16665TIP3    H271411   2.640   4.311   3.262  0.2452 -1.5286  0.6380
16666TIP3   OH271412   3.865   1.675  13.829  0.0049 -0.4309  0.0699
16666TIP3    H171413   3.852   1.770  13.824 -1.2404 -0.4619  1.7563
16666TIP3    H271414   3.814   1.648  13.905 -0.3337 -2.5825 -0.8476
16667TIP3   OH271415   1.371   3.753   3.426  0.0741 -0.1087 -0.1731
16667TIP3    H171416   1.279   3.731   3.411  0.5135 -0.7705 -2.2490
16667TIP3    H271417   1.370   3.846   3.449 -1.0377  0.1993 -1.3484
16668TIP3   OH271418   0.057   3.796   0.256  0.0297 -0.0888 -0.5507
16668TIP3    H171419   0.050   3.774   0.349  1.7889 -0.6010 -0.5011
16668TIP3    H271420   0.119   3.732   0.221  1.1176  1.4649 -1.5829
16669TIP3   OH271421   1.517   5.117   3.046  0.0279  0.4639  0.3641
16669TIP3    H171422   1.530   5.074   3.131  2.9246 -0.8318 -0.6126
16669TIP3    H271423   1.467   5.054   2.994 -0.6248  0.7132  0.6783
16670TIP3   OH271424   5.146   5.862  11.850 -0.3862 -0.0922 -0.1965
16670TIP3    H171425   5.145   5.935  11.788 -0.1933 -0.2019 -0.3316
16670TIP3    H271426   5.177   5.788  11.799  1.5613  0.2160  0.4467
16671TIP3   OH271427   5.950   5.820   0.142  0.3650  0.6068  0.0325
16671TIP3    H171428   5.906   5.879   0.081  1.4459  1.0265 -0.3448
16671TIP3    H271429   5.878   5.775   0.187 -0.4511  0.7465 -1.0939
16672TIP3   OH271430   0.430   5.562  12.300  0.3045 -0.2670 -0.1929
16672TIP3    H171431   0.376   5.608  12.235 -1.4331 -2.4288 -0.3920
16672TIP3    H271432   0.520   5.570  12.266 -0.0731  1.8131 -0.8480
16673TIP3   OH271433   3.415   6.371  12.078 -0.6103 -0.7214 -0.1726
16673TIP3    H171434   3.431   6.466  12.073 -2.1604 -0.4763 -0.9011
16673TIP3    H271435   3.339   6.363  12.135 -0.1592 -1.5959  0.3260
16674TIP3   OH271436   2.764   2.733  16.982  0.0825 -0.3100  0.0946
16674TIP3    H171437   2.826   2.663  17.002 -0.3128 -0.1660  2.0075
16674TIP3    H271438   2.681   2.688  16.967 -0.0032 -0.3129  0.5617
16675TIP3   OH271439   5.199   5.342   4.002  0.9885 -0.3266  0.7150
16675TIP3    H171440   5.266   5.275   3.996 -0.7529 -2.0733 -0.9929
16675TIP3    H271441   5.147   5.330   3.922 -0.3239  2.0482  1.1340
16676TIP3   OH271442   3.226   3.406   4.961 -0.1010  0.0067  0.0899
16676TIP3    H171443   3.148   3.359   4.992 -0.2945  0.7423  0.7233
16676TIP3    H271444   3.223   3.395   4.866 -0.8466 -0.1800  0.1251
16677TIP3   OH271445   3.866   1.236   1.681 -0.2548 -0.2810 -0.1669
16677TIP3    H171446   3.835   1.149   1.653 -1.6031 -0.4393  1.6370
16677TIP3    H271447   3.863   1.233   1.777 -2.3865  2.4102 -0.0318
16678TIP3   OH271448   1.024   5.055  11.478  0.1141 -0.4316 -0.4808
16678TIP3    H171449   0.936   5.025  11.500 -0.0886 -0.1715 -0.9139
16678TIP3    H271450   1.066   4.979  11.439  0.6056 -1.0075  1.1082
16679TIP3   OH271451   4.820   0.159   3.782 -0.2394 -0.3188 -0.4025
16679TIP3    H171452   4.791   0.217   3.852 -0.4777  1.2568 -1.7239
16679TIP3    H271453   4.786   0.073   3.806 -1.4237  0.4280  0.7557
16680TIP3   OH271454   5.894   3.325  12.846  0.4368  0.2211  0.5392
16680TIP3    H171455   5.801   3.348  12.847  0.6141  0.9539  0.6992
16680TIP3    H271456   5.937   3.394  12.897  1.0439 -0.2236  0.6398
16681TIP3   OH271457   5.034   3.220  14.141  0.0782 -0.4385 -0.3039
16681TIP3    H171458   4.941   3.243  14.147  0.5723  1.6613 -0.1297
16681TIP3    H271459   5.040   3.169  14.060 -1.6836 -3.4316  1.2323
16682TIP3   OH271460   4.720   2.313   4.109 -0.1420  0.3031  0.0884
16682TIP3    H171461   4.644   2.348   4.063  1.6768  0.2928 -3.2022
16682TIP3    H271462   4.779   2.388   4.117  0.7763 -0.3609 -0.2967
16683TIP3   OH271463   6.147   6.223   2.523  0.1539  0.2040 -0.0222
16683TIP3    H171464   6.152   6.131   2.499  1.1395 -0.4634  2.4476
16683TIP3    H271465   6.238   6.252   2.531 -0.0904  1.9425 -2.3932
16684TIP3   OH271466   4.502   1.314   5.785  0.1853 -0.3121  0.0750
16684TIP3    H171467   4.475   1.318   5.877 -1.4860 -0.2087 -0.3880
16684TIP3    H271468   4.493   1.404   5.754  1.8775 -0.1157  0.0876
16685TIP3   OH271469   4.112   6.416   1.701 -0.3702  0.0275  0.0400
16685TIP3    H171470   4.087   6.428   1.609  0.7043  1.5720 -0.0869
16685TIP3    H271471   4.167   6.338   1.701 -1.0366 -0.4596 -0.4791
16686TIP3   OH271472   2.492   1.219  15.083 -0.6681  0.0876  0.3402
16686TIP3    H171473   2.424   1.286  15.097 -1.3553 -0.3893 -0.5696
16686TIP3    H271474   2.539   1.214  15.166 -0.9505  1.3160  0.5910
16687TIP3   OH271475   2.965   1.454  10.488 -0.8293  0.1877 -0.7825
16687TIP3    H171476   2.961   1.432  10.581 -1.0725  0.8655 -0.6249
16687TIP3    H271477   3.058   1.462  10.469 -0.8098  1.4046 -0.2551
16688TIP3   OH271478   3.725   1.146   2.931  0.0771 -0.0652  0.9096
16688TIP3    H171479   3.633   1.138   2.956 -0.9387 -0.6186 -2.4840
16688TIP3    H271480   3.733   1.235   2.896  0.4930 -0.4272  0.0533
16689TIP3   OH271481   1.855   5.769  11.987 -0.0177  0.0583 -0.1197
16689TIP3    H171482   1.821   5.765  12.077  0.0559  2.0517  0.0393
16689TIP3    H271483   1.917   5.841  11.989  0.2754 -0.1247 -1.7102
16690TIP3   OH271484   0.890   5.287   3.663 -0.0323 -0.3499  0.4143
16690TIP3    H171485   0.973   5.291   3.710 -0.0654 -0.9069  0.5228
16690TIP3    H271486   0.834   5.350   3.707 -0.2317 -1.2348  1.4492
16691TIP3   OH271487   3.137   2.175  11.447 -0.5855 -0.2604 -0.2283
16691TIP3    H171488   3.218   2.209  11.484 -0.3725  0.2107 -1.0858
16691TIP3    H271489   3.165   2.115  11.378 -0.9689 -0.3411 -0.3195
16692TIP3   OH271490   0.373   2.228  15.836 -0.3514 -0.3509 -0.2159
16692TIP3    H171491   0.439   2.187  15.780 -0.3734 -1.3895  0.4961
16692TIP3    H271492   0.366   2.170  15.912 -0.5941  0.8212  0.7014
16693TIP3   OH271493   6.312   1.193   2.949  0.4874  0.0045  0.4858
16693TIP3    H171494   6.396   1.214   2.990  1.2108 -3.1809  0.8956
16693TIP3    H271495   6.252   1.179   3.022  0.5656 -1.1829  0.3367
16694TIP3   OH271496   2.690   0.276  11.458 -0.0037  0.2629 -0.1112
16694TIP3    H171497   2.640   0.195  11.471  0.9580 -0.3240 -0.0498
16694TIP3    H271498   2.756   0.275  11.527  0.3976  0.8088 -0.4810
16695TIP3   OH271499   3.732   4.266   1.279  0.4019  0.0647 -0.2806
16695TIP3    H171500   3.758   4.249   1.369  0.7876 -1.4737 -0.6378
16695TIP3    H271501   3.638   4.283   1.284  0.0750 -1.6662  0.2753
16696TIP3   OH271502   0.068   2.953   1.797  0.3622  0.4757  0.6419
16696TIP3    H171503   0.130   2.986   1.732  1.9099 -0.1143  1.7480
16696TIP3    H271504   0.055   3.027   1.857 -1.2182  1.0839 -0.3994
16697TIP3   OH271505   4.832   3.399   5.731  0.0638 -0.2053  0.6949
16697TIP3    H171506   4.819   3.320   5.680 -2.3325 -0.5224  1.6674
16697TIP3    H271507   4.828   3.370   5.823  1.8598  0.6961  1.1181
16698TIP3   OH271508   0.516   1.022   3.667  0.1663  0.4228  0.2163
16698TIP3    H171509   0.472   0.961   3.727 -2.1009  0.8753 -0.8904
16698TIP3    H271510   0.511   0.980   3.582 -0.4416  1.6387 -0.3690
16699TIP3   OH271511   0.096   0.713   5.330 -0.2907 -0.2534 -0.1471
16699TIP3    H171512   0.051   0.785   5.285  0.8380  0.6259  0.0913
16699TIP3    H271513   0.039   0.692   5.404 -0.5899  0.4600 -0.1678
16700TIP3   OH271514   3.430   0.456  12.029 -0.5122  0.6387 -0.3233
16700TIP3    H171515   3.345   0.413  12.019 -1.5317  2.5031 -0.0174
16700TIP3    H271516   3.451   0.443  12.122 -1.1709  1.3996 -0.0568
16701TIP3   OH271517   4.251   2.830   5.834 -0.0422 -0.4486 -0.5786
16701TIP3    H171518   4.330   2.797   5.790  0.9423  1.4505 -0.3116
16701TIP3    H271519   4.230   2.911   5.788  0.5353  1.1603  1.8363
16702TIP3   OH271520   6.101   5.477  14.341 -0.0420  0.3690  0.0947
16702TIP3    H171521   6.075   5.407  14.401 -1.5696  0.1320 -0.7723
16702TIP3    H271522   6.093   5.557  14.392  1.7241 -0.0598  1.1004
16703TIP3   OH271523   5.832   5.564   3.223  0.2525 -0.4130 -0.1488
16703TIP3    H171524   5.811   5.655   3.204 -1.4693 -0.7084  0.2152
16703TIP3    H271525   5.844   5.524   3.137 -1.5000 -0.3819 -0.4446
16704TIP3   OH271526   0.284   1.074  11.647 -1.0085 -0.7746  0.1068
16704TIP3    H171527   0.349   1.009  11.619  0.3156  0.3451  0.4971
16704TIP3    H271528   0.322   1.158  11.625 -2.3065 -0.0737  0.4232
16705TIP3   OH271529   1.363   1.680   2.541  0.2187  0.2320  0.1485
16705TIP3    H171530   1.454   1.701   2.561 -0.2026  0.7411  1.6832
16705TIP3    H271531   1.324   1.764   2.516 -0.1460  0.2692  0.8271
16706TIP3   OH271532   2.220   0.431  11.929  0.1388  0.3303  0.0376
16706TIP3    H171533   2.305   0.401  11.960  1.1423  2.8621 -0.0580
16706TIP3    H271534   2.193   0.498  11.991 -2.7664 -1.6591  1.1581
16707TIP3   OH271535   4.024   3.263  15.974 -0.4723 -0.0183  0.0294
16707TIP3    H171536   3.929   3.272  15.968 -0.4650 -0.4964 -1.1135
16707TIP3    H271537   4.058   3.327  15.910  0.0433  1.0912  1.3557
16708TIP3   OH271538   6.026   6.182  16.430 -0.0542  0.2625 -0.5254
16708TIP3    H171539   6.104   6.169  16.376  0.5725  0.0968  0.4141
16708TIP3    H271540   6.038   6.126  16.506 -0.7441  0.8051  0.0002
16709TIP3   OH271541   5.248   0.519  16.593 -0.5775 -0.1152  0.0778
16709TIP3    H171542   5.220   0.468  16.669 -0.4479 -1.0199 -0.4559
16709TIP3    H271543   5.178   0.583  16.578 -1.9347 -1.6844 -0.6477
16710TIP3   OH271544   2.804   2.307  11.391 -0.3732 -0.5042 -0.2060
16710TIP3    H171545   2.894   2.330  11.367 -0.0945 -0.9192  0.4044
16710TIP3    H271546   2.760   2.292  11.307  0.0763 -0.1196 -0.5161
16711TIP3   OH271547   1.983   4.081   5.288 -0.2929 -0.6506 -0.7239
16711TIP3    H171548   1.932   4.161   5.276 -0.9736 -1.3244 -2.8018
16711TIP3    H271549   2.051   4.105   5.351 -3.2041  0.2292  2.4193
16712TIP3   OH271550   4.574   0.079  13.007 -0.1918  0.2166 -0.9607
16712TIP3    H171551   4.527   0.004  13.045  0.9205  0.6745  1.5182
16712TIP3    H271552   4.519   0.154  13.028  0.8850  0.5885  0.7178
16713TIP3   OH271553   4.386   2.456   2.124  0.1574 -0.7898  0.2150
16713TIP3    H171554   4.340   2.535   2.150 -0.5016 -0.7585 -0.9967
16713TIP3    H271555   4.355   2.389   2.185  0.8196 -0.1199  1.3331
16714TIP3   OH271556   1.432   6.415   4.037 -0.0662  0.1681  0.0440
16714TIP3    H171557   1.437   6.375   3.950 -1.0683 -0.7475  0.3856
16714TIP3    H271558   1.339   6.415   4.058  0.2802 -1.1623  1.7942
16715TIP3   OH271559   5.427   3.347  16.349 -0.0829  0.1999 -0.6125
16715TIP3    H171560   5.397   3.436  16.369 -0.9582  0.1243 -1.4642
16715TIP3    H271561   5.380   3.291  16.411  0.5357  0.3397 -0.0165
16716TIP3   OH271562   4.013   2.538   1.815 -0.0120  0.3541  0.1855
16716TIP3    H171563   4.062   2.550   1.733  0.0105 -1.5530 -0.1281
16716TIP3    H271564   4.044   2.608   1.872  1.1098  0.7967 -0.9125
16717TIP3   OH271565   4.786   5.606  12.300  0.0930 -0.1659  0.2552
16717TIP3    H171566   4.870   5.646  12.322 -0.0584 -0.0172  0.5792
16717TIP3    H271567   4.805   5.547  12.228  0.2080  0.9920 -0.7045
16718TIP3   OH271568   2.990   3.727   4.499  0.5280  0.2198 -0.1890
16718TIP3    H171569   2.947   3.775   4.570 -1.6261 -0.7209 -0.7816
16718TIP3    H271570   2.967   3.775   4.420  0.8805 -0.1099 -0.4985
16719TIP3   OH271571   6.749   2.876  14.752  0.9278  0.3159  0.9342
16719TIP3    H171572   6.707   2.820  14.817 -2.3501 -0.0087 -1.1895
16719TIP3    H271573   6.693   2.954  14.748  1.9250  1.0018 -0.4034
16720TIP3   OH271574   1.028   3.249   1.551  0.1796 -0.0865  0.2039
16720TIP3    H171575   0.941   3.217   1.526  0.3035 -0.5692  0.3774
16720TIP3    H271576   1.023   3.343   1.537  0.2265 -0.3091 -1.6055
16721TIP3   OH271577   5.608   4.276  13.945  0.3644 -0.0433 -0.0648
16721TIP3    H171578   5.658   4.264  13.864  1.0937  0.2176  0.3273
16721TIP3    H271579   5.601   4.189  13.983 -1.2438 -0.4063 -1.1045
16722TIP3   OH271580   1.963   2.477  12.191  0.9965 -0.0137 -0.0607
16722TIP3    H171581   1.921   2.445  12.271 -0.7260 -1.4818 -1.4599
16722TIP3    H271582   2.048   2.433  12.190  1.4986  0.8472  1.4548
16723TIP3   OH271583   2.424   1.021  14.888 -0.2647  0.3185 -0.0070
16723TIP3    H171584   2.378   1.100  14.859 -0.2627  0.3580  0.0969
16723TIP3    H271585   2.479   1.051  14.960  0.2517  0.3597 -0.4122
16724TIP3   OH271586   4.629   0.394  14.180 -0.0606  0.0810 -0.0744
16724TIP3    H171587   4.600   0.475  14.139  0.0886 -0.4440 -1.2589
16724TIP3    H271588   4.577   0.388  14.261 -0.4156  1.1039 -0.2138
16725TIP3   OH271589   0.951   5.090  12.358 -0.6666  0.2341  0.4133
16725TIP3    H171590   0.866   5.046  12.364 -0.3140 -0.2891  2.1040
16725TIP3    H271591   0.933   5.179  12.388 -0.7982  0.4127 -0.1805
16726TIP3   OH271592   0.006   2.561  16.293  0.7906  0.1541 -0.5358
16726TIP3    H171593  -0.086   2.545  16.312  1.0340  0.0375  0.6550
16726TIP3    H271594   0.053   2.502  16.352  1.6297  0.3177 -1.0226
16727TIP3   OH271595   4.183   5.798   6.433  0.4395 -0.0980 -0.1550
16727TIP3    H171596   4.220   5.713   6.456  3.3449  1.7097  2.8718
16727TIP3    H271597   4.099   5.801   6.479 -0.1491 -1.5407 -1.0372
16728TIP3   OH271598   4.044   3.388  13.339  0.2732  0.0120 -0.2819
16728TIP3    H171599   4.014   3.479  13.333  1.4841  0.5934  1.5705
16728TIP3    H271600   3.990   3.350  13.408 -0.0852 -0.6246 -0.9098
16729TIP3   OH271601   0.119   4.591  17.024 -0.5801 -1.0383  0.0493
16729TIP3    H171602   0.061   4.518  17.046 -1.0846 -0.6864 -0.1109
16729TIP3    H271603   0.061   4.662  16.999 -0.1757 -0.0306  1.7937
16730TIP3   OH271604   2.250   5.323   4.790  0.1940 -0.4655  0.3008
16730TIP3    H171605   2.196   5.396   4.822 -1.2538 -2.0414  1.6785
16730TIP3    H271606   2.259   5.339   4.696 -3.7640 -0.6616 -0.3101
16731TIP3   OH271607   4.189   5.137  17.042  0.1681 -0.1004  0.1726
16731TIP3    H171608   4.229   5.105  17.123 -0.3822  0.3138  0.6256
16731TIP3    H271609   4.103   5.170  17.070  0.8947  2.2621 -0.1336
16732TIP3   OH271610   1.671   4.501  14.548 -0.1971  0.0800 -0.1680
16732TIP3    H171611   1.620   4.450  14.611 -0.0878 -0.7670 -0.7596
16732TIP3    H271612   1.641   4.591  14.561 -0.2172 -0.0888  1.0522
16733TIP3   OH271613   6.380   3.520   3.285 -0.0853 -0.5087 -0.2084
16733TIP3    H171614   6.348   3.438   3.248 -0.8079  0.2768 -1.3646
16733TIP3    H271615   6.340   3.588   3.232  1.9675  0.5836 -0.4633
16734TIP3   OH271616   1.465   1.126   3.596  0.1581 -0.2893  0.1195
16734TIP3    H171617   1.385   1.173   3.621 -0.3058  1.3365 -3.6138
16734TIP3    H271618   1.526   1.195   3.571  1.4610 -1.5872 -0.3989
16735TIP3   OH271619   5.374   5.403   5.161 -0.0104  0.5171 -0.2163
16735TIP3    H171620   5.382   5.308   5.169 -0.5230  0.5413  0.8308
16735TIP3    H271621   5.280   5.420   5.163  0.0099  0.9692 -1.7535
16736TIP3   OH271622   5.087   3.609   5.982 -0.1117  0.5994 -0.0049
16736TIP3    H171623   5.156   3.670   6.007  0.0493  0.3190  0.2413
16736TIP3    H271624   5.052   3.645   5.900  1.1616  0.1016 -0.8088
16737TIP3   OH271625   3.189   4.102   3.849 -0.1068 -0.2419 -0.0681
16737TIP3    H171626   3.185   4.100   3.753 -1.6902  2.5450 -0.1556
16737TIP3    H271627   3.173   4.193   3.872 -0.1959 -0.9094  2.8842
16738TIP3   OH271628   6.403   5.666  14.380  0.4903 -0.5243 -0.2002
16738TIP3    H171629   6.457   5.593  14.348 -0.1555 -0.2464 -2.0462
16738TIP3    H271630   6.456   5.706  14.449  2.0184 -1.1370 -0.9590
16739TIP3   OH271631   2.523   3.110  12.071  0.0428 -0.2839 -0.2554
16739TIP3    H171632   2.488   3.199  12.078 -2.1054 -1.0489 -0.5089
16739TIP3    H271633   2.596   3.118  12.010 -0.2352  1.2731 -0.4360
16740TIP3   OH271634   6.325   2.553   1.551 -0.4752 -0.3644 -0.3645
16740TIP3    H171635   6.331   2.501   1.632  0.0955  1.4685  0.8468
16740TIP3    H271636   6.244   2.603   1.561 -1.3217 -1.3921 -1.7856
16741TIP3   OH271637   6.086   4.049  16.640  0.2976  0.1732 -0.1495
16741TIP3    H171638   6.165   4.040  16.586 -0.0526  2.8339 -1.2967
16741TIP3    H271639   6.079   3.966  16.686  1.1355 -2.0075 -3.5418
16742TIP3   OH271640   1.343   1.282   0.905 -0.4885 -0.1692 -1.0245
16742TIP3    H171641   1.303   1.296   0.820 -1.1520  0.1208 -0.6685
16742TIP3    H271642   1.281   1.226   0.952 -0.6276  0.5283 -0.3611
16743TIP3   OH271643   2.833   4.776  13.270  0.0126  0.3679 -0.0580
16743TIP3    H171644   2.892   4.790  13.196  0.6026 -0.8579  0.1667
16743TIP3    H271645   2.890   4.775  13.347 -0.5719  1.4325  0.4177
16744TIP3   OH271646   0.293   3.608  14.611 -0.2301  0.5037  0.3622
16744TIP3    H171647   0.222   3.546  14.595  0.0605 -0.4366  2.3542
16744TIP3    H271648   0.250   3.691  14.627 -1.1067 -0.3759  3.1676
16745TIP3   OH271649   1.761   0.343   2.442  0.1993 -0.0715  0.0392
16745TIP3    H171650   1.789   0.425   2.401 -0.9557  0.4238  0.1956
16745TIP3    H271651   1.827   0.326   2.510  1.4146 -0.2135 -1.1270
16746TIP3   OH271652   0.187   4.131   3.526 -0.3239 -0.2013 -0.4226
16746TIP3    H171653   0.188   4.093   3.438  0.3892 -0.7442 -0.1965
16746TIP3    H271654   0.160   4.221   3.513  0.8095  0.0392 -1.3419
16747TIP3   OH271655   0.925   1.805   0.626  0.1391  0.2221 -0.0298
16747TIP3    H171656   0.983   1.762   0.563  0.4733 -0.5745  0.7997
16747TIP3    H271657   0.851   1.835   0.573 -0.2696 -1.6831 -0.6101
16748TIP3   OH271658   3.575   1.134   1.276  0.6288 -0.2085 -0.4864
16748TIP3    H171659   3.486   1.119   1.245  0.0521  0.2985  0.8564
16748TIP3    H271660   3.609   1.046   1.293  0.3422 -0.3983 -0.8764
16749TIP3   OH271661   2.352   1.052  10.965  0.8125  0.0013 -0.4092
16749TIP3    H171662   2.379   1.144  10.954  0.4841  0.1552  0.0273
16749TIP3    H271663   2.404   1.021  11.039 -1.4754  0.8731  1.7506
16750TIP3   OH271664   0.532   4.873   5.479  0.3919  0.8069 -0.5298
16750TIP3    H171665   0.505   4.825   5.558 -0.1042  0.1841 -1.0698
16750TIP3    H271666   0.484   4.956   5.485 -1.0301  0.0615 -1.0427
16751TIP3   OH271667   6.223   4.658  17.311 -0.5621 -0.2419 -0.2489
16751TIP3    H171668   6.250   4.658  17.403 -1.4676 -0.7434  0.0247
16751TIP3    H271669   6.145   4.713  17.308 -1.1758 -1.1018 -0.5083
16752TIP3   OH271670   3.474   2.395  15.398  0.6067  0.5336 -0.0179
16752TIP3    H171671   3.480   2.334  15.471  0.0470 -0.1801 -0.5553
16752TIP3    H271672   3.464   2.481  15.439  0.1637  0.1277  0.7379
16753TIP3   OH271673   3.455   1.194  15.987  0.3080 -0.0172  0.8925
16753TIP3    H171674   3.375   1.150  16.017  0.0946  0.7892  1.5548
16753TIP3    H271675   3.512   1.123  15.958 -0.6472 -0.6029  0.4116
16754TIP3   OH271676   5.006   6.192   0.761 -0.6845  0.2235  0.2947
16754TIP3    H171677   5.066   6.172   0.689 -1.2245  1.1673 -0.4593
16754TIP3    H271678   5.048   6.156   0.839  0.6590  0.5117 -0.2690
16755TIP3   OH271679   6.692   3.982  13.424 -0.3503  0.3549 -0.3994
16755TIP3    H171680   6.751   3.908  13.440  0.5710  1.2026  0.2770
16755TIP3    H271681   6.729   4.054  13.476 -0.6685  1.5747 -1.8013
16756TIP3   OH271682   3.178   5.877  15.722 -0.6435  0.6749 -0.0974
16756TIP3    H171683   3.212   5.894  15.810 -1.1151  2.2930 -0.1834
16756TIP3    H271684   3.228   5.937  15.666 -1.6663  1.0416 -0.6351
16757TIP3   OH271685   3.852   0.338  13.589 -0.6274 -0.0459  0.8635
16757TIP3    H171686   3.853   0.278  13.664 -1.7400  0.3726  1.2254
16757TIP3    H271687   3.759   0.347  13.566 -0.2717 -2.2304 -2.2411
16758TIP3   OH271688   3.780   3.358   4.190  0.0369 -0.0486 -0.2803
16758TIP3    H171689   3.873   3.380   4.202 -0.2688  2.0684 -1.4054
16758TIP3    H271690   3.771   3.343   4.096 -0.5527 -1.4398 -0.0196
16759TIP3   OH271691   5.829   0.686  14.269  0.0651 -0.1238 -0.2939
16759TIP3    H171692   5.774   0.753  14.310  0.7184  0.2083  0.0481
16759TIP3    H271693   5.910   0.731  14.245  1.0185 -1.0251  1.0325
16760TIP3   OH271694   0.477   6.403   4.300 -0.2445  0.0143 -0.4376
16760TIP3    H171695   0.486   6.322   4.349 -1.8326  0.3248  0.4339
16760TIP3    H271696   0.384   6.425   4.307  0.2909  2.3579  0.0857
16761TIP3   OH271697   1.400   1.374   5.119  1.0835  0.3465 -0.4761
16761TIP3    H171698   1.421   1.456   5.163 -1.8140  0.2306  1.4101
16761TIP3    H271699   1.415   1.306   5.184 -0.1452 -0.1794 -0.6995
16762TIP3   OH271700   3.226   5.660   5.991 -0.7375 -0.1366  0.4725
16762TIP3    H171701   3.278   5.661   6.071  0.1294  0.5283 -0.0727
16762TIP3    H271702   3.212   5.753   5.970 -0.7989 -0.2965 -0.2324
16763TIP3   OH271703   1.993   1.617   1.237 -0.1192 -0.1205 -0.7989
16763TIP3    H171704   1.932   1.638   1.166  0.5835 -2.0457 -2.0586
16763TIP3    H271705   1.950   1.547   1.286 -0.4883  1.0312  0.5743
16764TIP3   OH271706   5.944   3.367  11.168  0.1774  0.0751  0.3764
16764TIP3    H171707   5.934   3.370  11.073  0.4005  1.7360  0.3783
16764TIP3    H271708   5.880   3.302  11.196 -2.6306  2.1783 -0.6327
16765TIP3   OH271709   5.422   3.143  11.862 -0.3355  0.3565 -0.4609
16765TIP3    H171710   5.439   3.181  11.776 -2.5688  0.9233 -0.7122
16765TIP3    H271711   5.493   3.081  11.876  0.2820  0.5420 -2.5311
16766TIP3   OH271712   2.545   6.405  12.986  0.1164 -0.5595 -0.3304
16766TIP3    H171713   2.523   6.312  12.975  3.0580 -1.6417  1.5678
16766TIP3    H271714   2.503   6.430  13.068  0.3926 -0.6057 -0.1744
16767TIP3   OH271715   4.404   1.298  11.746 -0.5289  0.3068  0.1868
16767TIP3    H171716   4.388   1.209  11.715 -0.7395  0.4957 -0.2410
16767TIP3    H271717   4.444   1.343  11.672 -1.3485  0.8541  0.0666
16768TIP3   OH271718   5.478   3.136   2.964  0.7500 -0.3637 -0.0198
16768TIP3    H171719   5.417   3.180   3.023 -1.2863  0.4409 -2.5557
16768TIP3    H271720   5.562   3.137   3.011  0.0283  3.1676  1.4929
16769TIP3   OH271721   5.689   3.271  12.258 -0.7178 -0.2609 -0.0788
16769TIP3    H171722   5.612   3.225  12.291 -0.3770 -0.6566  0.1855
16769TIP3    H271723   5.745   3.282  12.335 -0.5845  0.1809 -0.2341
16770TIP3   OH271724   1.300   2.120  16.420 -0.1983 -0.1579 -0.7370
16770TIP3    H171725   1.274   2.029  16.436 -1.4205  0.3264  0.2430
16770TIP3    H271726   1.240   2.172  16.474  0.9069  1.2036 -0.7448
16771TIP3   OH271727   4.353   1.451   4.270 -0.5905 -0.0729 -0.2818
16771TIP3    H171728   4.360   1.355   4.264 -0.2518 -0.0161 -0.8732
16771TIP3    H271729   4.328   1.479   4.182  1.1098  0.5236 -0.6150
16772TIP3   OH271730   6.173   0.674   4.365 -0.2672  0.1717 -0.8377
16772TIP3    H171731   6.209   0.744   4.419 -2.1066  0.5455  0.0168
16772TIP3    H271732   6.239   0.657   4.299  1.1402  1.2274  0.2354
16773TIP3   OH271733   1.911   2.996  10.903 -0.2816  0.9840  0.1110
16773TIP3    H171734   1.827   3.028  10.936 -1.2808 -3.1167  2.2305
16773TIP3    H271735   1.888   2.934  10.834  0.7403 -1.4218  1.8044
16774TIP3   OH271736   0.800   4.081  14.537  0.1197  0.2516 -0.8579
16774TIP3    H171737   0.859   4.155  14.522  1.5806  0.0035  2.5205
16774TIP3    H271738   0.850   4.023  14.595 -3.0753 -0.4384  1.4796
16775TIP3   OH271739   4.010   2.448   2.470 -0.1439  0.1409 -0.7354
16775TIP3    H171740   4.062   2.370   2.489  0.6704  0.8629  0.1191
16775TIP3    H271741   3.955   2.460   2.547  0.6139  1.0866 -0.3218
16776TIP3   OH271742   0.892   3.993   0.751 -0.2264 -0.0271  0.3408
16776TIP3    H171743   0.976   3.951   0.767 -0.4837 -0.2032  1.3058
16776TIP3    H271744   0.859   4.015   0.838 -2.0788 -1.7616  0.1758
16777TIP3   OH271745   5.826   2.482  13.637  0.7325  0.1644  0.3146
16777TIP3    H171746   5.772   2.522  13.706  1.0625  1.4941 -0.1671
16777TIP3    H271747   5.916   2.500  13.664  0.9134 -0.8245  0.4026
16778TIP3   OH271748   4.994   3.945   0.298  1.1956 -0.6042  0.3594
16778TIP3    H171749   4.943   3.957   0.378 -0.3910  0.5506 -0.7551
16778TIP3    H271750   5.077   3.989   0.315  0.4236  0.6634  0.9776
16779TIP3   OH271751   2.163   4.291  11.953  0.4146 -0.4852  0.0078
16779TIP3    H171752   2.252   4.322  11.972  0.1243  0.8485 -0.6962
16779TIP3    H271753   2.127   4.357  11.894 -0.1870 -2.2705 -1.7488
16780TIP3   OH271754   0.065   5.382  13.579  0.2620  0.2505 -0.1547
16780TIP3    H171755   0.043   5.452  13.640  1.6132 -1.4361  2.4371
16780TIP3    H271756  -0.019   5.357  13.540 -0.3469  2.7441 -0.6547
16781TIP3   OH271757   6.139   2.474   0.397 -0.5656  0.5106  0.0124
16781TIP3    H171758   6.153   2.433   0.483 -1.8031  1.0322  0.4789
16781TIP3    H271759   6.140   2.401   0.335  2.0763  0.2770  0.2031
16782TIP3   OH271760   3.514   3.090   3.912  0.1374 -0.4552 -0.1063
16782TIP3    H171761   3.602   3.127   3.923  0.3312 -1.4263  1.9235
16782TIP3    H271762   3.465   3.160   3.869  1.1199  1.2962  1.4438
16783TIP3   OH271763   4.106   4.702   6.686  0.3839 -0.6297  0.6937
16783TIP3    H171764   4.088   4.607   6.683 -0.3057 -0.5537  1.7597
16783TIP3    H271765   4.021   4.741   6.706  0.6152  0.2525  0.0273
16784TIP3   OH271766   5.181   1.696  14.168 -1.3143  0.4259 -0.2839
16784TIP3    H171767   5.255   1.648  14.132 -0.2517  1.4722  0.4077
16784TIP3    H271768   5.128   1.719  14.091 -0.9687 -0.4016 -0.7833
16785TIP3   OH271769   5.258   3.242   4.932 -0.2705 -0.2277 -0.2740
16785TIP3    H171770   5.181   3.269   4.881 -0.3152  1.4036  0.5904
16785TIP3    H271771   5.333   3.268   4.878 -0.3241  0.9452  0.1817
16786TIP3   OH271772   4.575   1.737   0.871  0.4403  0.2274 -0.2482
16786TIP3    H171773   4.612   1.679   0.938  1.5487  0.8101 -0.3282
16786TIP3    H271774   4.560   1.820   0.918 -0.9210 -0.0375 -0.1854
16787TIP3   OH271775   3.167   6.498  12.542 -0.1010 -0.3888  0.0791
16787TIP3    H171776   3.183   6.514  12.448  1.3033 -0.7902  0.2216
16787TIP3    H271777   3.074   6.479  12.548 -0.6888  1.8442 -0.9279
16788TIP3   OH271778   3.627   6.184   5.163 -0.2317  0.3202 -0.2011
16788TIP3    H171779   3.598   6.275   5.161  1.1358  0.7784 -0.6884
16788TIP3    H271780   3.627   6.161   5.256 -1.8580  0.3712 -0.1718
16789TIP3   OH271781   3.792   3.669  17.388  0.0328  0.1564 -0.1361
16789TIP3    H171782   3.716   3.707  17.344 -0.2830  0.9311  1.0245
16789TIP3    H271783   3.868   3.701  17.339 -0.3035  1.0884 -0.0546
16790TIP3   OH271784   1.245   2.481  12.822 -0.2804  0.3452  0.1059
16790TIP3    H171785   1.153   2.456  12.830 -0.1755 -0.5247 -1.0852
16790TIP3    H271786   1.287   2.403  12.785  0.8574  0.8782  0.2537
16791TIP3   OH271787   3.663   2.361   1.130  0.2697  0.6594  0.2046
16791TIP3    H171788   3.688   2.443   1.087 -2.0178  0.6887 -1.2417
16791TIP3    H271789   3.670   2.380   1.223 -0.5635  2.6374 -0.0921
16792TIP3   OH271790   1.912   3.495  16.063 -0.4152  0.0870  0.1258
16792TIP3    H171791   1.981   3.430  16.053 -0.5933 -0.2683  1.0838
16792TIP3    H271792   1.956   3.579  16.056  0.2932 -0.1202  1.6648
16793TIP3   OH271793   3.946   3.452   3.226 -0.1277 -0.2320 -0.2902
16793TIP3    H171794   3.905   3.429   3.309  1.1321  0.9597  0.7211
16793TIP3    H271795   3.888   3.518   3.187 -0.4401 -0.3874 -0.0861
16794TIP3   OH271796   0.951   0.266   4.606  0.4735  0.1058  0.5043
16794TIP3    H171797   0.923   0.263   4.515  1.8085  0.4898  0.0605
16794TIP3    H271798   0.887   0.212   4.653 -0.2107 -0.1167 -0.6521
16795TIP3   OH271799   5.870   5.309  14.873 -0.1761 -0.2491 -0.1887
16795TIP3    H171800   5.949   5.321  14.926 -0.9651 -0.7735  1.1447
16795TIP3    H271801   5.885   5.226  14.827  0.1838 -0.1788 -0.2030
16796TIP3   OH271802   1.623   6.512  13.419 -0.3097  0.2041 -0.2870
16796TIP3    H171803   1.625   6.600  13.382  1.8073  0.2108 -0.2420
16796TIP3    H271804   1.679   6.460  13.362  0.0630 -0.6424  0.7982
16797TIP3   OH271805   2.408   1.355   1.625  0.0765  0.4957 -0.1364
16797TIP3    H171806   2.429   1.351   1.719 -1.2075 -0.6027  0.1331
16797TIP3    H271807   2.321   1.315   1.618 -0.0609  1.0017 -1.7431
16798TIP3   OH271808   0.398   5.118   5.477  0.5783 -0.4577  0.6862
16798TIP3    H171809   0.332   5.093   5.413 -0.3219 -1.2514  1.8762
16798TIP3    H271810   0.398   5.213   5.476  0.2583 -0.4634 -0.1738
16799TIP3   OH271811   4.550   2.904   5.727 -0.5012 -0.3469 -0.2705
16799TIP3    H171812   4.639   2.907   5.694 -1.1547 -0.7606 -2.2501
16799TIP3    H271813   4.520   2.814   5.708 -1.3312 -0.2246  0.3701
16800TIP3   OH271814   2.413   2.467   4.348 -0.2394  0.1521  0.2211
16800TIP3    H171815   2.332   2.416   4.357  0.5695 -1.2197 -0.0712
16800TIP3    H271816   2.481   2.411   4.385  0.8724  0.4566 -1.2778
16801TIP3   OH271817   4.030   1.327   4.562 -0.3540 -0.1460  0.3252
16801TIP3    H171818   3.977   1.370   4.628 -0.8369  0.0203 -0.1607
16801TIP3    H271819   4.041   1.238   4.595 -2.5825 -0.7896 -0.4318
16802TIP3   OH271820   1.483   4.837   2.380  0.3055 -0.6909  0.5934
16802TIP3    H171821   1.447   4.822   2.292 -0.9907 -0.3476  1.0493
16802TIP3    H271822   1.415   4.806   2.439  1.2984 -1.2065  1.4994
16803TIP3   OH271823   5.964   4.507   4.007  0.3605 -0.5947 -0.3425
16803TIP3    H171824   5.938   4.419   3.983  0.8667 -0.2251 -2.4619
16803TIP3    H271825   5.981   4.503   4.101 -2.6318 -1.9603  0.2507
16804TIP3   OH271826   5.441   5.672   6.399  0.0398  0.1609  0.1837
16804TIP3    H171827   5.522   5.621   6.396  0.3205  0.6162 -0.2097
16804TIP3    H271828   5.371   5.607   6.388  0.3248 -0.2840  0.9587
16805TIP3   OH271829   4.631   0.760   5.199  0.1148 -1.0094 -0.7088
16805TIP3    H171830   4.535   0.767   5.204  0.0459 -1.5547 -1.1330
16805TIP3    H271831   4.653   0.696   5.266  0.2291 -0.5734 -0.3244
16806TIP3   OH271832   4.583   6.515   3.607 -0.3463 -0.2980  0.0476
16806TIP3    H171833   4.582   6.453   3.534 -2.3546  1.0945 -1.2066
16806TIP3    H271834   4.536   6.591   3.574 -1.0195  0.5288  2.7015
16807TIP3   OH271835   4.406   3.635   4.855  0.3757 -0.1138  0.1572
16807TIP3    H171836   4.432   3.699   4.789 -1.2459 -0.3272 -0.7524
16807TIP3    H271837   4.315   3.657   4.875  0.1288 -1.4579  0.6290
16808TIP3   OH271838   2.052   5.405   2.437  0.1275 -0.6163 -0.4791
16808TIP3    H171839   2.091   5.492   2.445  0.1377 -0.6414 -0.2538
16808TIP3    H271840   1.991   5.413   2.364 -1.5519  0.2109  0.9495
16809TIP3   OH271841   6.435   1.502   4.067  0.0903  0.3766  0.3500
16809TIP3    H171842   6.476   1.426   4.026 -0.0780  0.2960  0.3310
16809TIP3    H271843   6.505   1.542   4.119  0.5011  0.8689 -0.5468
16810TIP3   OH271844   4.169   1.299  16.061  0.5453  0.1054  0.1331
16810TIP3    H171845   4.151   1.385  16.024  1.5731 -0.5388 -1.9990
16810TIP3    H271846   4.131   1.237  15.999  1.0465 -1.0252  0.9123
16811TIP3   OH271847   1.756   0.118  11.427  0.6846 -0.3121 -0.4096
16811TIP3    H171848   1.763   0.067  11.347 -1.8810  0.0768 -0.9614
16811TIP3    H271849   1.780   0.207  11.402 -0.0037 -0.2137 -0.7161
16812TIP3   OH271850   4.645   2.000   2.257  0.0635 -0.0335 -0.5858
16812TIP3    H171851   4.639   1.908   2.231  1.4708 -0.0583 -0.8876
16812TIP3    H271852   4.581   2.045   2.202 -0.9304 -0.8734 -0.1475
16813TIP3   OH271853   1.061   2.584   4.062  0.1109 -0.0736 -0.3412
16813TIP3    H171854   1.042   2.507   4.115  0.0387  0.4090  0.3452
16813TIP3    H271855   0.977   2.608   4.023 -0.2563  0.6777  0.8399
16814TIP3   OH271856   4.283   5.105   6.483  0.2590 -0.0865  0.0276
16814TIP3    H171857   4.279   5.099   6.388 -0.0928  0.5714 -0.0018
16814TIP3    H271858   4.319   5.192   6.501 -0.5052  0.1411  0.4972
16815TIP3   OH271859   3.738   5.046   2.147 -0.1771  0.7897  0.7832
16815TIP3    H171860   3.725   5.088   2.232  0.8860  2.4962  0.1428
16815TIP3    H271861   3.690   4.963   2.155 -1.4584  1.6083  2.4680
16816TIP3   OH271862   4.012   0.842  13.744  0.6864  0.7579  0.3049
16816TIP3    H171863   4.014   0.749  13.725 -0.9111  0.4878  1.2486
16816TIP3    H271864   3.954   0.879  13.678  1.2536  1.0776 -0.0197
16817TIP3   OH271865   0.288   4.163   5.580  0.3253  0.2988 -0.5998
16817TIP3    H171866   0.215   4.186   5.522  0.4335  0.1709 -0.7875
16817TIP3    H271867   0.267   4.207   5.663  0.4872  1.0299 -0.9305
16818TIP3   OH271868   1.575   4.482  14.257  0.4205 -0.1334  0.4619
16818TIP3    H171869   1.577   4.399  14.209 -1.3159 -0.7998  1.4445
16818TIP3    H271870   1.575   4.457  14.349 -0.5581  0.9099  0.7773
16819TIP3   OH271871   3.741   2.627  16.388  0.3003 -0.1952  0.2858
16819TIP3    H171872   3.747   2.688  16.462 -2.8419  0.7041 -0.0615
16819TIP3    H271873   3.745   2.682  16.310 -1.9263 -0.4001 -0.0438
16820TIP3   OH271874   1.627   6.521  12.787  0.5385  0.2173 -0.7090
16820TIP3    H171875   1.682   6.568  12.850  0.8316  0.6507 -1.2830
16820TIP3    H271876   1.548   6.498  12.837  1.2121 -0.3768  0.1077
16821TIP3   OH271877   5.911   6.661   0.054 -0.2931  0.2617  0.1405
16821TIP3    H171878   5.904   6.640   0.147 -1.1285  0.8934  0.2278
16821TIP3    H271879   5.916   6.756   0.051  0.4424  0.2197 -0.4310
16822TIP3   OH271880   0.023   4.581  13.563 -0.0126  0.2899  0.4656
16822TIP3    H171881   0.010   4.518  13.634 -0.3891  1.5720  1.5872
16822TIP3    H271882  -0.055   4.570  13.508 -0.8113  0.7534  1.4569
16823TIP3   OH271883   0.066   5.392  11.815  0.1787 -0.1549  0.0776
16823TIP3    H171884   0.080   5.299  11.796  0.1562 -0.0662 -0.3777
16823TIP3    H271885   0.154   5.430  11.809 -0.0067  0.1146 -1.2005
16824TIP3   OH271886   6.197   4.108   0.391 -0.3015 -0.3775 -0.5709
16824TIP3    H171887   6.270   4.171   0.389 -0.2323 -0.4258  0.3616
16824TIP3    H271888   6.161   4.111   0.302  0.2887  0.2915 -0.7956
16825TIP3   OH271889   6.643   0.575  16.104  0.5441 -0.1135  0.2054
16825TIP3    H171890   6.643   0.565  16.009  1.4318 -2.4530  0.3800
16825TIP3    H271891   6.735   0.588  16.127  0.8821 -3.0365  0.9307
16826TIP3   OH271892   0.981   2.904   1.658 -0.1332 -0.0950 -0.0696
16826TIP3    H171893   0.914   2.840   1.683  0.4099 -0.6094  0.0681
16826TIP3    H271894   0.949   2.939   1.575 -0.8331  0.0342  0.2410
16827TIP3   OH271895   4.929   2.962   6.545  0.0041  0.1559 -0.4225
16827TIP3    H171896   4.954   2.933   6.633 -1.1966  0.2943 -0.0174
16827TIP3    H271897   5.009   2.956   6.494  0.6801 -0.0974  0.6423
16828TIP3   OH271898   0.436   3.029   5.171  0.3536 -0.3929 -0.4804
16828TIP3    H171899   0.359   3.076   5.202  0.8017  0.2157 -0.2607
16828TIP3    H271900   0.504   3.096   5.163  1.1913 -1.0873  0.4615
16829TIP3   OH271901   3.067   4.554   1.405 -0.1410 -0.0129 -0.3046
16829TIP3    H171902   3.011   4.595   1.470 -1.1755 -1.6456 -0.1049
16829TIP3    H271903   3.013   4.549   1.326  0.2023 -0.3542 -0.5225
16830TIP3   OH271904   6.217   1.822  11.374  0.7571  0.0450 -0.1206
16830TIP3    H171905   6.310   1.843  11.374  0.6881  0.3524 -0.4146
16830TIP3    H271906   6.213   1.732  11.408  1.0727  0.4006  0.9118
16831TIP3   OH271907   1.550   5.811  17.255  0.3751  0.4891  0.0565
16831TIP3    H171908   1.580   5.889  17.209 -0.3914  0.7304 -0.0538
16831TIP3    H271909   1.583   5.738  17.203  0.5518  0.7465 -0.1951
16832TIP3   OH271910   2.842   0.202   1.286 -0.1203  0.5733  0.5770
16832TIP3    H171911   2.911   0.161   1.234  0.4362 -1.4427  2.7048
16832TIP3    H271912   2.859   0.296   1.278  1.2076  0.2520 -1.0928
16833TIP3   OH271913   1.307   6.070  16.292 -0.4588 -0.2157 -0.5648
16833TIP3    H171914   1.299   6.080  16.197 -2.5250 -0.0628 -0.4244
16833TIP3    H271915   1.362   6.144  16.320 -2.1533  1.4497 -1.3718
16834TIP3   OH271916   3.375   3.724  12.773 -0.3765 -0.4996  0.2630
16834TIP3    H171917   3.468   3.746  12.764 -0.4053  0.7613  2.4717
16834TIP3    H271918   3.352   3.685  12.688  1.8919  0.0893 -0.7126
16835TIP3   OH271919   5.401   5.956  14.693 -0.4498  0.0838 -0.0180
16835TIP3    H171920   5.449   5.874  14.681 -0.7565 -0.2026  0.6524
16835TIP3    H271921   5.469   6.022  14.707 -0.2230 -0.1487 -0.0192
16836TIP3   OH271922   2.481   2.906   2.524 -0.3278  0.1739 -0.1785
16836TIP3    H171923   2.575   2.918   2.515 -0.5481  1.2184 -1.3858
16836TIP3    H271924   2.458   2.948   2.607  0.0207  1.5633 -0.7654
16837TIP3   OH271925   0.567   5.468  12.679 -0.3594 -0.4665 -0.4038
16837TIP3    H171926   0.627   5.498  12.611 -1.3020  0.8812 -0.6701
16837TIP3    H271927   0.591   5.520  12.756 -0.6494 -0.5141 -0.2815
16838TIP3   OH271928   4.687   0.657   3.613 -0.0717 -0.8911 -0.2324
16838TIP3    H171929   4.618   0.620   3.558  0.8205 -0.7463 -1.5118
16838TIP3    H271930   4.762   0.599   3.600  0.3594 -0.4719  0.3190
16839TIP3   OH271931   2.123   4.507  11.796  0.1942  0.2041 -0.2679
16839TIP3    H171932   2.215   4.505  11.772  0.3865 -0.6079  0.4832
16839TIP3    H271933   2.076   4.511  11.713  0.8848 -0.4321 -0.6975
16840TIP3   OH271934   6.563   6.397  16.252  0.4277  0.7104  0.3791
16840TIP3    H171935   6.568   6.358  16.339  1.1833  2.4546  1.1702
16840TIP3    H271936   6.484   6.451  16.255  0.0645  0.2194 -0.2723
16841TIP3   OH271937   2.910   5.727   1.402 -0.3164  0.4158 -0.1888
16841TIP3    H171938   2.859   5.646   1.394 -0.0588  0.1472  0.7747
16841TIP3    H271939   2.926   5.754   1.312 -2.5243  0.7588 -0.5481
16842TIP3   OH271940   0.389   3.471  12.837  0.5195 -0.0704 -0.2519
16842TIP3    H171941   0.402   3.550  12.784  1.3647  1.2944  1.8409
16842TIP3    H271942   0.394   3.502  12.927  0.5161 -2.4905  0.6568
16843TIP3   OH271943   2.183   4.090  15.844  0.3140 -0.4988  0.3248
16843TIP3    H171944   2.228   4.171  15.820  0.1942 -0.8978 -1.3802
16843TIP3    H271945   2.235   4.021  15.802 -0.5634 -1.1564  0.2923
16844TIP3   OH271946   5.703   0.499   4.225 -0.1269 -0.2429 -0.3216
16844TIP3    H171947   5.654   0.574   4.259  0.8961 -1.2602  3.9412
16844TIP3    H271948   5.794   0.527   4.226  0.1513 -1.1362  0.1987
16845TIP3   OH271949   1.271   4.308   6.274  0.0799 -0.5147  0.0559
16845TIP3    H171950   1.310   4.368   6.337  1.0383 -1.5897  0.5346
16845TIP3    H271951   1.210   4.362   6.223  0.2465  0.6476  1.0415
16846TIP3   OH271952   4.333   4.518   2.538  0.1173 -0.6166  0.3305
16846TIP3    H171953   4.249   4.473   2.525  0.4083 -1.2993  0.7819
16846TIP3    H271954   4.311   4.611   2.535 -0.7844 -0.7885  1.2392
16847TIP3   OH271955   3.387   5.094   1.791 -0.6091 -0.5321  0.1767
16847TIP3    H171956   3.393   5.108   1.886 -1.8257 -0.0614  0.2041
16847TIP3    H271957   3.337   5.013   1.782 -0.0888 -0.8319 -0.0686
16848TIP3   OH271958   5.359   1.740  12.625 -0.1068  0.3193  0.2819
16848TIP3    H171959   5.328   1.659  12.665 -0.9275  0.3839 -0.1985
16848TIP3    H271960   5.404   1.786  12.695 -0.4075 -0.1554  0.7895
16849TIP3   OH271961   1.112   5.356  12.090 -0.8282  0.2179 -0.2410
16849TIP3    H171962   1.178   5.419  12.061  1.4469 -1.1383  1.5754
16849TIP3    H271963   1.144   5.272  12.058 -2.2565 -0.3829 -0.1787
16850TIP3   OH271964   6.253   2.735  11.145  0.1873 -0.1621  0.7831
16850TIP3    H171965   6.184   2.771  11.201  1.6387  2.6352  0.9712
16850TIP3    H271966   6.311   2.689  11.205 -0.3120 -0.5734  0.9588
16851TIP3   OH271967   1.156   1.287   2.227 -0.7515 -0.4377  0.3309
16851TIP3    H171968   1.122   1.239   2.152 -1.0453 -1.3210  1.0037
16851TIP3    H271969   1.201   1.363   2.190 -2.7653  0.3570 -0.6427
16852TIP3   OH271970   0.432   1.983  16.735 -0.5746  0.1460 -0.4696
16852TIP3    H171971   0.497   2.052  16.723 -0.6482  0.4072  0.6082
16852TIP3    H271972   0.365   2.002  16.669  1.2053 -1.1164 -2.8373
16853TIP3   OH271973   5.394   0.749  16.593 -0.0315 -0.4414 -0.1911
16853TIP3    H171974   5.339   0.675  16.567 -0.6824 -0.2332  0.5591
16853TIP3    H271975   5.403   0.740  16.688  1.2327 -0.4637 -0.3006
16854TIP3   OH271976   2.787   0.033  16.163  0.2402 -0.4642 -0.2544
16854TIP3    H171977   2.858   0.064  16.219  1.0131  0.9449 -1.9274
16854TIP3    H271978   2.715   0.092  16.181  0.3537 -0.2683 -0.4390
16855TIP3   OH271979   4.050   0.934   5.728 -0.1989  0.3052 -0.6131
16855TIP3    H171980   4.138   0.958   5.702  0.5034 -1.2871  0.1328
16855TIP3    H271981   4.005   0.913   5.646  0.7995 -0.9312 -0.8810
16856TIP3   OH271982   2.874   3.313   3.814 -0.2319  0.0791  0.1587
16856TIP3    H171983   2.842   3.400   3.839 -2.2505  0.2637 -2.5826
16856TIP3    H271984   2.933   3.330   3.741 -0.0829 -0.8086  0.0676
16857TIP3   OH271985   4.667   5.612   4.269 -0.2966 -0.0015  0.8359
16857TIP3    H171986   4.618   5.626   4.188  0.6853 -2.1854 -0.2277
16857TIP3    H271987   4.617   5.546   4.317  0.4769 -0.6873  0.7261
16858TIP3   OH271988   5.990   4.534  12.964  0.5358 -0.1327 -0.1221
16858TIP3    H171989   6.028   4.471  12.903  1.0689 -0.3113  0.3858
16858TIP3    H271990   5.944   4.480  13.028  0.2231  0.0421 -0.1940
16859TIP3   OH271991   3.621   6.651   1.389  0.4192 -0.0655  0.8031
16859TIP3    H171992   3.649   6.613   1.306 -1.0388  1.3133 -0.3772
16859TIP3    H271993   3.558   6.588   1.424  1.0111 -0.6354  0.8664
16860TIP3   OH271994   3.137   0.379   5.096 -0.4552  0.2452 -0.7938
16860TIP3    H171995   3.149   0.358   5.004  0.8246  1.7539 -1.0162
16860TIP3    H271996   3.135   0.294   5.140 -0.1487 -0.4621 -2.1068
16861TIP3   OH271997   3.130   4.764  12.392 -0.4402 -0.4710 -0.1355
16861TIP3    H171998   3.137   4.678  12.351  0.7873  0.5242 -2.1760
16861TIP3    H271999   3.067   4.812  12.338  0.9300  0.7521 -0.7275
16862TIP3   OH272000   4.273   2.053   0.500 -0.1162  0.5042 -0.5985
16862TIP3    H172001   4.330   1.977   0.510 -0.1842  0.3559 -1.2567
16862TIP3    H272002   4.222   2.056   0.580  1.4343  1.1651  0.4147
16863TIP3   OH272003   1.276   0.896  14.532  0.6515  0.4405 -0.7061
16863TIP3    H172004   1.341   0.888  14.602  1.1809  0.3364 -1.2059
16863TIP3    H272005   1.210   0.831  14.554 -0.0148  1.4888  0.5642
16864TIP3   OH272006   2.053   6.495   5.614 -0.1720  0.4037 -0.1820
16864TIP3    H172007   1.999   6.507   5.693 -0.1678 -0.9874  0.0493
16864TIP3    H272008   2.141   6.481   5.648  0.0182  0.8651 -0.4863
16865TIP3   OH272009   6.287   0.455  12.184 -0.1296  0.2791 -0.0110
16865TIP3    H172010   6.191   0.459  12.179 -0.1687 -1.1328 -0.8088
16865TIP3    H272011   6.305   0.437  12.276 -0.7462 -1.4084 -0.1925
16866TIP3   OH272012   3.060   5.921   4.337 -0.4642  0.0152  0.1962
16866TIP3    H172013   3.064   5.940   4.431  2.1019 -2.5954  0.7332
16866TIP3    H272014   2.975   5.878   4.325  0.2844 -2.1180  1.9527
16867TIP3   OH272015   3.701   4.988   4.285  0.1574  0.9454  0.2271
16867TIP3    H172016   3.608   5.009   4.277 -0.9612 -2.9094  0.8687
16867TIP3    H272017   3.725   5.018   4.372 -1.3791 -0.5455  1.2253
16868TIP3   OH272018   4.999   2.070   1.884 -0.5357  0.6404  0.0633
16868TIP3    H172019   4.995   2.028   1.970 -2.1257  1.0079  0.1992
16868TIP3    H272020   4.908   2.075   1.855 -0.2807  2.7598 -0.5523
16869TIP3   OH272021   3.519   1.273   2.025 -0.3976  0.3884 -0.5266
16869TIP3    H172022   3.574   1.334   1.977 -2.1288  4.3160  1.9138
16869TIP3    H272023   3.571   1.250   2.103 -0.9760  1.5306  0.2121
16870TIP3   OH272024   5.129   1.551  11.280 -0.3781 -0.1172  0.4139
16870TIP3    H172025   5.110   1.548  11.373 -0.9530 -1.4589  0.2878
16870TIP3    H272026   5.223   1.567  11.275 -0.3154 -0.1838  1.2327
16871TIP3   OH272027   1.303   6.095   4.613 -0.0121  0.0292 -0.8631
16871TIP3    H172028   1.307   6.130   4.702 -0.5305  2.2430 -1.6639
16871TIP3    H272029   1.395   6.083   4.588  0.2083  1.5032 -0.8099
16872TIP3   OH272030   5.752   0.743   2.567  0.0334  0.3366  0.0419
16872TIP3    H172031   5.672   0.776   2.526 -0.3121 -0.6791 -0.1207
16872TIP3    H272032   5.727   0.659   2.605  1.2985 -0.5703 -1.0335
16873TIP3   OH272033   6.591   2.976   4.420 -0.4607 -0.3703 -0.4405
16873TIP3    H172034   6.538   3.047   4.382  0.9611  0.9760  0.0025
16873TIP3    H272035   6.526   2.918   4.461 -1.6402  0.8789 -0.4587
16874TIP3   OH272036   4.372   0.907   5.812  0.5005 -0.2044 -0.3814
16874TIP3    H172037   4.415   0.966   5.874 -1.0507  0.5563  0.0415
16874TIP3    H272038   4.437   0.839   5.793  1.0610 -0.4117  2.0013
16875TIP3   OH272039   6.228   0.794  12.544 -0.1791  0.5294  0.1120
16875TIP3    H172040   6.193   0.881  12.521  1.3821  1.6840  1.7832
16875TIP3    H272041   6.316   0.793  12.507  1.0337  1.0278  2.7337
16876TIP3   OH272042   5.250   2.445   5.400  0.2562  0.1305 -0.0836
16876TIP3    H172043   5.341   2.466   5.423  0.0309 -1.9366  3.5293
16876TIP3    H272044   5.254   2.354   5.370 -0.7505 -0.8551  2.4715
16877TIP3   OH272045   4.420   6.048   5.712 -0.6040 -0.1102 -0.3450
16877TIP3    H172046   4.347   6.104   5.683  0.0860  0.9143 -0.1534
16877TIP3    H272047   4.460   6.097   5.784 -0.9321 -1.5832  0.8988
16878TIP3   OH272048   0.109   5.750   5.906 -0.5239  0.3494 -0.4617
16878TIP3    H172049   0.110   5.837   5.869 -1.1625  0.4588 -0.2418
16878TIP3    H272050   0.140   5.762   5.996  0.6643  0.1405 -0.8242
16879TIP3   OH272051   2.666   5.463  15.620  0.4952  0.5997  0.5840
16879TIP3    H172052   2.625   5.528  15.564 -1.8730  1.0154  2.5968
16879TIP3    H272053   2.665   5.502  15.708  1.8901 -0.9174  1.3404
16880TIP3   OH272054   1.791   3.985   6.183  0.3060  0.2689 -0.2039
16880TIP3    H172055   1.820   4.062   6.231  0.4807  1.2376 -1.7775
16880TIP3    H272056   1.866   3.925   6.187  1.2474  1.3261 -1.2640
16881TIP3   OH272057   4.233   4.524   0.863 -0.2158  0.2948  0.1301
16881TIP3    H172058   4.197   4.517   0.775 -0.7546 -2.2902  0.4741
16881TIP3    H272059   4.170   4.578   0.911 -0.4387  0.8787 -0.8006
16882TIP3   OH272060   6.614   2.423  15.502 -0.5029 -0.5937 -0.0038
16882TIP3    H172061   6.593   2.331  15.487 -0.2182 -0.8690  1.2184
16882TIP3    H272062   6.638   2.428  15.595  0.1315  0.5877 -0.2091
16883TIP3   OH272063   3.301   5.993  13.999  0.3091 -0.3027 -0.0716
16883TIP3    H172064   3.208   5.975  14.009  0.8124 -2.2711  1.7433
16883TIP3    H272065   3.308   6.037  13.914 -2.3039  0.3823 -0.0007
16884TIP3   OH272066   2.918   2.599  11.518  0.0722 -0.2057 -0.4892
16884TIP3    H172067   2.951   2.589  11.608 -0.6628 -0.1126 -0.2061
16884TIP3    H272068   2.991   2.570  11.463  0.1119 -1.4478  0.1662
16885TIP3   OH272069   1.967   1.447   0.166  0.4512  0.0745  0.9608
16885TIP3    H172070   1.913   1.395   0.226 -0.3060  0.8627  0.9792
16885TIP3    H272071   1.974   1.393   0.088 -0.1400 -0.1598  1.0626
16886TIP3   OH272072   1.664   6.658  14.475  0.3980 -0.2623 -0.0664
16886TIP3    H172073   1.592   6.599  14.497  1.5948 -2.0414 -0.7415
16886TIP3    H272074   1.621   6.740  14.452 -1.3488 -0.9787  0.5095
16887TIP3   OH272075   4.428   5.160   3.908 -0.0472 -0.0519 -0.2085
16887TIP3    H172076   4.363   5.226   3.929  1.0436  1.1767 -0.5615
16887TIP3    H272077   4.381   5.097   3.853 -0.4028  2.0582 -2.5008
16888TIP3   OH272078   3.842   0.006  11.692 -0.0182  0.1356 -0.1088
16888TIP3    H172079   3.873   0.030  11.605 -0.9606  0.3627 -0.3932
16888TIP3    H272080   3.753  -0.025  11.678  0.6362 -2.2196  0.4331
16889TIP3   OH272081   3.744   1.236  13.976 -0.2231  0.3025 -0.1124
16889TIP3    H172082   3.809   1.185  13.928 -1.3200 -2.1044  0.7930
16889TIP3    H272083   3.788   1.263  14.056 -0.0382 -0.4284  0.0325
16890TIP3   OH272084   2.953   3.292  12.394 -0.2220 -0.1615 -0.6630
16890TIP3    H172085   2.964   3.247  12.478  2.4684  2.8871  0.7999
16890TIP3    H272086   2.868   3.336  12.401  0.1600  0.3843  0.6467
16891TIP3   OH272087   4.192   6.559   2.595 -0.0247  0.4565  0.7048
16891TIP3    H172088   4.258   6.560   2.526 -1.3299  2.1210 -0.5777
16891TIP3    H272089   4.236   6.516   2.669  1.3384 -1.5803 -1.1769
16892TIP3   OH272090   2.061   5.709   4.499  0.5834  0.5719 -0.3876
16892TIP3    H172091   2.030   5.756   4.421  0.2468  1.5651  0.3210
16892TIP3    H272092   2.023   5.621   4.491  1.2384  0.3914 -1.7497
16893TIP3   OH272093   1.558   4.626   1.845 -0.3109 -0.2926  0.0085
16893TIP3    H172094   1.541   4.667   1.760  2.7352 -2.4221 -1.8350
16893TIP3    H272095   1.566   4.533   1.824  2.1211 -0.6967  2.3332
16894TIP3   OH272096   4.657   5.265   3.763 -0.3141  0.1905  0.2592
16894TIP3    H172097   4.585   5.220   3.809 -0.2225  0.4606  0.6679
16894TIP3    H272098   4.633   5.259   3.671  0.1491 -1.5259  0.2073
16895TIP3   OH272099   4.875   4.862   4.368  0.1439  0.4494 -0.5178
16895TIP3    H172100   4.857   4.844   4.460  0.4126  1.3724 -0.2771
16895TIP3    H272101   4.936   4.935   4.369  0.7587 -0.0303 -1.4187
16896TIP3   OH272102   4.176   0.856   0.798 -0.0467 -0.1344 -0.9812
16896TIP3    H172103   4.159   0.868   0.705  2.4825 -0.0204 -1.4862
16896TIP3    H272104   4.188   0.944   0.832  0.1846 -0.2451 -0.7762
16897TIP3   OH272105   5.373   5.872   3.535  0.2148  0.0329  0.1037
16897TIP3    H172106   5.423   5.842   3.611  0.2131  0.3241  0.2201
16897TIP3    H272107   5.323   5.947   3.567 -0.8719 -0.6959  0.1834
16898TIP3   OH272108   0.165   2.798  12.024 -0.1535 -0.5780  0.2422
16898TIP3    H172109   0.252   2.810  12.063  1.1228  1.2282 -2.7644
16898TIP3    H272110   0.167   2.710  11.988  1.1305 -0.0433 -1.1352
16899TIP3   OH272111   4.658   4.490  17.165 -0.0248  0.2727 -0.7959
16899TIP3    H172112   4.693   4.555  17.104 -0.4075  0.2396 -1.0515
16899TIP3    H272113   4.701   4.409  17.142 -1.1099 -0.0278 -1.8802
16900TIP3   OH272114   3.100   0.100  15.100 -0.1644  0.4668 -0.1664
16900TIP3    H172115   3.111   0.161  15.027 -1.6348  1.1608  0.1572
16900TIP3    H272116   3.007   0.077  15.098  0.5873 -3.3020 -1.4491
16901TIP3   OH272117   3.546   5.775   0.733  0.5500  0.4105 -0.4903
16901TIP3    H172118   3.451   5.781   0.738  0.5376  0.4680 -0.7956
16901TIP3    H272119   3.570   5.826   0.656  0.7338 -0.5127 -1.0638
16902TIP3   OH272120   2.879   3.253  14.960  0.0094  0.2354 -0.5659
16902TIP3    H172121   2.798   3.263  15.011  0.9702  1.2919  0.8181
16902TIP3    H272122   2.937   3.202  15.018  0.1349 -1.0861 -1.8067
16903TIP3   OH272123   1.330   6.333  15.062  0.2771  0.5236 -0.0091
16903TIP3    H172124   1.323   6.327  14.967 -0.3825 -0.1293  0.0748
16903TIP3    H272125   1.250   6.378  15.089 -1.3846 -2.5055  0.5277
16904TIP3   OH272126   3.287   0.368   1.357  0.3065  0.7286  0.3711
16904TIP3    H172127   3.269   0.275   1.367  0.5348  0.8732  2.9497
16904TIP3    H272128   3.269   0.387   1.265  0.4806 -1.8847 -0.2649
16905TIP3   OH272129   0.098   2.262  16.100  0.1252  0.5625  0.6814
16905TIP3    H172130   0.024   2.312  16.135  1.0591  2.4898  0.0541
16905TIP3    H272131   0.057   2.189  16.053 -1.3274  0.9632  1.2518
16906TIP3   OH272132   0.972   6.268  16.278 -0.2969 -0.1526 -0.3979
16906TIP3    H172133   0.993   6.288  16.187 -0.6375 -0.5939 -0.5753
16906TIP3    H272134   1.004   6.344  16.327  2.2060 -0.9763 -0.5870
16907TIP3   OH272135   2.256   4.992   4.189 -0.0977  0.4439 -0.5203
16907TIP3    H172136   2.312   4.993   4.267 -1.4542 -0.1190  0.5132
16907TIP3    H272137   2.267   4.904   4.153  0.7199  0.7847 -1.1272
16908TIP3   OH272138   0.339   4.575   5.494  0.4419 -0.0815  0.3226
16908TIP3    H172139   0.327   4.659   5.450  0.4381  0.3744  1.1813
16908TIP3    H272140   0.371   4.598   5.581 -0.1114 -0.9418  0.7623
16909TIP3   OH272141   5.437   4.626   4.689  0.3823 -0.3465  0.0278
16909TIP3    H172142   5.376   4.697   4.672  0.2936 -0.5607 -0.5972
16909TIP3    H272143   5.382   4.552   4.715  0.4504 -0.2653  0.3984
16910TIP3   OH272144   6.695   6.154  13.699  0.5960  0.4049  0.0787
16910TIP3    H172145   6.656   6.184  13.781  0.1298  1.2315 -0.4295
16910TIP3    H272146   6.782   6.194  13.698 -0.3986  2.7660 -1.0878
16911TIP3   OH272147   3.598   0.408  12.270 -0.2137 -0.4660 -0.0484
16911TIP3    H172148   3.653   0.333  12.249  0.7044 -0.1279  1.0488
16911TIP3    H272149   3.641   0.482  12.227 -1.3443 -0.5874 -1.4818
16912TIP3   OH272150   3.159   1.400  14.144 -0.0024 -0.2628  0.0515
16912TIP3    H172151   3.143   1.474  14.203 -3.0737 -1.7983  1.3768
16912TIP3    H272152   3.143   1.435  14.056  0.1600  0.9933  0.4980
16913TIP3   OH272153   1.022   2.096   1.617  0.1539  0.1641  0.1104
16913TIP3    H172154   0.999   2.147   1.694 -1.4581 -2.0136  1.1609
16913TIP3    H272155   1.026   2.161   1.546  0.8490  2.0914  1.8057
16914TIP3   OH272156   0.243   6.600   5.388 -0.0055 -0.0491 -0.2999
16914TIP3    H172157   0.214   6.624   5.300  2.0450  2.3567 -0.4543
16914TIP3    H272158   0.212   6.671   5.444  0.4067 -0.5218  0.5483
16915TIP3   OH272159   2.865   3.588  16.045 -0.1092  0.3657  0.4752
16915TIP3    H172160   2.848   3.505  16.088 -1.1258  0.9330  1.2088
16915TIP3    H272161   2.793   3.645  16.073  1.3377  1.9369  1.1571
16916TIP3   OH272162   5.902   4.175   5.766 -0.1280  0.0117  0.3495
16916TIP3    H172163   5.968   4.164   5.697  0.3305 -0.3487  0.8351
16916TIP3    H272164   5.948   4.221   5.836 -0.3927 -0.2361  0.6893
16917TIP3   OH272165   2.524   3.755   3.153 -0.1204  0.4734 -0.7158
16917TIP3    H172166   2.515   3.831   3.095  0.9701  0.9011 -0.3569
16917TIP3    H272167   2.462   3.691   3.119 -0.6209  1.3033 -1.3987
16918TIP3   OH272168   3.535   0.249  12.528 -0.0142 -0.0373  0.1958
16918TIP3    H172169   3.554   0.312  12.458 -2.3310  0.8198  0.2405
16918TIP3    H272170   3.479   0.184  12.487  2.6251 -2.4348  0.0590
16919TIP3   OH272171   5.012   5.503  15.478 -0.1636  0.4187  0.3941
16919TIP3    H172172   4.919   5.499  15.456 -0.2615  0.6249  0.7599
16919TIP3    H272173   5.057   5.504  15.393 -0.5171  0.8674  0.2079
16920TIP3   OH272174   5.230   6.026  11.238 -0.0952  0.0949  0.6044
16920TIP3    H172175   5.301   6.036  11.301 -0.2156 -1.9471  1.1388
16920TIP3    H272176   5.151   6.019  11.293 -0.6696  1.7962  0.0422
16921TIP3   OH272177   3.215   6.630  12.795 -0.1363 -0.2698  0.9881
16921TIP3    H172178   3.271   6.594  12.726 -2.0350  2.3200 -2.1497
16921TIP3    H272179   3.147   6.564  12.808 -1.1982  0.1974 -1.6147
16922TIP3   OH272180   6.171   4.286  13.155  0.4815  0.1830  0.7477
16922TIP3    H172181   6.151   4.378  13.170 -0.3571 -0.0958  1.4473
16922TIP3    H272182   6.236   4.264  13.222 -0.7112 -0.1860  1.8369
16923TIP3   OH272183   6.640   0.084   4.819 -0.1017 -0.4721  0.8337
16923TIP3    H172184   6.647   0.179   4.823  1.3673 -0.5620  0.8484
16923TIP3    H272185   6.598   0.067   4.734  0.6877  0.1503  0.3031
16924TIP3   OH272186   1.247   4.104   3.235  0.4823 -0.4523 -0.1161
16924TIP3    H172187   1.202   4.124   3.317 -1.7396 -1.0658 -1.1223
16924TIP3    H272188   1.182   4.121   3.167  1.5218 -2.1088 -1.6053
16925TIP3   OH272189   5.267   3.807   6.515  0.3514 -0.2090 -0.0196
16925TIP3    H172190   5.306   3.786   6.430  0.6156 -0.6444  0.2073
16925TIP3    H272191   5.339   3.796   6.578  0.1537  0.0937  0.2630
16926TIP3   OH272192   5.913   1.980  12.905  0.0952 -0.2958  0.1512
16926TIP3    H172193   5.847   1.954  12.840  0.0741 -0.4378  0.2287
16926TIP3    H272194   5.947   1.897  12.939  1.0078 -0.2286 -0.5873
16927TIP3   OH272195   5.429   3.359  14.952 -0.0739  0.4345 -0.4656
16927TIP3    H172196   5.487   3.414  15.005  0.8182 -2.3762  1.7561
16927TIP3    H272197   5.347   3.358  15.001  0.7921 -2.2770  1.1752
16928TIP3   OH272198   0.264   1.639   3.550 -0.1549 -0.1313  0.0630
16928TIP3    H172199   0.318   1.572   3.506 -1.5943 -0.8601 -0.6692
16928TIP3    H272200   0.270   1.716   3.494  0.1382 -0.2046 -0.0053
16929TIP3   OH272201   3.030   5.026   4.699 -0.3310 -0.5783  0.2626
16929TIP3    H172202   3.008   5.028   4.606  0.7881  0.8574 -0.0165
16929TIP3    H272203   3.125   5.020   4.701 -0.3434 -0.5814  1.3176
16930TIP3   OH272204   1.803   1.044   3.554  0.2555  0.5957  0.1957
16930TIP3    H172205   1.755   0.968   3.587  0.3003  1.1193  1.5277
16930TIP3    H272206   1.796   1.109   3.624  0.7615  1.5946 -0.6539
16931TIP3   OH272207   0.487   0.320  14.143 -0.4807  0.8764 -0.8051
16931TIP3    H172208   0.532   0.244  14.180  0.0493  1.9898  0.9352
16931TIP3    H272209   0.513   0.321  14.051  1.4066  0.3087 -0.3166
16932TIP3   OH272210   1.808   0.185   5.266  0.4130  0.1600  0.4584
16932TIP3    H172211   1.852   0.152   5.345 -1.0435 -3.4258 -0.0495
16932TIP3    H272212   1.872   0.172   5.196  0.5364  0.2343  0.5568
16933TIP3   OH272213   4.438   0.697   1.127 -0.5640 -0.1497 -0.6233
16933TIP3    H172214   4.448   0.792   1.115 -1.9710  0.1491  0.3276
16933TIP3    H272215   4.478   0.679   1.212 -2.7315  0.1187  0.5398
16934TIP3   OH272216   2.447   2.992   1.553  0.0522  0.1291 -0.2174
16934TIP3    H172217   2.443   2.904   1.591  0.0058 -0.6893 -2.0168
16934TIP3    H272218   2.537   3.020   1.567  0.2483 -0.4835 -0.2098
16935TIP3   OH272219   6.564   0.873   6.172  0.2745  0.4866 -0.2609
16935TIP3    H172220   6.505   0.818   6.120  0.1975  1.7380 -1.5546
16935TIP3    H272221   6.615   0.922   6.108  1.3272  0.9052  0.8472
16936TIP3   OH272222   1.501   5.523   0.637 -0.5805  0.3988 -0.5965
16936TIP3    H172223   1.539   5.564   0.715 -2.9466  0.5680  0.5383
16936TIP3    H272224   1.407   5.538   0.645 -1.3181 -2.9284 -1.5206
16937TIP3   OH272225   5.695   1.029   2.755  0.1903  0.4570  0.2629
16937TIP3    H172226   5.766   1.092   2.748  2.3429 -1.4342  2.8393
16937TIP3    H272227   5.699   0.979   2.674  0.9134  1.2378 -0.1994
16938TIP3   OH272228   4.024   6.462  12.526  0.5162  0.0194  0.5187
16938TIP3    H172229   3.934   6.473  12.557  0.3587  1.7518 -0.4044
16938TIP3    H272230   4.067   6.412  12.596 -1.0521 -0.5198  1.1522
16939TIP3   OH272231   3.585   4.036  14.036 -0.1084  0.0058  0.5625
16939TIP3    H172232   3.507   3.989  14.007 -0.9526  0.9610  1.2337
16939TIP3    H272233   3.578   4.038  14.131  0.8993 -0.1468  0.6512
16940TIP3   OH272234   3.283   3.645   4.570  0.0662 -0.2176 -0.0343
16940TIP3    H172235   3.226   3.703   4.520  0.7362  1.0740  0.6615
16940TIP3    H272236   3.224   3.582   4.612 -0.6821  0.0866 -0.6198
16941TIP3   OH272237   5.517   1.953  13.052  0.0749 -0.2038 -0.3506
16941TIP3    H172238   5.572   1.875  13.041 -0.9468 -1.4145  2.1307
16941TIP3    H272239   5.530   1.977  13.144 -1.2404  1.2844 -0.5241
16942TIP3   OH272240   2.304   3.660  11.856  0.5119 -0.0673 -0.0998
16942TIP3    H172241   2.243   3.723  11.817 -1.0066 -0.3054  1.7233
16942TIP3    H272242   2.292   3.580  11.805 -0.8091 -0.1394  0.2867
16943TIP3   OH272243   2.573   3.190  12.856  0.1301 -0.5363  0.5853
16943TIP3    H172244   2.502   3.133  12.886  0.3122 -2.2494 -1.9406
16943TIP3    H272245   2.534   3.277  12.853 -0.9899 -0.9520  1.9073
16944TIP3   OH272246   1.995   2.864   4.810  0.1760 -0.0725  0.2417
16944TIP3    H172247   2.025   2.949   4.841  0.2428  0.7047 -1.8277
16944TIP3    H272248   1.922   2.883   4.751  0.8840 -1.3343 -1.1180
16945TIP3   OH272249   2.949   3.693  16.640 -0.5011 -0.1828  0.1616
16945TIP3    H172250   2.902   3.725  16.563 -1.1462 -0.7360  0.3168
16945TIP3    H272251   3.014   3.632  16.605 -0.4969 -0.0978  0.0203
16946TIP3   OH272252   5.741   3.955  17.187  0.4036 -0.6136 -0.2186
16946TIP3    H172253   5.659   3.906  17.190  0.5437 -0.8687 -0.4532
16946TIP3    H272254   5.766   3.953  17.094  0.7486 -0.6542 -0.1227
16947TIP3   OH272255   5.583   2.406  16.436  0.1145  0.1928  0.9305
16947TIP3    H172256   5.631   2.431  16.515  0.4718  0.5392  0.6084
16947TIP3    H272257   5.501   2.369  16.468  0.3718  0.0867  1.4692
16948TIP3   OH272258   3.707   4.954  11.227  0.1771 -0.5722 -0.3949
16948TIP3    H172259   3.720   4.912  11.142 -1.1697 -0.7161 -0.5408
16948TIP3    H272260   3.634   5.014  11.213  1.4589  1.2044  0.0405
16949TIP3   OH272261   2.494   0.137  10.694  0.1351 -0.2537  0.1298
16949TIP3    H172262   2.438   0.215  10.695 -1.4426 -1.2403 -2.1399
16949TIP3    H272263   2.562   0.158  10.630  1.2405  0.1785  1.4072
16950TIP3   OH272264   0.317   0.025   1.607 -0.4302 -0.3742  0.9505
16950TIP3    H172265   0.377   0.091   1.570 -2.1600  0.8846  0.1997
16950TIP3    H272266   0.366  -0.015   1.678  1.9517 -0.7087 -0.7363
16951TIP3   OH272267   3.688   6.004  12.123 -0.0975  0.3389 -0.1164
16951TIP3    H172268   3.656   6.034  12.038  0.3078  0.6253 -0.1706
16951TIP3    H272269   3.746   6.074  12.154 -0.9707  0.6762  0.8305
16952TIP3   OH272270   2.040   3.572  10.618  0.0262 -0.2030 -0.5139
16952TIP3    H172271   2.079   3.607  10.538  0.6521 -0.9254 -0.5391
16952TIP3    H272272   1.970   3.633  10.639  1.9880  1.9215  0.2997
16953TIP3   OH272273   6.405   1.120   3.993 -0.4743 -0.4433  0.0583
16953TIP3    H172274   6.477   1.167   3.950  0.0486  0.1135  1.4999
16953TIP3    H272275   6.396   1.040   3.942  0.3623  0.0288 -0.8801
16954TIP3   OH272276   3.573   0.674   3.924 -0.0069  0.6061  0.0482
16954TIP3    H172277   3.526   0.723   3.857 -0.0854  0.6416  0.1294
16954TIP3    H272278   3.653   0.724   3.939 -0.5317  1.2264  0.8215
16955TIP3   OH272279   1.373   5.512   5.196  0.0937 -0.0937 -0.7285
16955TIP3    H172280   1.315   5.458   5.142  0.1971  0.1760 -1.1202
16955TIP3    H272281   1.408   5.577   5.135  0.0959  0.3133 -0.2997
16956TIP3   OH272282   2.166   0.985   4.239  0.4091 -0.6481 -0.3471
16956TIP3    H172283   2.137   0.903   4.199 -0.2332 -0.2885 -0.6482
16956TIP3    H272284   2.185   0.963   4.330  0.0840 -1.0989 -0.3871
16957TIP3   OH272285   4.722   6.178   6.509  0.2318 -0.0009  0.2242
16957TIP3    H172286   4.649   6.217   6.556  0.1348  1.2692 -0.9140
16957TIP3    H272287   4.734   6.092   6.550 -0.5662  0.5891  1.7647
16958TIP3   OH272288   5.508   0.555  12.307  0.6142 -0.1681  0.2806
16958TIP3    H172289   5.549   0.495  12.244  0.8631  0.6900 -0.3937
16958TIP3    H272290   5.415   0.534  12.302  0.8135 -1.3810  1.0198
16959TIP3   OH272291   1.183   2.864  17.280 -0.3547  0.0857  0.5481
16959TIP3    H172292   1.254   2.888  17.221  0.2421  1.8738  1.9228
16959TIP3    H272293   1.106   2.860  17.224  0.8753 -2.8798 -1.1779
16960TIP3   OH272294   1.862   5.342   4.209 -0.1491 -0.0365 -0.2295
16960TIP3    H172295   1.854   5.407   4.139 -1.0852  1.2183  0.9836
16960TIP3    H272296   1.907   5.268   4.168 -1.1851  0.4112 -2.3098
16961TIP3   OH272297   2.082   5.678  13.543 -0.8152  0.2928  0.6429
16961TIP3    H172298   2.115   5.606  13.489  0.2211 -0.0611  1.7198
16961TIP3    H272299   2.080   5.643  13.632  0.7393  1.9122  1.3675
16962TIP3   OH272300   1.685   6.276   2.184 -0.3903  0.0854 -0.1455
16962TIP3    H172301   1.602   6.266   2.231 -0.5336 -1.9604 -0.7306
16962TIP3    H272302   1.659   6.293   2.094 -0.1596  0.6227 -0.1097
16963TIP3   OH272303   1.634   5.352   4.368  1.0783 -0.4701  0.7933
16963TIP3    H172304   1.578   5.430   4.370  0.1688 -1.0449 -0.7449
16963TIP3    H272305   1.710   5.379   4.317  0.3254 -0.8186 -0.5703
16964TIP3   OH272306   4.140   6.440  14.236 -0.0937  0.0911  0.5591
16964TIP3    H172307   4.223   6.466  14.197 -1.1117  0.7340 -1.3002
16964TIP3    H272308   4.105   6.521  14.274 -1.4180  0.6613 -1.7149
16965TIP3   OH272309   5.838   3.943   2.660  0.2487 -0.3325  0.1188
16965TIP3    H172310   5.857   4.037   2.664 -0.8023 -0.1390  1.0480
16965TIP3    H272311   5.744   3.938   2.647  0.3980 -1.2737 -0.7497
16966TIP3   OH272312   4.682   6.392   5.991 -0.1947 -0.3604  0.1229
16966TIP3    H172313   4.754   6.435   5.943 -0.5345 -2.1580 -2.1819
16966TIP3    H272314   4.620   6.463   6.008  0.0233  0.4384 -2.0275
16967TIP3   OH272315   1.206   0.555  14.265  0.1837  0.2514  0.1393
16967TIP3    H172316   1.253   0.594  14.191 -1.0062  2.7103  0.5709
16967TIP3    H272317   1.184   0.467  14.236  0.1831  0.9759 -2.2758
16968TIP3   OH272318   4.384   6.416   2.150 -1.1304 -0.2724 -0.0405
16968TIP3    H172319   4.405   6.355   2.079 -1.4307 -1.2946  0.7279
16968TIP3    H272320   4.289   6.412   2.158 -1.0782 -0.3195  0.5646
16969TIP3   OH272321   1.209   3.835  13.950 -0.6234 -0.0723 -0.9482
16969TIP3    H172322   1.158   3.785  13.886  0.1359  0.5754 -2.1123
16969TIP3    H272323   1.189   3.927  13.930  0.5576  0.1762 -1.0847
16970TIP3   OH272324   3.685   2.356   2.550  0.0967  0.2111 -0.1329
16970TIP3    H172325   3.694   2.291   2.620 -0.7684 -0.6411 -0.7878
16970TIP3    H272326   3.759   2.415   2.563  0.3593 -0.3427  1.0649
16971TIP3   OH272327   2.349   5.451   1.748 -0.2109  0.1619  0.1681
16971TIP3    H172328   2.313   5.373   1.790 -0.5870  1.3443  2.1664
16971TIP3    H272329   2.400   5.494   1.816  2.4359  0.2144 -1.7030
16972TIP3   OH272330   5.046   4.341  15.293 -0.9623  0.3849  0.5067
16972TIP3    H172331   4.963   4.295  15.307 -1.8039  1.6402 -0.0863
16972TIP3    H272332   5.020   4.431  15.273  0.4018  0.3058 -2.1480
16973TIP3   OH272333   5.866   5.870   4.883  0.0386  0.3623  0.0932
16973TIP3    H172334   5.836   5.823   4.805 -0.7891  0.8005  0.1282
16973TIP3    H272335   5.922   5.940   4.849  1.4133 -0.7217  0.0536
16974TIP3   OH272336   1.565   4.687  12.975 -0.3693  0.4532 -0.3817
16974TIP3    H172337   1.590   4.717  12.888  2.5726 -0.3396  0.0752
16974TIP3    H272338   1.559   4.592  12.967  1.0223  0.2618  0.4569
16975TIP3   OH272339   2.338   3.629  16.511 -0.6540  0.0322 -0.0457
16975TIP3    H172340   2.345   3.559  16.446 -2.3756  0.4786 -0.7591
16975TIP3    H272341   2.364   3.708  16.464 -1.8430  0.3473 -0.1932
16976TIP3   OH272342   0.652   5.234  11.886  0.5790  0.2119  0.5823
16976TIP3    H172343   0.699   5.239  11.802  3.0279 -1.0528  1.7668
16976TIP3    H272344   0.570   5.280  11.870  1.5421  1.2160 -2.1057
16977TIP3   OH272345   0.574   5.665  17.162 -0.3808 -0.2729 -0.0102
16977TIP3    H172346   0.491   5.633  17.196 -0.2843  1.0044  1.5356
16977TIP3    H272347   0.632   5.667  17.238  0.1536  1.7040 -0.4143
16978TIP3   OH272348   5.856   2.896  12.940  0.2923 -0.0297  0.0411
16978TIP3    H172349   5.904   2.967  12.898  0.5742 -0.7860 -0.9717
16978TIP3    H272350   5.898   2.885  13.025  0.2794  0.9577  0.1896
16979TIP3   OH272351   5.554   0.767   4.776  0.4787  0.8911  0.2782
16979TIP3    H172352   5.583   0.763   4.867  0.0339 -0.9625  0.3799
16979TIP3    H272353   5.544   0.675   4.750 -0.7022  1.4054 -1.2236
16980TIP3   OH272354   1.040   1.744  15.745  0.1607  0.1493  0.4733
16980TIP3    H172355   1.071   1.751  15.835  1.1008 -0.6229  0.2301
16980TIP3    H272356   1.120   1.741  15.692 -0.3041 -1.3211 -0.2268
16981TIP3   OH272357   5.831   6.449  13.009 -0.7552  0.1374  0.2846
16981TIP3    H172358   5.815   6.384  12.941  0.9326 -1.9918  1.7690
16981TIP3    H272359   5.756   6.440  13.068 -1.0918  0.3569 -0.1065
16982TIP3   OH272360   1.443   1.511   0.311 -0.0330 -0.4804 -0.0367
16982TIP3    H172361   1.488   1.554   0.384 -1.7100 -1.8975  1.9405
16982TIP3    H272362   1.404   1.583   0.262 -0.1750  0.4641  1.3923
16983TIP3   OH272363   6.006   4.454  12.263 -0.3099  0.7767  0.4336
16983TIP3    H172364   6.063   4.377  12.264 -0.0694  0.9294 -0.7449
16983TIP3    H272365   6.029   4.501  12.344 -0.7628 -0.5774  1.3847
16984TIP3   OH272366   5.083   1.208   4.376 -0.1759  0.0157 -0.0546
16984TIP3    H172367   5.067   1.299   4.402  1.0109 -0.1854  1.5314
16984TIP3    H272368   5.030   1.156   4.436 -0.1554 -0.3575 -0.3584
16985TIP3   OH272369   1.641   2.812   2.949  0.1526 -0.2410 -0.1265
16985TIP3    H172370   1.704   2.743   2.966 -0.1274 -0.7017 -0.9216
16985TIP3    H272371   1.572   2.798   3.014 -1.1864 -2.3291 -1.8830
16986TIP3   OH272372   3.373   2.308  10.900 -0.1770  0.4001  0.0752
16986TIP3    H172373   3.305   2.376  10.897  0.4817  1.1130 -2.8332
16986TIP3    H272374   3.364   2.262  10.816  1.7924 -0.6155  0.3568
16987TIP3   OH272375   1.073   4.190  10.791  0.6192 -0.3435 -0.3352
16987TIP3    H172376   1.015   4.148  10.727 -0.5111  0.8979 -0.1552
16987TIP3    H272377   1.015   4.234  10.852  1.7416  0.7787 -0.0264
16988TIP3   OH272378   1.413   3.714  14.361  0.2354 -1.2717  0.0603
16988TIP3    H172379   1.483   3.728  14.424 -0.3659  0.3445  0.4189
16988TIP3    H272380   1.457   3.713  14.276  0.6866 -0.1047  0.2689
16989TIP3   OH272381   6.473   1.202  14.084 -0.5533  0.6330  0.2800
16989TIP3    H172382   6.524   1.283  14.076  1.9023 -0.8005  0.2912
16989TIP3    H272383   6.502   1.165  14.168  0.0946 -1.3217 -0.7621
16990TIP3   OH272384   6.542   3.602   1.572 -0.0604  0.7653 -0.2143
16990TIP3    H172385   6.567   3.512   1.592 -0.0458  1.1584  1.7320
16990TIP3    H272386   6.455   3.611   1.611  0.1393  1.7313  0.0221
16991TIP3   OH272387   1.128   4.727  12.387  0.3832  0.1393 -0.3334
16991TIP3    H172388   1.114   4.822  12.382  2.3029  0.7235  3.0579
16991TIP3    H272389   1.221   4.715  12.368  0.0968 -1.1701 -1.0543
16992TIP3   OH272390   2.905   3.488   5.952 -0.0415 -0.1725  0.5228
16992TIP3    H172391   2.812   3.485   5.930 -0.3986 -0.5298  1.9866
16992TIP3    H272392   2.934   3.397   5.945  0.3320  0.0020 -0.3872
16993TIP3   OH272393   4.761   1.020   0.840 -0.1190 -0.2538  0.4334
16993TIP3    H172394   4.843   0.983   0.807  0.1820 -0.5586  1.4733
16993TIP3    H272395   4.697   0.950   0.829 -0.0180 -0.3570  0.4962
16994TIP3   OH272396   6.661   4.468   6.789 -0.2118  0.2407 -0.4716
16994TIP3    H172397   6.678   4.374   6.790 -0.0257  0.2735 -0.6022
16994TIP3    H272398   6.707   4.500   6.712 -1.4800  0.2139 -1.2681
16995TIP3   OH272399   1.305   6.060  10.658  0.9313 -0.4053  0.2624
16995TIP3    H172400   1.292   6.086  10.750  0.4998 -1.0292  0.3841
16995TIP3    H272401   1.217   6.061  10.621  1.1620  0.3138 -0.2779
16996TIP3   OH272402   4.371   1.512   3.034 -0.3683 -0.1635  0.3565
16996TIP3    H172403   4.455   1.474   3.059  1.1816  2.5146 -0.3752
16996TIP3    H272404   4.394   1.589   2.982 -3.3290 -0.4380 -1.5910
16997TIP3   OH272405   4.945   6.059   3.830  0.2102 -0.0875  0.1377
16997TIP3    H172406   5.015   6.052   3.765  1.0241  0.1361  0.9565
16997TIP3    H272407   4.867   6.025   3.786  1.0200 -1.1526 -0.5213
16998TIP3   OH272408   3.756   2.290  11.211 -0.2291  0.0955  0.0234
16998TIP3    H172409   3.682   2.338  11.247 -0.8970  1.6359 -3.0403
16998TIP3    H272410   3.723   2.251  11.130  1.7915 -0.8445 -0.4190
16999TIP3   OH272411   4.180   6.131  13.579 -0.1185  0.8432 -0.0396
16999TIP3    H172412   4.192   6.150  13.486 -1.2708  0.6592 -0.2326
16999TIP3    H272413   4.191   6.216  13.622 -0.5930  1.1148 -0.4445
17000TIP3   OH272414   5.576   3.402   1.740 -0.0125 -0.3305 -0.1529
17000TIP3    H172415   5.517   3.454   1.687  1.6172  1.6797 -0.1375
17000TIP3    H272416   5.623   3.346   1.678  0.6716  0.7792 -0.6728
17001TIP3   OH272417   4.267   0.948   2.820  0.3391  0.3818 -0.3002
17001TIP3    H172418   4.330   1.012   2.787  1.0329 -0.9912 -1.7403
17001TIP3    H272419   4.240   0.898   2.742 -1.8839  0.3552  0.4064
17002TIP3   OH272420   5.256   5.615  11.743  0.1518  0.4832 -0.0547
17002TIP3    H172421   5.323   5.624  11.675 -0.6215  0.3735 -0.8499
17002TIP3    H272422   5.191   5.556  11.705 -1.6374  2.5076 -0.3079
17003TIP3   OH272423   6.602   4.029   2.413  0.0177 -0.5585 -0.3232
17003TIP3    H172424   6.549   4.084   2.470 -2.2042  0.4748 -3.1485
17003TIP3    H272425   6.690   4.036   2.448 -0.6763  2.4940  1.1268
17004TIP3   OH272426   1.752   6.326   1.427  0.3478  0.3978 -0.4058
17004TIP3    H172427   1.726   6.270   1.354 -0.4039 -0.3697  0.4291
17004TIP3    H272428   1.846   6.311   1.437  0.3485  0.0932 -0.8652
17005TIP3   OH272429   5.088   2.585  15.892  0.5311 -0.1524  0.5385
17005TIP3    H172430   5.029   2.534  15.837 -0.5887  0.6916  0.9413
17005TIP3    H272431   5.176   2.555  15.867 -0.0393 -1.1816 -0.2950
17006TIP3   OH272432   5.457   3.018  15.277  1.0506  0.1523 -0.2121
17006TIP3    H172433   5.443   3.089  15.339 -0.0056  0.3724 -0.6690
17006TIP3    H272434   5.475   2.942  15.332 -1.2783  0.0153  0.5042
17007TIP3   OH272435   3.047   0.233  11.224 -0.3744  0.0008 -0.2892
17007TIP3    H172436   3.113   0.290  11.184 -1.5479  0.8802 -1.0353
17007TIP3    H272437   3.055   0.151  11.176 -0.0639  0.2132 -0.6147
17008TIP3   OH272438   0.591   2.693  12.587  0.0375 -0.3454 -0.2558
17008TIP3    H172439   0.523   2.759  12.599  1.5502  0.9597  1.7801
17008TIP3    H272440   0.572   2.655  12.502 -0.7388  2.9313 -1.7025
17009TIP3   OH272441   5.503   6.370   0.307 -0.2367 -0.0155 -0.5139
17009TIP3    H172442   5.584   6.323   0.327  0.6413  1.0290 -1.4751
17009TIP3    H272443   5.451   6.365   0.387  0.6547 -0.9523  0.0198
17010TIP3   OH272444   1.924   5.495   2.222 -0.4052  0.8000  0.7466
17010TIP3    H172445   1.842   5.450   2.207  0.6676 -1.2853  0.8022
17010TIP3    H272446   1.958   5.513   2.134 -0.5352  0.9403  0.7246
17011TIP3   OH272447   3.396   5.820  13.617 -0.6458  0.3409  0.2223
17011TIP3    H172448   3.333   5.826  13.545 -0.1758  1.0873 -0.1433
17011TIP3    H272449   3.357   5.757  13.678 -0.7111 -0.8591 -1.0180
17012TIP3   OH272450   1.815   0.818  16.896  0.2555 -0.2396 -0.0507
17012TIP3    H172451   1.875   0.747  16.872  0.7357 -0.2977  1.2231
17012TIP3    H272452   1.839   0.891  16.839  0.5183 -0.7444 -0.5911
17013TIP3   OH272453   1.205   6.017  14.138 -0.5685 -0.3365  0.0473
17013TIP3    H172454   1.129   5.963  14.119 -0.9512 -0.3564  1.5889
17013TIP3    H272455   1.214   6.073  14.060 -1.3253 -1.2585 -0.7261
17014TIP3   OH272456   1.107   2.664  16.020  0.5822  0.2822  0.2603
17014TIP3    H172457   1.179   2.602  16.008 -0.5760 -0.9038 -0.8725
17014TIP3    H272458   1.121   2.730  15.952 -0.2271 -0.8095 -1.0175
17015TIP3   OH272459   3.063   4.490   3.060 -0.1575  0.5021 -0.6470
17015TIP3    H172460   3.111   4.464   3.140  0.4710  0.5352 -1.0069
17015TIP3    H272461   3.110   4.567   3.028 -1.0991  1.1830 -0.4278
17016TIP3   OH272462   3.970   4.658   0.243 -0.4845 -0.0219 -0.5774
17016TIP3    H172463   3.990   4.632   0.153 -0.1899 -1.8742 -0.0171
17016TIP3    H272464   3.882   4.694   0.239 -1.0759 -1.4894 -1.3784
17017TIP3   OH272465   3.301   3.013   1.545  0.0335  0.3077 -0.5572
17017TIP3    H172466   3.342   2.998   1.460  0.4574 -0.4149 -0.2405
17017TIP3    H272467   3.231   2.948   1.550 -0.0137  0.3724 -0.3728
17018TIP3   OH272468   4.862   3.900   6.410 -0.7140  0.2699 -0.5140
17018TIP3    H172469   4.923   3.843   6.364 -0.9479 -0.9446  0.5887
17018TIP3    H272470   4.806   3.839   6.458 -0.3910  1.4442  1.4498
17019TIP3   OH272471   0.866   5.702   5.062 -0.1182 -0.2878  0.2076
17019TIP3    H172472   0.903   5.613   5.066 -0.2925 -0.3988 -0.5383
17019TIP3    H272473   0.772   5.689   5.054 -0.1572 -0.0314  0.2372
17020TIP3   OH272474   1.108   4.656   5.268  0.0129  0.0741 -0.3383
17020TIP3    H172475   1.137   4.746   5.251  0.9959 -0.5674 -2.3882
17020TIP3    H272476   1.185   4.613   5.305 -0.1882 -0.1367 -0.1674
17021TIP3   OH272477   4.832   6.592  11.798 -0.5245 -0.3956  0.2039
17021TIP3    H172478   4.853   6.670  11.747 -0.5790 -1.1953 -1.0892
17021TIP3    H272479   4.737   6.594  11.808 -0.6008 -0.6279 -0.4148
17022TIP3   OH272480   1.211   3.871  14.226  0.5939 -0.6408 -0.2245
17022TIP3    H172481   1.280   3.817  14.265 -1.8677 -3.6815  0.3575
17022TIP3    H272482   1.222   3.859  14.132  1.0450 -0.8098 -0.1543
17023TIP3   OH272483   3.408   4.978   5.164 -0.1667  0.6409  0.4619
17023TIP3    H172484   3.489   4.938   5.193 -0.1622  0.3262  0.0354
17023TIP3    H272485   3.434   5.032   5.089 -0.6053 -0.9055 -0.8604
17024TIP3   OH272486   2.452   3.106  15.664 -0.1001  0.5115  0.2075
17024TIP3    H172487   2.428   3.195  15.692 -0.6873  0.5114 -0.2611
17024TIP3    H272488   2.373   3.055  15.678  0.1769  0.1077  0.2879
17025TIP3   OH272489   4.427   4.172   2.867 -0.4572  0.3754  0.6244
17025TIP3    H172490   4.483   4.111   2.915 -2.6116 -1.9166  0.4383
17025TIP3    H272491   4.371   4.211   2.934 -1.6752 -0.8179  0.3319
17026TIP3   OH272492   6.254   2.506  12.771 -0.4420  0.8157 -0.4685
17026TIP3    H172493   6.258   2.587  12.823 -1.0047  0.4737  0.1226
17026TIP3    H272494   6.167   2.471  12.787  0.1237 -0.4185  0.0685
17027TIP3   OH272495   5.390   2.873  11.513  0.4861 -0.4015  0.2642
17027TIP3    H172496   5.331   2.847  11.583  1.3669 -2.5443  0.2693
17027TIP3    H272497   5.335   2.923  11.452 -0.6369  0.1427  1.6660
17028TIP3   OH272498   1.702   0.948  11.724 -0.2814 -0.0853 -0.2486
17028TIP3    H172499   1.702   0.856  11.698 -0.3787  0.2982 -1.7046
17028TIP3    H272500   1.644   0.991  11.661  0.3885  1.1048 -0.0933
17029TIP3   OH272501   4.065   1.501  14.633  0.5884 -0.2773  0.0944
17029TIP3    H172502   4.005   1.573  14.652 -0.5939 -1.3183  0.5430
17029TIP3    H272503   4.151   1.533  14.660  0.0019  0.7586  0.8228
17030TIP3   OH272504   2.316   6.429  16.351  0.3612  0.0533  0.0312
17030TIP3    H172505   2.329   6.513  16.396  1.5871 -0.1826  0.1577
17030TIP3    H272506   2.353   6.443  16.264  0.8390 -0.4409  0.1513
17031TIP3   OH272507   1.621   2.519  16.575 -0.5626 -0.1358 -0.0820
17031TIP3    H172508   1.634   2.452  16.642  0.4242  0.7833  0.6889
17031TIP3    H272509   1.586   2.594  16.624 -3.7213 -0.7193 -1.2492
17032TIP3   OH272510   0.004   3.790  12.756 -0.0665 -0.1886  0.9657
17032TIP3    H172511  -0.084   3.802  12.793 -0.5681  3.1912 -0.9770
17032TIP3    H272512   0.018   3.867  12.702  3.1817 -1.8096 -0.7589
17033TIP3   OH272513   2.492   6.293  15.768  0.0546 -0.1201  0.3134
17033TIP3    H172514   2.458   6.282  15.856  0.6984  0.0359  0.5898
17033TIP3    H272515   2.520   6.205  15.741 -2.9043 -0.7853 -0.9350
17034TIP3   OH272516   1.311   1.282  16.881 -0.2591  0.0153  0.8540
17034TIP3    H172517   1.319   1.356  16.822  1.8455 -0.9176 -0.1641
17034TIP3    H272518   1.367   1.304  16.955  0.9578 -0.7816  0.2155
17035TIP3   OH272519   5.283   2.757   4.829 -0.6627  0.0033 -0.1053
17035TIP3    H172520   5.361   2.772   4.883 -1.2894 -0.0367  0.8422
17035TIP3    H272521   5.215   2.732   4.892 -1.5938  0.5983 -0.8517
17036TIP3   OH272522   3.818   1.859   6.043 -0.2051  0.2854  0.2932
17036TIP3    H172523   3.837   1.881   6.135  1.1020 -1.0010  0.3723
17036TIP3    H272524   3.798   1.943   6.002 -0.3100  0.9530  1.6394
17037TIP3   OH272525   3.692   2.382  12.034  0.0939 -0.7034  0.4427
17037TIP3    H172526   3.654   2.470  12.041 -1.7952 -1.4875  0.6973
17037TIP3    H272527   3.714   2.359  12.124  2.9811  0.4133  0.1432
17038TIP3   OH272528   6.656   0.193  12.897  0.1418  0.0457  0.2352
17038TIP3    H172529   6.742   0.224  12.925  1.4433 -1.3925 -1.8846
17038TIP3    H272530   6.667   0.172  12.804 -2.7878  0.7231 -0.3671
17039TIP3   OH272531   5.978   2.796  13.167 -0.1050  0.3006 -0.2514
17039TIP3    H172532   5.958   2.754  13.251 -3.3817  1.1796 -0.4504
17039TIP3    H272533   6.061   2.842  13.182  0.3162 -1.0217  1.9051
17040TIP3   OH272534   2.935   3.121   0.280  0.1893  0.1296 -0.1457
17040TIP3    H172535   2.870   3.186   0.308  1.1692  0.8641  0.5006
17040TIP3    H272536   2.983   3.100   0.360  0.5132 -0.6875 -0.5441
17041TIP3   OH272537   4.896   3.684  15.207 -0.1794 -0.2762  0.2924
17041TIP3    H172538   4.915   3.777  15.196 -1.8358  0.0475 -0.0284
17041TIP3    H272539   4.980   3.645  15.232  0.5547  1.2785  0.3312
17042TIP3   OH272540   1.080   4.343  13.685 -0.2013 -0.1408 -0.5560
17042TIP3    H172541   1.011   4.276  13.684 -0.3714  0.0102 -2.7244
17042TIP3    H272542   1.147   4.307  13.742 -1.4605 -0.9140  0.5073
17043TIP3   OH272543   4.323   4.295   1.002 -0.5471  0.2148 -0.3056
17043TIP3    H172544   4.326   4.370   0.942 -1.4002 -1.4424 -2.5713
17043TIP3    H272545   4.231   4.268   1.001 -0.2896 -0.7571  0.5934
17044TIP3   OH272546   3.454   5.380  14.834  0.1451  0.1160  0.0483
17044TIP3    H172547   3.520   5.316  14.862  0.3413 -0.1877 -1.0361
17044TIP3    H272548   3.372   5.348  14.872  0.2518 -0.7646 -0.4143
17045TIP3   OH272549   1.263   4.998  14.197 -0.2323 -0.1951  0.1502
17045TIP3    H172550   1.282   5.019  14.289 -0.6984 -0.3748  0.2940
17045TIP3    H272551   1.347   4.970  14.161  0.1360  0.7136  0.2902
17046TIP3   OH272552   3.965   3.927  16.033  0.0720 -0.3675  0.0532
17046TIP3    H172553   3.877   3.891  16.023 -0.0014 -0.3483  0.6075
17046TIP3    H272554   3.964   4.008  15.982  0.1509 -0.9854 -0.9707
17047TIP3   OH272555   4.930   4.347   5.800  0.3652 -0.3737  0.1472
17047TIP3    H172556   4.996   4.331   5.868 -0.0061 -1.4071  0.2783
17047TIP3    H272557   4.851   4.305   5.833 -0.2832  0.6106 -0.1477
17048TIP3   OH272558   1.630   3.547   2.309 -0.3876 -0.1740  0.0214
17048TIP3    H172559   1.611   3.542   2.216  0.0132 -0.1872 -0.0648
17048TIP3    H272560   1.701   3.611   2.316 -0.3936 -0.1949  0.3119
17049TIP3   OH272561   0.810   3.505  16.136 -0.2038 -0.3365 -0.4389
17049TIP3    H172562   0.736   3.466  16.091 -1.4235  1.6839 -0.2843
17049TIP3    H272563   0.796   3.483  16.229 -1.3092  1.0465 -0.2519
17050TIP3   OH272564   6.217   0.490  15.859  0.4432  0.8861 -0.1099
17050TIP3    H172565   6.296   0.437  15.869 -0.3143 -0.0596  1.3393
17050TIP3    H272566   6.195   0.483  15.767 -0.5961 -2.9035  0.2280
17051TIP3   OH272567   4.379   6.209  14.649  0.1521 -0.1018 -0.1038
17051TIP3    H172568   4.358   6.256  14.568  0.2913  0.0970 -0.0235
17051TIP3    H272569   4.344   6.264  14.719 -0.5982 -0.6109 -0.0630
17052TIP3   OH272570   4.471   0.258  16.330  0.2874  0.1953  0.3783
17052TIP3    H172571   4.411   0.217  16.268  0.4881 -1.7813  1.4038
17052TIP3    H272572   4.520   0.185  16.367  3.2254  1.6896 -0.2455
17053TIP3   OH272573   1.523   4.006   0.629 -0.0439 -0.0222 -0.5599
17053TIP3    H172574   1.545   3.977   0.541 -0.2738 -0.9392 -0.3291
17053TIP3    H272575   1.459   3.941   0.660  3.0019 -2.2115  1.7842
17054TIP3   OH272576   6.295   3.425   0.585 -0.0028  0.6468  0.0252
17054TIP3    H172577   6.252   3.342   0.606  1.9526 -0.8684 -1.4650
17054TIP3    H272578   6.256   3.452   0.501 -0.2081  0.9146  0.2057
17055TIP3   OH272579   1.207   0.073  15.761  0.5193  0.2625 -0.1986
17055TIP3    H172580   1.128   0.020  15.771 -0.2451  1.4282  0.0913
17055TIP3    H272581   1.275   0.023  15.805 -0.5539  0.3379  1.6200
17056TIP3   OH272582   4.678   6.262   4.082  0.0098  0.6495  0.7027
17056TIP3    H172583   4.740   6.190   4.088 -0.1424  0.4091 -0.3974
17056TIP3    H272584   4.680   6.303   4.169  1.2299  0.2664  0.8789
17057TIP3   OH272585   1.561   4.435  14.815 -0.7189 -0.4519 -0.6751
17057TIP3    H172586   1.474   4.394  14.813 -0.0281 -2.2621  1.4528
17057TIP3    H272587   1.620   4.363  14.834  0.6366  1.4115  3.1219
17058TIP3   OH272588   5.404   6.451  16.281  0.5251  0.3840  0.5064
17058TIP3    H172589   5.345   6.501  16.336  0.7103  1.4287 -0.2075
17058TIP3    H272590   5.469   6.415  16.342 -0.0138  0.4238  1.1147
17059TIP3   OH272591   6.128   0.044  16.418  0.1940 -0.0777  0.4438
17059TIP3    H172592   6.189   0.076  16.484  0.5071 -0.6980  0.4595
17059TIP3    H272593   6.048   0.094  16.433  0.7460  0.8663  0.3056
17060TIP3   OH272594   3.408   1.213   1.514 -0.1224  0.0687 -0.7329
17060TIP3    H172595   3.458   1.156   1.573 -0.6801  1.1781  0.8833
17060TIP3    H272596   3.423   1.176   1.427 -0.6433 -2.6812  0.2349
17061TIP3   OH272597   2.063   2.252   1.016  0.5052  0.3003  0.3351
17061TIP3    H172598   1.994   2.197   0.980 -0.0532  0.0601  1.7279
17061TIP3    H272599   2.075   2.321   0.950  1.7796 -1.8452 -1.8327
17062TIP3   OH272600   0.218   0.246  13.808  0.1504  0.0536 -0.1876
17062TIP3    H172601   0.190   0.180  13.745 -3.9587 -0.5325  1.9328
17062TIP3    H272602   0.206   0.329  13.762 -2.1540 -0.3872 -0.4890
17063TIP3   OH272603   2.254   6.726   0.882 -0.3204 -0.6365  0.6386
17063TIP3    H172604   2.222   6.815   0.894  1.9398  0.0840  2.0696
17063TIP3    H272605   2.176   6.671   0.885 -1.5120  1.0293  2.9012
17064TIP3   OH272606   1.792   4.665  15.039 -0.4195  0.2352  0.5222
17064TIP3    H172607   1.724   4.684  14.974  0.1654 -0.4088 -0.3093
17064TIP3    H272608   1.873   4.668  14.989  0.3176  2.1855  1.7297
17065TIP3   OH272609   0.397   6.583   4.654 -0.0488  0.1689 -0.4617
17065TIP3    H172610   0.334   6.550   4.717 -1.0113 -1.1954 -2.0581
17065TIP3    H272611   0.460   6.512   4.643  1.2756  1.1548  0.3991
17066TIP3   OH272612   6.184   3.158  12.229 -0.3828  0.1970  0.1244
17066TIP3    H172613   6.266   3.195  12.261 -1.0704 -0.4166  2.7840
17066TIP3    H272614   6.154   3.100  12.299 -2.7054 -0.2131 -1.0980
17067TIP3   OH272615   1.969   0.727  13.655 -0.2186  0.4025 -0.2746
17067TIP3    H172616   2.001   0.636  13.655 -0.2877  0.2598 -3.2043
17067TIP3    H272617   2.049   0.780  13.662  0.0348  0.0701 -0.5497
17068TIP3   OH272618   5.630   2.409   4.759 -0.0119 -0.2726 -0.1084
17068TIP3    H172619   5.662   2.499   4.768 -4.0480  1.5861 -1.9870
17068TIP3    H272620   5.650   2.385   4.669 -1.9880  0.2118 -0.7250
17069TIP3   OH272621   2.481   5.560   0.849  0.1212 -0.3375  0.5587
17069TIP3    H172622   2.528   5.539   0.930  0.4743  1.3698  0.8411
17069TIP3    H272623   2.424   5.633   0.873  0.1827  0.1415 -0.7033
17070TIP3   OH272624   5.323   5.925   1.463  0.2066  0.2680  0.3337
17070TIP3    H172625   5.239   5.937   1.418 -0.2172  0.7845  1.2341
17070TIP3    H272626   5.357   5.842   1.430 -1.3295 -0.6571  0.9864
17071TIP3   OH272627   3.021   4.197   2.168 -0.4271  0.1646 -0.1501
17071TIP3    H172628   2.983   4.244   2.095 -0.8694  0.9751  0.5780
17071TIP3    H272629   2.992   4.106   2.157 -1.8531  0.5904 -0.1025
17072TIP3   OH272630   2.875   6.345  12.131 -0.0411 -0.6732 -0.4403
17072TIP3    H172631   2.887   6.252  12.148  0.9300 -1.2105 -3.4118
17072TIP3    H272632   2.881   6.387  12.217  0.3666 -3.2358  0.8697
17073TIP3   OH272633   6.333   6.512  15.647  0.0826  0.4426 -0.1350
17073TIP3    H172634   6.256   6.559  15.678 -0.2921 -1.2539  1.7786
17073TIP3    H272635   6.297   6.437  15.600  0.6452  1.2447 -1.9071
17074TIP3   OH272636   5.470   5.300   6.614  0.2257 -0.3149 -0.2021
17074TIP3    H172637   5.465   5.371   6.678 -1.2744 -0.1880 -0.4231
17074TIP3    H272638   5.564   5.282   6.605  0.4716 -0.6756  2.3736
17075TIP3   OH272639   1.186   0.062  13.808 -0.4207  0.3354 -0.7246
17075TIP3    H172640   1.192   0.154  13.830  1.2119  0.4039 -1.3285
17075TIP3    H272641   1.276   0.035  13.792 -0.7358 -1.6231  0.4435
17076TIP3   OH272642   6.030   2.000  12.412  0.1816 -0.4715  0.0089
17076TIP3    H172643   6.088   2.071  12.385  0.8475 -0.7855  0.5709
17076TIP3    H272644   6.018   1.947  12.334 -0.9242  0.6375 -0.6258
17077TIP3   OH272645   5.590   3.971  12.685  0.1871 -1.0064  0.0812
17077TIP3    H172646   5.494   3.963  12.689 -0.1060  1.5255 -0.0530
17077TIP3    H272647   5.617   3.906  12.621 -1.6274 -0.8475 -0.9216
17078TIP3   OH272648   5.789   1.676  15.821 -0.8380  0.3087 -0.3340
17078TIP3    H172649   5.836   1.726  15.887 -0.2561  0.2314 -0.6791
17078TIP3    H272650   5.857   1.622  15.780 -1.2830 -0.0181 -0.6415
17079TIP3   OH272651   0.684   4.622   2.572 -0.5676 -0.3286  0.5230
17079TIP3    H172652   0.629   4.700   2.582  1.1866  0.8384  1.5677
17079TIP3    H272653   0.623   4.553   2.545 -2.4206  1.0292  1.0346
17080TIP3   OH272654   0.952   3.606   6.715  0.0225 -0.7566  0.0917
17080TIP3    H172655   1.000   3.542   6.768  1.3605  1.2419  1.4382
17080TIP3    H272656   1.020   3.654   6.669 -0.7346  1.1770  0.8868
17081TIP3   OH272657   1.906   2.746   4.310 -0.7167  0.6535 -0.0999
17081TIP3    H172658   1.886   2.839   4.297 -0.1779  0.6010 -1.4115
17081TIP3    H272659   1.833   2.699   4.269  0.4044  0.4963 -2.0063
17082TIP3   OH272660   6.619   6.444   5.357  0.6892 -0.4513 -0.2870
17082TIP3    H172661   6.536   6.492   5.359  2.0090  2.0256 -0.0508
17082TIP3    H272662   6.634   6.425   5.265 -0.3983 -1.4515 -0.2718
17083TIP3   OH272663   5.806   5.677   4.649  0.4676 -0.5171  0.5951
17083TIP3    H172664   5.883   5.640   4.606  0.1798 -1.3893  0.8054
17083TIP3    H272665   5.775   5.607   4.707 -1.0520 -0.5607 -0.2047
17084TIP3   OH272666   2.720   4.310   5.648  0.6868 -0.0743 -0.4315
17084TIP3    H172667   2.678   4.332   5.565  1.2081 -0.9864 -0.9516
17084TIP3    H272668   2.651   4.323   5.713 -0.3036 -1.1216 -1.2108
17085TIP3   OH272669   4.061   5.283  16.299 -0.1875  0.0541 -1.0767
17085TIP3    H172670   4.143   5.236  16.312 -0.4420 -0.1731 -0.2799
17085TIP3    H272671   4.024   5.294  16.386 -0.0609  1.8769 -1.2071
17086TIP3   OH272672   5.576   0.743   0.065  0.0945  0.1732 -0.0172
17086TIP3    H172673   5.481   0.735   0.070  0.2015 -0.4403  2.1973
17086TIP3    H272674   5.600   0.697  -0.016 -1.2441 -3.0013  1.2368
17087TIP3   OH272675   0.027   5.831   1.751 -0.5802 -0.1500  0.2502
17087TIP3    H172676   0.035   5.873   1.837 -0.1528  0.2192  0.0320
17087TIP3    H272677  -0.029   5.755   1.767  1.1209 -1.2586  1.2854
17088TIP3   OH272678   2.956   4.516   3.649 -0.0615 -0.9130 -0.2387
17088TIP3    H172679   2.985   4.605   3.672 -2.0700  0.5054 -2.6064
17088TIP3    H272680   2.873   4.530   3.603 -0.4274 -4.0554 -0.7101
17089TIP3   OH272681   2.492   1.776   5.163  0.0503 -0.0601  0.3561
17089TIP3    H172682   2.464   1.691   5.129 -0.0856 -0.2951  1.0260
17089TIP3    H272683   2.526   1.756   5.251  1.3259  0.3714 -0.0150
17090TIP3   OH272684   5.690   3.334  16.235 -0.7049 -0.3369 -0.1074
17090TIP3    H172685   5.740   3.274  16.178 -0.5673 -0.8047  0.4999
17090TIP3    H272686   5.626   3.278  16.278 -1.9635  0.2993 -1.0734
17091TIP3   OH272687   0.540   0.746  13.808 -0.1830 -0.9919  0.5007
17091TIP3    H172688   0.560   0.735  13.715 -2.4982 -1.3274 -0.0324
17091TIP3    H272689   0.499   0.664  13.834 -0.9214 -0.3698  1.3968
17092TIP3   OH272690   5.351   0.492  16.848 -0.4417 -0.3366 -0.1047
17092TIP3    H172691   5.439   0.457  16.861 -0.0633 -0.0040 -1.5848
17092TIP3    H272692   5.363   0.587  16.843 -1.1146 -0.1488  1.2236
17093TIP3   OH272693   1.314   6.590   0.197  0.5186  0.1960 -0.0108
17093TIP3    H172694   1.375   6.660   0.173 -0.1169  0.8786  0.3442
17093TIP3    H272695   1.246   6.594   0.130 -0.3032  0.9155  0.8363
17094TIP3   OH272696   4.989   0.291  11.076  0.2613  0.0260 -0.1592
17094TIP3    H172697   4.935   0.271  10.999 -1.0365 -0.3934  0.8187
17094TIP3    H272698   5.025   0.377  11.058 -0.6768  0.2877 -0.8848
17095TIP3   OH272699   2.734   2.299  13.556 -0.0355 -0.2943  0.0810
17095TIP3    H172700   2.777   2.342  13.630 -1.0544  1.6214 -0.3748
17095TIP3    H272701   2.795   2.309  13.483 -1.3666  2.9823 -0.7267
17096TIP3   OH272702   4.104   2.689  12.654  0.3539  0.0488 -0.4798
17096TIP3    H172703   4.064   2.769  12.689  0.0292 -0.2267 -0.2184
17096TIP3    H272704   4.110   2.630  12.729  0.7792 -0.1015 -0.6282
17097TIP3   OH272705   0.785   4.886   5.721 -0.0343  0.5571  0.2475
17097TIP3    H172706   0.870   4.842   5.719 -0.0197  0.5894 -0.8770
17097TIP3    H272707   0.776   4.923   5.633 -1.4767  0.0633  0.1655
17098TIP3   OH272708   6.351   1.591   1.398 -0.6031 -0.7448  0.2972
17098TIP3    H172709   6.337   1.592   1.493 -2.6269 -0.8327  0.0412
17098TIP3    H272710   6.423   1.653   1.384 -0.2380 -0.7605  1.8656
17099TIP3   OH272711   6.530   4.315   4.757 -0.0381 -0.7708 -0.4239
17099TIP3    H172712   6.495   4.271   4.680 -0.5885  0.3785 -0.8427
17099TIP3    H272713   6.572   4.245   4.807 -1.1559 -1.8355 -0.9169
17100TIP3   OH272714   4.479   6.432   0.280  0.0597 -0.3991 -0.2848
17100TIP3    H172715   4.518   6.508   0.323 -0.0272  1.3270 -3.0647
17100TIP3    H272716   4.553   6.375   0.259  0.5434  0.5417 -1.1800
17101TIP3   OH272717   0.551   1.714  16.190 -0.0285 -0.2467  0.0684
17101TIP3    H172718   0.641   1.723  16.160 -0.0054  1.9724  0.5975
17101TIP3    H272719   0.559   1.706  16.285 -0.3822 -0.5011  0.0777
17102TIP3   OH272720   1.565   0.543   0.354  0.2123  0.2492 -0.0397
17102TIP3    H172721   1.571   0.562   0.261  2.8098  0.4842  0.1024
17102TIP3    H272722   1.558   0.448   0.359 -1.2038  0.3011 -0.4527
17103TIP3   OH272723   4.048   3.067   6.602 -0.0212  0.2450  0.3413
17103TIP3    H172724   4.027   3.077   6.509  0.0317  0.7065  0.3769
17103TIP3    H272725   4.098   3.145   6.624 -0.4942  0.3978  0.8886
17104TIP3   OH272726   1.878   5.542  11.790  0.3073  0.1694  0.5953
17104TIP3    H172727   1.806   5.480  11.796 -0.3878  0.8872 -0.1423
17104TIP3    H272728   1.856   5.610  11.854  0.0531  0.6654 -0.0189
17105TIP3   OH272729   2.958   6.372  16.583 -0.0770  0.0484 -0.2528
17105TIP3    H172730   3.040   6.417  16.603  0.1218  0.5265 -1.9992
17105TIP3    H272731   2.889   6.435  16.604  0.1077  0.3926 -0.6674
17106TIP3   OH272732   4.613   3.435   0.258 -0.5593 -0.2462  0.3851
17106TIP3    H172733   4.695   3.386   0.253 -1.5599 -1.8579 -1.5071
17106TIP3    H272734   4.583   3.441   0.167 -2.4399  0.4804  1.0074
17107TIP3   OH272735   2.806   1.162  13.609 -0.4458 -0.7437 -0.9062
17107TIP3    H172736   2.829   1.233  13.549 -0.2802 -1.4230 -1.6808
17107TIP3    H272737   2.790   1.205  13.693 -1.2696  0.3117 -1.5718
17108TIP3   OH272738   4.407   6.486   0.875 -0.0386  0.3717  0.3756
17108TIP3    H172739   4.447   6.414   0.825 -1.0195 -0.4324  0.7203
17108TIP3    H272740   4.433   6.470   0.965 -0.7834  0.0802  0.5426
17109TIP3   OH272741   5.527   5.153   2.049 -0.3146  0.1306  0.2847
17109TIP3    H172742   5.434   5.163   2.029 -0.5377 -2.2345 -0.0743
17109TIP3    H272743   5.557   5.083   1.990  2.0957  1.8768 -0.7317
17110TIP3   OH272744   3.974   3.106  13.101  0.0095  0.4536 -0.0830
17110TIP3    H172745   3.884   3.124  13.072 -0.3996  1.0102  1.4174
17110TIP3    H272746   4.022   3.086  13.021 -1.8593 -1.7032 -0.7512
17111TIP3   OH272747   6.465   2.748  17.287  0.0133  0.0102  0.0104
17111TIP3    H172748   6.528   2.677  17.295  0.2452  0.1301 -0.7359
17111TIP3    H272749   6.380   2.704  17.284  0.1203 -0.2021  0.0763
17112TIP3   OH272750   6.286   1.341  13.121  0.1444 -0.1001  0.0041
17112TIP3    H172751   6.313   1.433  13.114 -2.2832  0.5687 -2.2836
17112TIP3    H272752   6.350   1.294  13.067  1.6465  0.1335  1.5201
17113TIP3   OH272753   0.119   0.667  16.232 -0.3858 -0.5627 -0.5442
17113TIP3    H172754   0.125   0.729  16.306 -1.0488  0.7240 -1.5212
17113TIP3    H272755   0.093   0.584  16.272 -0.2910 -0.0015  0.7236
17114TIP3   OH272756   0.668   2.813  13.799  0.0879  0.8353  0.1260
17114TIP3    H172757   0.666   2.905  13.773  1.0761  1.0833  0.8992
17114TIP3    H272758   0.681   2.815  13.893 -0.1828 -0.1059  0.1942
17115TIP3   OH272759   6.679   5.978  12.713 -0.1669  0.2821  0.0793
17115TIP3    H172760   6.629   5.907  12.672  1.2838 -0.8872  0.2700
17115TIP3    H272761   6.770   5.949  12.710  0.3601  1.7040  1.0633
17116TIP3   OH272762   4.320   4.937   2.723  0.0743 -0.5134  0.3880
17116TIP3    H172763   4.361   4.883   2.791 -0.8858 -0.4451  1.0539
17116TIP3    H272764   4.340   4.892   2.641  2.1619 -0.0179  0.5768
17117TIP3   OH272765   6.471   2.515  11.706  0.3953 -0.4347  0.1237
17117TIP3    H172766   6.376   2.518  11.695  0.3680 -1.7940 -0.1600
17117TIP3    H272767   6.495   2.424  11.687  2.1362  0.5265 -3.0254
17118TIP3   OH272768   6.163   5.044   3.170  0.2372 -0.0189 -0.3145
17118TIP3    H172769   6.129   4.972   3.225 -0.7734 -0.2380 -1.1995
17118TIP3    H272770   6.253   5.018   3.151 -0.2291 -1.2589 -0.9306
17119TIP3   OH272771   3.087   3.480   0.395 -0.3910 -0.1418  0.5549
17119TIP3    H172772   3.062   3.430   0.473 -0.4834  0.3430  0.8374
17119TIP3    H272773   3.183   3.475   0.394 -0.4201 -0.7291  0.3112
17120TIP3   OH272774   6.744   1.930  14.839 -0.2948 -0.1685 -0.2130
17120TIP3    H172775   6.685   1.905  14.909  0.0295  0.3196  0.2413
17120TIP3    H272776   6.832   1.914  14.874 -0.1278 -2.6728 -1.5366
17121TIP3   OH272777   4.232   0.735   6.703  0.7719 -0.2862  0.8054
17121TIP3    H172778   4.142   0.721   6.733  0.4523  0.2575  0.1463
17121TIP3    H272779   4.251   0.826   6.725  1.4534 -0.6206  1.6472
17122TIP3   OH272780   4.276   6.707  17.048  0.0599  0.2640 -0.4199
17122TIP3    H172781   4.310   6.731  16.961 -1.4850 -0.0976 -1.1547
17122TIP3    H272782   4.248   6.616  17.039  0.1017  0.1506  0.5327
17123TIP3   OH272783   1.588   3.887  12.410  0.2478 -0.3685 -0.2320
17123TIP3    H172784   1.499   3.909  12.436 -0.6538 -0.5185 -2.8703
17123TIP3    H272785   1.603   3.800  12.448  0.5328  0.8894  2.8277
17124TIP3   OH272786   4.526   2.200   1.028  0.6829  0.2261  0.2047
17124TIP3    H172787   4.441   2.243   1.036  0.9257  0.8429 -0.3928
17124TIP3    H272788   4.584   2.268   0.994  1.7516  0.2203  1.8947
17125TIP3   OH272789   4.862   3.378   2.491  0.1327  0.0967 -0.1345
17125TIP3    H172790   4.886   3.285   2.492 -1.4768 -0.3596 -0.5874
17125TIP3    H272791   4.837   3.398   2.580 -1.9575 -0.6204 -0.5222
17126TIP3   OH272792   2.984   3.959   1.369  0.1932  0.1489 -0.0160
17126TIP3    H172793   3.046   4.015   1.416 -1.0801  2.1189 -0.5502
17126TIP3    H272794   3.002   3.976   1.276 -0.0319 -0.5566 -0.1941
17127TIP3   OH272795   3.209   5.059   1.237 -0.3430 -0.4778  0.5606
17127TIP3    H172796   3.232   5.142   1.279  0.6987 -0.9582  0.9720
17127TIP3    H272797   3.136   5.025   1.288  1.1123 -1.2219  2.2981
17128TIP3   OH272798   4.443   4.864   5.682 -0.0232  0.1134 -0.1112
17128TIP3    H172799   4.360   4.816   5.692 -0.6064  1.1529  0.1424
17128TIP3    H272800   4.447   4.885   5.589  0.7180 -1.2514 -0.4124
17129TIP3   OH272801   2.726   4.736  17.390  0.3841  0.2955  0.2426
17129TIP3    H172802   2.802   4.781  17.353  0.3235  0.0800 -0.1607
17129TIP3    H272803   2.701   4.788  17.466  1.2136  0.1127  0.6423
17130TIP3   OH272804   2.927   4.456  12.335 -0.6895 -0.4663  0.3407
17130TIP3    H172805   3.020   4.457  12.312 -0.4235  0.0015  1.4063
17130TIP3    H272806   2.918   4.383  12.396 -0.7138  0.4431  1.4515
17131TIP3   OH272807   2.909   5.378  16.672  0.3803  0.0563  0.5883
17131TIP3    H172808   2.833   5.402  16.724  0.7946  0.3743  1.0608
17131TIP3    H272809   2.873   5.346  16.589 -0.2451  0.5305  0.6748
17132TIP3   OH272810   6.684   2.592   3.329  0.4423 -0.5243  0.2295
17132TIP3    H172811   6.767   2.558   3.364  1.2462  0.9850 -0.1068
17132TIP3    H272812   6.689   2.571   3.235 -0.4063 -2.0251  0.4911
17133TIP3   OH272813   4.303   6.295  14.895 -0.1048  0.3124 -0.0904
17133TIP3    H172814   4.248   6.358  14.942 -1.3651 -1.7138  1.3723
17133TIP3    H272815   4.384   6.292  14.946 -0.5376 -0.1208  0.6022
17134TIP3   OH272816   5.630   2.894  12.764  0.4242  0.3303  0.1616
17134TIP3    H172817   5.619   2.988  12.750 -0.4073  0.5849  2.1600
17134TIP3    H272818   5.694   2.888  12.836 -1.9928 -0.4088  2.4196
17135TIP3   OH272819   3.953   2.841  12.004 -0.4570 -0.1759 -0.3065
17135TIP3    H172820   4.032   2.809  11.960 -0.1111  0.5550 -0.2471
17135TIP3    H272821   3.881   2.792  11.964 -0.2586  1.1097 -2.4193
17136TIP3   OH272822   5.534   1.835  16.549  0.2306  1.0191  0.0600
17136TIP3    H172823   5.506   1.887  16.474 -0.8896  0.0782 -0.2143
17136TIP3    H272824   5.464   1.845  16.613 -0.1360 -0.3185 -0.0996
17137TIP3   OH272825   3.368   0.408   0.647 -0.4793  0.0156  0.4123
17137TIP3    H172826   3.311   0.351   0.594  0.4724 -0.9917  0.4518
17137TIP3    H272827   3.327   0.409   0.733 -0.8840 -0.0361  0.2264
17138TIP3   OH272828   3.157   0.497   1.149 -0.3111 -0.1185 -0.3274
17138TIP3    H172829   3.067   0.517   1.174 -0.0294  2.5660 -1.1921
17138TIP3    H272830   3.183   0.568   1.090  1.4532 -2.3150 -2.4215
17139TIP3   OH272831   4.658   0.128  11.554 -0.0450 -0.2783 -0.3481
17139TIP3    H172832   4.569   0.161  11.550 -0.6954 -1.8595  0.0389
17139TIP3    H272833   4.713   0.200  11.523 -1.1722  1.7155  2.0032
17140TIP3   OH272834   5.504   0.966  14.713  0.1380 -0.5484 -0.5716
17140TIP3    H172835   5.564   0.892  14.722 -1.1355 -1.6879 -1.0094
17140TIP3    H272836   5.525   1.004  14.628  0.4356 -0.7450 -0.5866
17141TIP3   OH272837   4.380   4.172  13.390 -0.4504 -0.5910  0.0399
17141TIP3    H172838   4.430   4.117  13.450 -0.4128 -0.5051  0.0862
17141TIP3    H272839   4.291   4.139  13.397 -0.5842 -0.1145  0.6837
17142TIP3   OH272840   5.532   3.703  14.199  0.4120 -0.9669 -0.0982
17142TIP3    H172841   5.574   3.712  14.285  0.8999 -2.4086 -0.1751
17142TIP3    H272842   5.438   3.698  14.220  0.4641 -0.5071  0.2785
17143TIP3   OH272843   6.323   2.626   3.984  0.0427  0.1715 -0.6680
17143TIP3    H172844   6.357   2.538   3.969  0.7880  0.1273  1.0936
17143TIP3    H272845   6.400   2.682   3.984  0.0574  0.2734  1.9012
17144TIP3   OH272846   3.499   5.480   6.739  0.3599  0.1824  0.3502
17144TIP3    H172847   3.539   5.453   6.656 -0.7597  1.9484 -0.8405
17144TIP3    H272848   3.573   5.511   6.792  0.8271  2.3229 -1.3782
17145TIP3   OH272849   0.486   5.955   0.135 -0.0444  0.1060 -0.0961
17145TIP3    H172850   0.547   5.893   0.095 -0.1913 -0.4113  0.4728
17145TIP3    H272851   0.494   5.939   0.229 -1.2947 -0.1997 -0.0272
17146TIP3   OH272852   4.288   2.778   1.156  0.1058 -0.0587 -0.2396
17146TIP3    H172853   4.349   2.794   1.228 -0.9007  0.4493  0.5263
17146TIP3    H272854   4.201   2.791   1.194 -0.4611  0.1781 -1.5336
17147TIP3   OH272855   2.000   4.027  17.369 -0.0008 -0.0251 -0.0031
17147TIP3    H172856   2.060   4.022  17.295 -0.9707 -0.0963 -0.7940
17147TIP3    H272857   2.057   4.038  17.445  1.0553 -1.0499 -0.6285
17148TIP3   OH272858   4.152   1.619  12.850 -0.4208  0.0998  0.9937
17148TIP3    H172859   4.219   1.649  12.788 -0.9985  2.0190  1.2545
17148TIP3    H272860   4.185   1.534  12.880  0.6944 -0.1212 -0.6744
17149TIP3   OH272861   2.383   3.123   0.708  0.3429  0.3954  0.3583
17149TIP3    H172862   2.344   3.060   0.647 -0.1227  0.1028  0.9470
17149TIP3    H272863   2.473   3.092   0.721  0.9871  1.3503 -1.3927
17150TIP3   OH272864   4.674   6.334  15.257 -0.0664 -0.0321  0.3123
17150TIP3    H172865   4.751   6.342  15.200 -0.7186 -1.2401 -0.7974
17150TIP3    H272866   4.631   6.254  15.227 -1.8013  0.6628  0.8534
17151TIP3   OH272867   0.719   3.235   0.383  0.2175 -0.3820  0.7893
17151TIP3    H172868   0.724   3.142   0.402  0.1231 -1.4409 -3.4160
17151TIP3    H272869   0.808   3.259   0.356 -0.3318 -0.0556 -0.8684
17152TIP3   OH272870   1.019   5.032  17.062 -0.2323 -0.0011  0.4354
17152TIP3    H172871   1.001   4.952  17.012 -2.0636  0.6416  0.0017
17152TIP3    H272872   1.011   5.102  16.998  2.3934  0.5355  0.5702
17153TIP3   OH272873   1.650   2.952  12.603 -0.4984  0.0866 -0.2931
17153TIP3    H172874   1.559   2.981  12.593 -0.8729 -0.4394  1.3123
17153TIP3    H272875   1.697   2.996  12.533 -1.9679  0.4783 -1.0759
17154TIP3   OH272876   1.091   5.339   0.647 -0.3502 -0.3122 -0.1400
17154TIP3    H172877   1.006   5.301   0.627 -1.2664  1.6998 -0.2033
17154TIP3    H272878   1.073   5.407   0.711  1.1837  0.2933 -0.3099
17155TIP3   OH272879   1.177   5.862   5.906 -0.3349 -0.3428  0.0634
17155TIP3    H172880   1.218   5.949   5.912 -0.1391 -0.2409 -2.0975
17155TIP3    H272881   1.090   5.879   5.869  0.9709 -1.2730 -3.8453
17156TIP3   OH272882   4.430   0.081   0.684  0.2893 -0.1475  0.2966
17156TIP3    H172883   4.446   0.175   0.678  0.4905 -0.1294  1.0400
17156TIP3    H272884   4.401   0.067   0.774 -0.4079 -0.7024 -0.0053
17157TIP3   OH272885   2.081   0.716   5.850  0.1285  0.1027  0.2357
17157TIP3    H172886   2.142   0.670   5.907  1.2774 -0.7321 -1.5723
17157TIP3    H272887   2.135   0.773   5.796 -0.7210 -0.2819 -1.0746
17158TIP3   OH272888   6.743   1.229   0.351 -0.6395 -1.0494  0.2554
17158TIP3    H172889   6.757   1.137   0.329  1.1869 -1.7663  3.7340
17158TIP3    H272890   6.682   1.227   0.425  0.6147  0.3643  1.3871
17159TIP3   OH272891   2.576   1.549   2.737  0.4080 -0.3215 -0.2430
17159TIP3    H172892   2.646   1.613   2.749 -1.1659  1.4151  0.3054
17159TIP3    H272893   2.593   1.509   2.652  2.0837 -0.0379 -0.0742
17160TIP3   OH272894   0.777   4.714   4.286 -0.5685  0.0522  0.2082
17160TIP3    H172895   0.847   4.657   4.318  1.1865  0.5722 -2.4080
17160TIP3    H272896   0.819   4.800   4.279 -2.8363  1.5464  2.9807
17161TIP3   OH272897   0.549   3.228   1.169  0.0039  0.4711 -0.0828
17161TIP3    H172898   0.523   3.283   1.244 -1.5052  0.9083 -0.8843
17161TIP3    H272899   0.601   3.286   1.114  1.3626  0.0703  0.7108
17162TIP3   OH272900   5.109   4.124  11.963  0.1859  0.2699 -0.0893
17162TIP3    H172901   5.048   4.050  11.952 -1.9488  1.9824 -0.4974
17162TIP3    H272902   5.112   4.138  12.058 -1.5061  1.2532 -0.1482
17163TIP3   OH272903   6.480   2.085   2.151  0.3200 -0.3551 -0.2223
17163TIP3    H172904   6.404   2.071   2.095  0.3118  1.0560 -0.6029
17163TIP3    H272905   6.552   2.102   2.090  1.0350 -1.9337  0.1215
17164TIP3   OH272906   1.705   6.552  13.909  0.5960 -0.5268  0.4597
17164TIP3    H172907   1.693   6.545  14.004  1.5809 -2.6000  0.4868
17164TIP3    H272908   1.735   6.642  13.895  0.1772 -0.1065  2.0729
17165TIP3   OH272909   5.990   3.592  16.029  0.1374 -0.2405  0.5693
17165TIP3    H172910   5.900   3.582  16.060  0.2277 -1.4884  0.4642
17165TIP3    H272911   5.989   3.675  15.982 -0.7759  0.1266  1.1917
17166TIP3   OH272912   4.284   5.925  15.153  0.2297 -0.4798  0.0769
17166TIP3    H172913   4.275   5.947  15.060  2.2287 -2.1054 -0.6020
17166TIP3    H272914   4.203   5.954  15.193 -0.9463 -0.2301 -2.2944
17167TIP3   OH272915   5.086   4.937   1.273  0.2408 -0.0880 -0.0952
17167TIP3    H172916   5.044   4.860   1.235  0.9430 -0.1615 -0.7425
17167TIP3    H272917   5.169   4.945   1.226 -0.7682  2.3506 -1.6627
17168TIP3   OH272918   1.857   4.519  13.566  0.0410 -0.5475 -0.4460
17168TIP3    H172919   1.845   4.614  13.576  1.1431 -0.4530  0.1366
17168TIP3    H272920   1.775   4.488  13.528 -1.0556  0.3685  1.0768
17169TIP3   OH272921   6.039   1.774  13.089  0.6021 -0.0974 -0.0617
17169TIP3    H172922   6.020   1.714  13.160 -0.7830  0.7545  0.3251
17169TIP3    H272923   6.134   1.787  13.093  0.8030 -1.5443  0.3918
17170TIP3   OH272924   1.587   2.175   0.445 -0.7224 -0.2133  0.0530
17170TIP3    H172925   1.570   2.245   0.382  1.1831 -1.5462 -2.1220
17170TIP3    H272926   1.612   2.221   0.525 -1.0250  1.5857 -0.8249
17171TIP3   OH272927   1.924   3.201   5.788  0.2030  0.2456  0.0769
17171TIP3    H172928   1.856   3.235   5.847 -0.3119  1.3637 -1.1198
17171TIP3    H272929   1.906   3.243   5.704  1.1958 -0.9671 -0.7754
17172TIP3   OH272930   4.036   6.636   2.852 -0.4518  0.2383  0.7532
17172TIP3    H172931   4.100   6.569   2.825 -1.5006 -0.5785  0.1838
17172TIP3    H272932   3.974   6.588   2.907 -1.2145  0.7425  0.3416
17173TIP3   OH272933   6.158   0.912   1.208  0.3513 -0.5399 -0.4529
17173TIP3    H172934   6.146   1.006   1.190  1.3787 -0.0496  1.1451
17173TIP3    H272935   6.239   0.890   1.162  0.6167 -0.3943 -0.0619
17174TIP3   OH272936   0.620   5.621  14.562 -0.2252 -0.2361 -0.6380
17174TIP3    H172937   0.560   5.573  14.505 -1.9345  1.6564 -0.5472
17174TIP3    H272938   0.696   5.639  14.507 -1.3708  0.5907 -2.0272
17175TIP3   OH272939   5.440   0.337  10.464 -0.2193  0.5740 -0.5926
17175TIP3    H172940   5.493   0.367  10.537  0.6600  1.9180 -1.7366
17175TIP3    H272941   5.352   0.369  10.483 -0.6666 -1.5056  1.2219
17176TIP3   OH272942   2.744   0.892  14.227  0.2961  0.3736 -0.4136
17176TIP3    H172943   2.689   0.879  14.303  0.8297  1.1020  0.1124
17176TIP3    H272944   2.828   0.921  14.263  0.3626  1.3409 -1.2950
17177TIP3   OH272945   0.823   1.856   5.821  0.0376  0.0651 -0.3234
17177TIP3    H172946   0.779   1.811   5.894  0.8741 -0.7370 -0.3039
17177TIP3    H272947   0.774   1.828   5.744  0.1827 -0.4036 -0.2466
17178TIP3   OH272948   0.345   0.546  16.888 -0.0812 -0.0814  0.5041
17178TIP3    H172949   0.340   0.452  16.901  1.6302  0.0181  2.5501
17178TIP3    H272950   0.361   0.581  16.976 -0.2289  2.0748 -0.2683
17179TIP3   OH272951   6.394   5.427   0.434 -0.7993  0.2118 -0.3352
17179TIP3    H172952   6.411   5.503   0.379 -1.3273  0.2815 -0.4034
17179TIP3    H272953   6.478   5.410   0.477 -1.0404  1.6887  0.7731
17180TIP3   OH272954   3.141   6.142   0.733  0.2417 -0.3864 -0.4153
17180TIP3    H172955   3.224   6.112   0.770  1.7858  0.9344 -2.5486
17180TIP3    H272956   3.138   6.235   0.753 -0.3930 -0.2875 -0.9510
17181TIP3   OH272957   1.219   5.447  14.623 -0.8152 -0.4754 -0.2854
17181TIP3    H172958   1.186   5.383  14.686 -0.4886  0.2458  0.6426
17181TIP3    H272959   1.246   5.395  14.547 -3.9298 -1.1344 -1.0682
17182TIP3   OH272960   0.333   3.724  13.604 -0.3598  0.6617 -0.6772
17182TIP3    H172961   0.421   3.753  13.630  0.1322  0.3521 -1.9408
17182TIP3    H272962   0.277   3.751  13.677  0.8353  0.5187  0.3429
17183TIP3   OH272963   5.642   2.008  15.469 -0.2312 -0.4251 -0.2146
17183TIP3    H172964   5.557   1.978  15.439  0.0860 -0.6384 -0.9259
17183TIP3    H272965   5.705   1.948  15.428  0.3014  0.1878 -0.3163
17184TIP3   OH272966   4.580   2.889   2.681 -0.3380 -0.2673  0.2616
17184TIP3    H172967   4.563   2.810   2.734 -1.3772 -0.9756 -1.0698
17184TIP3    H272968   4.556   2.864   2.592 -0.4830  1.4939 -0.2353
17185TIP3   OH272969   4.452   3.331   0.440 -0.0068  0.8402  0.2736
17185TIP3    H172970   4.423   3.249   0.399  2.9407 -1.5294  2.5130
17185TIP3    H272971   4.498   3.378   0.370  0.1774 -0.4659 -0.5087
17186TIP3   OH272972   4.065   3.034  12.421 -0.2886 -0.2061 -0.0431
17186TIP3    H172973   4.125   3.078  12.360 -1.6046  0.1268 -1.1316
17186TIP3    H272974   4.122   3.006  12.493  0.7896  2.3190  0.2101
17187TIP3   OH272975   5.140   6.118  12.004 -1.2693  0.5910  0.1508
17187TIP3    H172976   5.229   6.099  12.034 -0.9261  1.9231  0.0130
17187TIP3    H272977   5.104   6.032  11.982 -0.4359 -0.0863  1.3262
17188TIP3   OH272978   3.076   5.271  13.327  0.0278 -0.0033 -0.5216
17188TIP3    H172979   3.061   5.179  13.307  0.5096  0.0340 -1.0745
17188TIP3    H272980   3.030   5.285  13.410  0.7404 -0.9793  0.0653
17189TIP3   OH272981   0.783   1.962   3.014 -0.3977 -0.0287 -0.0326
17189TIP3    H172982   0.843   1.951   2.941  0.7321 -1.2125  1.0196
17189TIP3    H272983   0.789   2.055   3.037 -0.7662  0.3568 -1.3915
17190TIP3   OH272984   2.765   5.098   3.018  0.4196  0.0012 -0.4682
17190TIP3    H172985   2.837   5.110   2.956 -0.3510  2.2794 -1.0069
17190TIP3    H272986   2.693   5.150   2.982 -1.5366 -2.1314  0.0808
17191TIP3   OH272987   5.744   2.252   1.564  0.1264  0.0874 -0.2621
17191TIP3    H172988   5.720   2.161   1.579 -0.6081 -0.0928 -2.1668
17191TIP3    H272989   5.717   2.299   1.643  0.5375 -1.3328  0.7488
17192TIP3   OH272990   2.172   0.853  17.031  0.7654  0.0431 -0.1166
17192TIP3    H172991   2.219   0.799  17.096 -0.2198 -1.9913 -1.0081
17192TIP3    H272992   2.185   0.808  16.948 -0.7701  0.7490 -0.7813
17193TIP3   OH272993   0.123   3.738  13.773  0.1170 -0.0788 -0.2709
17193TIP3    H172994   0.091   3.745  13.863 -0.4426  1.2230 -0.5466
17193TIP3    H272995   0.045   3.714  13.722 -0.7263  3.6066 -1.0249
17194TIP3   OH272996   2.412   6.335   5.398 -0.1466 -0.4315 -0.5967
17194TIP3    H172997   2.417   6.312   5.491  0.6438  1.5358 -0.0869
17194TIP3    H272998   2.341   6.399   5.393  0.6487  0.4461 -1.0850
17195TIP3   OH272999   2.349   3.960   6.025  0.3769  0.0726 -0.2363
17195TIP3    H173000   2.368   3.875   6.063  1.0677  0.2133 -0.2635
17195TIP3    H273001   2.332   4.017   6.100 -0.8425 -0.2556 -0.2403
17196TIP3   OH273002   4.421   4.151  16.901  0.1869 -0.2122 -0.2359
17196TIP3    H173003   4.483   4.089  16.940  1.7574  2.1220  1.2006
17196TIP3    H273004   4.379   4.193  16.976 -0.6495  0.6552 -1.1705
17197TIP3   OH273005   5.635   5.180   6.104  0.4732  0.4323  0.1103
17197TIP3    H173006   5.578   5.254   6.081  1.1571  0.5012 -1.5399
17197TIP3    H273007   5.693   5.214   6.172 -0.0509  1.0230  0.2712
17198TIP3   OH273008   0.811   2.244  14.475 -0.0460 -0.1296 -0.0913
17198TIP3    H173009   0.896   2.202  14.483  0.9631  1.5000 -1.4614
17198TIP3    H273010   0.762   2.216  14.553  1.4023 -1.8180  0.2546
17199TIP3   OH273011   2.835   3.132   4.241 -0.5132 -0.3465  0.3814
17199TIP3    H173012   2.817   3.152   4.149  1.7936  1.0398  0.1580
17199TIP3    H273013   2.881   3.049   4.240 -0.4431 -0.3062  0.2678
17200TIP3   OH273014   3.365   5.885  14.426 -0.0163 -0.1211 -0.1511
17200TIP3    H173015   3.408   5.880  14.341 -0.1945  0.0313 -0.2536
17200TIP3    H273016   3.341   5.978  14.435  3.2305  0.7099  1.6818
17201TIP3   OH273017   1.733   0.706  11.607  0.6709  0.4325  0.4825
17201TIP3    H173018   1.657   0.743  11.562  0.2267 -1.0780 -0.0853
17201TIP3    H273019   1.729   0.612  11.588  2.4584  0.2489  0.7877
17202TIP3   OH273020   3.183   6.665   4.798 -0.3941 -0.1000 -0.3863
17202TIP3    H173021   3.155   6.716   4.874  2.8809 -1.3235  1.8306
17202TIP3    H273022   3.110   6.605   4.782 -1.1715  0.1643  1.8293
17203TIP3   OH273023   5.283   2.939  16.905  0.1114 -0.5442 -0.2620
17203TIP3    H173024   5.250   2.883  16.834  2.1216 -0.6568 -1.1920
17203TIP3    H273025   5.241   2.906  16.984 -1.7744 -0.7782 -1.3055
17204TIP3   OH273026   4.167   2.878  14.066 -0.4494 -0.1089 -0.1305
17204TIP3    H173027   4.091   2.822  14.075  0.3771 -1.9706 -3.2562
17204TIP3    H273028   4.234   2.823  14.026  1.1796  2.5345 -1.3612
17205TIP3   OH273029   2.225   1.708  10.858  0.1437  0.4612  0.2226
17205TIP3    H173030   2.131   1.697  10.851  0.1802  0.1570  0.1630
17205TIP3    H273031   2.257   1.622  10.888  0.5810 -0.0629 -1.5645
17206TIP3   OH273032   1.133   6.058  13.404 -0.0520 -0.6480 -0.1972
17206TIP3    H173033   1.094   6.133  13.449  0.8659 -0.1981 -0.1218
17206TIP3    H273034   1.150   5.994  13.474  1.1542 -0.0439  0.0884
17207TIP3   OH273035   2.598   6.086   5.615 -0.4951 -0.0665 -0.2996
17207TIP3    H173036   2.583   6.103   5.522  0.9576  1.0075 -0.3732
17207TIP3    H273037   2.511   6.091   5.655 -1.1346 -0.5263 -1.5842
17208TIP3   OH273038   1.421   3.080   6.204  0.5348 -0.1759 -1.4210
17208TIP3    H173039   1.472   3.005   6.173 -0.5966 -0.5660 -2.4237
17208TIP3    H273040   1.392   3.055   6.291  0.7645 -0.6037 -1.4655
17209TIP3   OH273041   0.469   4.073  16.244  0.5244  0.2051 -0.0728
17209TIP3    H173042   0.451   4.046  16.334  0.5023  0.0064 -0.1366
17209TIP3    H273043   0.480   4.168  16.249 -0.1821  0.2841  0.0239
17210TIP3   OH273044   1.228   0.816  15.175  0.1763  0.2557 -0.0122
17210TIP3    H173045   1.165   0.787  15.108 -0.9752  2.4932 -0.0038
17210TIP3    H273046   1.179   0.880  15.227  2.4456  2.0104  0.0802
17211TIP3   OH273047   0.538   6.268   5.284  1.0679 -0.4222 -0.0695
17211TIP3    H173048   0.500   6.307   5.206 -2.0436 -1.4178  0.8265
17211TIP3    H273049   0.559   6.178   5.259  1.0445 -0.4390 -0.0273
17212TIP3   OH273050   3.808   1.240   0.442  0.3969  0.1359 -0.5592
17212TIP3    H173051   3.802   1.176   0.371  0.3829 -0.1660 -0.2891
17212TIP3    H273052   3.838   1.320   0.400 -1.3403  0.4816 -1.2105
17213TIP3   OH273053   6.357   4.626   3.744 -0.3109 -0.1910 -0.1568
17213TIP3    H173054   6.300   4.550   3.730  0.7593 -1.3136  1.3199
17213TIP3    H273055   6.370   4.662   3.656 -1.5185 -1.1931 -0.7904
17214TIP3   OH273056   2.577   0.154  11.096  0.0372  0.4130  0.3913
17214TIP3    H173057   2.576   0.248  11.114 -0.5909  0.4216  0.3272
17214TIP3    H273058   2.648   0.120  11.151  0.4589  0.9611  0.2052
17215TIP3   OH273059   6.369   0.582  11.752  0.0686  0.0231  0.4282
17215TIP3    H173060   6.286   0.625  11.774 -0.1974 -0.5138  0.5140
17215TIP3    H273061   6.374   0.509  11.814  0.1856 -0.4575 -0.1352
17216TIP3   OH273062   4.923   6.411  13.090 -0.3845  0.4273  0.1014
17216TIP3    H173063   4.939   6.318  13.077 -0.1023 -0.1152  3.4350
17216TIP3    H273064   4.867   6.416  13.168 -0.6666  3.0255 -0.1552
17217TIP3   OH273065   0.941   0.013   1.453 -0.5437 -0.2257  0.5672
17217TIP3    H173066   0.929   0.053   1.539 -1.0289  0.2012  0.3139
17217TIP3    H273067   0.852  -0.007   1.424 -0.4240  0.1254 -0.0599
17218TIP3   OH273068   5.670   2.594   0.356 -0.4273  0.2027 -0.3369
17218TIP3    H173069   5.683   2.624   0.266  3.0379  0.3309  0.0878
17218TIP3    H273070   5.674   2.673   0.409 -0.7468 -0.0474  0.0667
17219TIP3   OH273071   6.435   4.270   2.665  0.1523  0.3589 -0.6004
17219TIP3    H173072   6.449   4.276   2.571  1.8308  0.4476 -0.3847
17219TIP3    H273073   6.347   4.234   2.675  0.1214 -0.0582 -2.1953
17220TIP3   OH273074   5.126   3.571   1.433 -0.3432 -0.0251  0.1229
17220TIP3    H173075   5.126   3.574   1.529 -1.0494  1.3174  0.1083
17220TIP3    H273076   5.037   3.545   1.409 -0.1140 -0.5510 -0.1755
17221TIP3   OH273077   3.592   3.371  14.735  0.2157 -0.1058  0.1130
17221TIP3    H173078   3.595   3.305  14.666 -0.2142  0.0267 -0.0360
17221TIP3    H273079   3.684   3.391  14.754  0.3358 -0.2926 -0.2742
17222TIP3   OH273080   2.233   5.413   0.729 -0.0558  0.1438  0.4030
17222TIP3    H173081   2.258   5.412   0.637 -1.2693 -1.4355  0.0488
17222TIP3    H273082   2.305   5.459   0.773  1.0347  0.0181 -1.1717
17223TIP3   OH273083   3.052   3.605  11.015 -0.1924  0.2844  0.4110
17223TIP3    H173084   3.117   3.544  10.980  0.9441  0.6263  1.8208
17223TIP3    H273085   2.980   3.550  11.046  0.1572 -0.2205  0.3165
17224TIP3   OH273086   1.537   3.782   5.696 -0.3675 -0.2371  0.7163
17224TIP3    H173087   1.539   3.782   5.792 -0.9072 -0.3755  0.7280
17224TIP3    H273088   1.582   3.701   5.672 -0.8669 -0.5635  0.8695
17225TIP3   OH273089   5.007   4.438   4.728  0.6612  0.0704 -0.2232
17225TIP3    H173090   5.086   4.483   4.697  0.7532 -1.2713 -2.0908
17225TIP3    H273091   4.988   4.373   4.661 -0.8212 -1.1009  1.2406
17226TIP3   OH273092   4.636   2.502  12.693 -0.0347  0.4426 -0.1872
17226TIP3    H173093   4.640   2.518  12.599  0.6974  0.3562 -0.1810
17226TIP3    H273094   4.568   2.436  12.704  1.1874 -0.9831 -0.8699
17227TIP3   OH273095   2.627   6.048  14.677 -0.6188  0.6289 -0.2260
17227TIP3    H173096   2.568   6.058  14.752 -0.0408 -0.0885  0.3481
17227TIP3    H273097   2.658   6.137  14.659 -0.4271  0.7597  0.6775
17228TIP3   OH273098   6.090   0.249  13.076 -0.0424 -0.3938 -0.5014
17228TIP3    H173099   6.037   0.321  13.111  0.7815 -0.5170  1.0551
17228TIP3    H273100   6.031   0.173  13.078 -0.2717 -0.2114 -0.1919
17229TIP3   OH273101   2.485   6.318   5.018 -0.5190  0.0923 -0.0824
17229TIP3    H173102   2.476   6.232   4.976  0.0428  0.7620 -1.6155
17229TIP3    H273103   2.470   6.381   4.948  0.0328  1.2623  0.8209
17230TIP3   OH273104   2.609   5.088   6.317 -0.2309  0.4324  0.5985
17230TIP3    H173105   2.677   5.141   6.359 -0.8937  2.5736 -0.8508
17230TIP3    H273106   2.546   5.069   6.388  0.5765  0.6417  1.3896
17231TIP3   OH273107   4.226   4.118   5.073  0.3934  0.4295 -0.0240
17231TIP3    H173108   4.260   4.164   5.149 -0.4035  1.1914 -0.1131
17231TIP3    H273109   4.137   4.092   5.098  1.8462 -4.2590  1.3954
17232TIP3   OH273110   5.356   5.789   5.396 -0.1643 -0.1311  0.5410
17232TIP3    H173111   5.298   5.783   5.472 -1.1595  1.7201 -0.0266
17232TIP3    H273112   5.430   5.732   5.419 -0.3952  0.4141  2.9357
17233TIP3   OH273113   6.226   6.092   4.957  0.4573  0.1814 -0.4426
17233TIP3    H173114   6.205   6.055   5.043  0.0884 -2.1521 -1.4505
17233TIP3    H273115   6.303   6.146   4.972  0.4746 -0.2857  1.3435
17234TIP3   OH273116   0.418   3.486  14.372 -0.5380 -0.5680 -0.1047
17234TIP3    H173117   0.404   3.479  14.466  1.4458 -1.0398  0.2014
17234TIP3    H273118   0.389   3.574  14.349 -1.7165 -0.7099  0.8009
17235TIP3   OH273119   3.593   1.836  14.738 -0.1207  0.4208 -0.0848
17235TIP3    H173120   3.575   1.752  14.781 -1.4170  1.1410  0.8251
17235TIP3    H273121   3.563   1.824  14.648  2.5221 -1.0694 -0.8850
17236TIP3   OH273122   3.395   4.850   0.748 -0.1847  0.4882  0.4713
17236TIP3    H173123   3.307   4.814   0.736  0.7926 -1.7608 -0.7463
17236TIP3    H273124   3.429   4.858   0.659  1.4207 -0.3777  0.9652
17237TIP3   OH273125   0.584   0.371  15.212  0.4345 -0.4749  0.2070
17237TIP3    H173126   0.679   0.380  15.220  0.5621 -1.2062 -0.3482
17237TIP3    H273127   0.553   0.460  15.194  1.4794 -0.7071 -3.6740
17238TIP3   OH273128   4.762   6.149  12.422  0.0347 -0.8529  0.2471
17238TIP3    H173129   4.702   6.075  12.418 -0.6702 -0.2288 -2.0725
17238TIP3    H273130   4.728   6.204  12.493 -0.1932 -2.0696  1.1112
17239TIP3   OH273131   4.572   6.063  16.976 -0.2208 -0.0675 -0.2567
17239TIP3    H173132   4.531   6.133  17.027 -1.0457 -1.1901  0.6665
17239TIP3    H273133   4.650   6.103  16.938 -1.0656  1.5598 -0.3659
17240TIP3   OH273134   1.068   2.681  12.343  0.5698  0.2745  0.0274
17240TIP3    H173135   1.142   2.684  12.283  1.0372 -0.4645  0.5512
17240TIP3    H273136   1.083   2.753  12.404 -0.5541  1.8311 -1.4465
17241TIP3   OH273137   2.950   5.086  14.222  0.0146  0.3144  0.1684
17241TIP3    H173138   2.977   5.050  14.137 -2.1334 -2.3953  0.4716
17241TIP3    H273139   3.011   5.046  14.285  0.5788  1.0149  0.0753
17242TIP3   OH273140   0.657   5.824  12.038 -0.4650 -0.0551 -0.1982
17242TIP3    H173141   0.607   5.905  12.045  0.9448  0.9312 -0.9696
17242TIP3    H273142   0.621   5.780  11.961 -1.3998 -0.3061  0.3674
17243TIP3   OH273143   6.136   4.351   2.384 -0.2805 -0.3783  0.3459
17243TIP3    H173144   6.125   4.403   2.464  2.5463  0.1139  0.5294
17243TIP3    H273145   6.139   4.415   2.313  4.5248  0.1623  0.6920
17244TIP3   OH273146   1.041   1.231   5.425  0.3020 -0.4048 -0.3568
17244TIP3    H173147   0.963   1.190   5.388 -0.1897  0.6144 -0.4955
17244TIP3    H273148   1.039   1.321   5.391  0.5471  0.1782  1.0659
17245TIP3   OH273149   5.367   4.641  13.681  0.6363  0.2341  0.5676
17245TIP3    H173150   5.303   4.634  13.752 -1.7731 -0.8534 -1.5455
17245TIP3    H273151   5.420   4.562  13.689 -1.1640 -1.1257 -0.1432
17246TIP3   OH273152   1.826   3.595  15.309  0.0329 -0.1993 -0.3068
17246TIP3    H173153   1.744   3.582  15.356 -0.0800 -1.0671 -0.7289
17246TIP3    H273154   1.806   3.572  15.218  0.6441 -0.0567 -0.4831
17247TIP3   OH273155   2.581   4.124   1.168 -0.0191 -0.0825  0.1796
17247TIP3    H173156   2.553   4.041   1.206  1.3343  0.4816  2.6396
17247TIP3    H273157   2.548   4.190   1.228  0.6563  1.0181 -0.6267
17248TIP3   OH273158   0.835   3.681  16.772 -0.4434  0.2829  0.0901
17248TIP3    H173159   0.793   3.646  16.694  0.7500 -0.8855 -0.0596
17248TIP3    H273160   0.768   3.737  16.813 -2.0657 -1.3688 -0.1978
17249TIP3   OH273161   5.935   5.001  14.396 -0.2483 -0.0311  0.0727
17249TIP3    H173162   5.873   4.935  14.427  0.2837 -0.2754  0.6525
17249TIP3    H273163   5.881   5.068  14.355 -0.8109 -0.7367 -0.3616
17250TIP3   OH273164   4.894   4.091  11.634 -0.2447  0.0708  0.2441
17250TIP3    H173165   4.950   4.060  11.563 -0.1180  0.1478  0.3108
17250TIP3    H273166   4.828   4.022  11.645 -0.2797  0.0709  0.0359
17251TIP3   OH273167   6.260   3.131   1.061 -0.5817  0.1005  0.3572
17251TIP3    H173168   6.343   3.175   1.042 -1.3650  1.4561 -0.0928
17251TIP3    H273169   6.206   3.198   1.102 -1.5691 -0.6645  0.3566
17252TIP3   OH273170   0.704   0.201   2.123 -0.1902  0.2250 -0.3930
17252TIP3    H173171   0.641   0.131   2.143 -1.0342  0.1071 -3.0601
17252TIP3    H273172   0.649   0.274   2.094  0.7891  1.3888  0.5833
17253TIP3   OH273173   4.184   4.867   3.292 -0.1491  0.1491 -0.3303
17253TIP3    H173174   4.123   4.936   3.316  0.1678  0.2309  0.2678
17253TIP3    H273175   4.208   4.887   3.201 -1.3113 -0.1214 -0.7042
17254TIP3   OH273176   0.247   5.762   0.319  0.0448  0.2994 -0.0501
17254TIP3    H173177   0.170   5.817   0.304 -0.0027  0.3378  0.3233
17254TIP3    H273178   0.318   5.824   0.335  0.2103  0.2694 -0.6369
17255TIP3   OH273179   6.471   2.363   3.095  0.4323  0.6621  0.0373
17255TIP3    H173180   6.401   2.315   3.052  2.1743  0.8711 -3.4385
17255TIP3    H273181   6.507   2.302   3.160  0.8351 -1.8293 -2.3409
17256TIP3   OH273182   1.134   1.912  11.424 -0.1227 -0.1151 -0.4220
17256TIP3    H173183   1.182   1.869  11.354 -0.0474 -0.0144 -0.4324
17256TIP3    H273184   1.201   1.938  11.487 -0.3140 -1.6468  0.4801
17257TIP3   OH273185   6.024   1.363  15.056  0.5861 -0.2321  0.1233
17257TIP3    H173186   6.030   1.355  14.960 -0.4537 -0.2810  0.0520
17257TIP3    H273187   6.080   1.292  15.089  0.8460 -0.3004 -0.4485
17258TIP3   OH273188   2.325   3.327   4.036  0.2214  0.0968  0.3137
17258TIP3    H173189   2.325   3.322   4.132  0.5072 -0.1622  0.3013
17258TIP3    H273190   2.416   3.343   4.013  0.0313  0.9426  0.1198
17259TIP3   OH273191   1.606   2.755   3.820 -0.1116 -0.5489 -0.3093
17259TIP3    H173192   1.697   2.750   3.850 -0.3390 -1.0457  0.3224
17259TIP3    H273193   1.600   2.841   3.778  0.2506  0.1787  1.0482
17260TIP3   OH273194   4.046   5.710  13.791  0.2182 -0.4286 -0.3558
17260TIP3    H173195   4.137   5.730  13.809  0.3410 -0.7603 -0.5953
17260TIP3    H273196   4.035   5.620  13.823 -0.5799  0.3187  1.6505
17261TIP3   OH273197   0.064   1.875   0.717 -0.5548  0.2026  0.0479
17261TIP3    H173198   0.095   1.863   0.806 -1.0678  0.7807  0.3150
17261TIP3    H273199   0.143   1.871   0.663  0.3338  3.3946  0.8647
17262TIP3   OH273200   0.401   5.424   5.086  0.3943 -0.0712  0.0731
17262TIP3    H173201   0.470   5.444   5.149 -0.2768  1.3341  0.4151
17262TIP3    H273202   0.323   5.411   5.140 -0.1107  0.8010 -0.4213
17263TIP3   OH273203   5.860   2.706  11.799 -0.0972 -0.2565 -0.9641
17263TIP3    H173204   5.870   2.637  11.865 -0.2909 -2.5234 -3.1374
17263TIP3    H273205   5.765   2.720  11.793 -0.0313  0.5887 -0.1847
17264TIP3   OH273206   0.280   5.923   5.327 -0.3976  0.4848  0.5360
17264TIP3    H173207   0.285   5.973   5.245  0.1063 -2.4509 -1.3844
17264TIP3    H273208   0.207   5.862   5.313 -0.2157 -0.1766  2.2421
17265TIP3   OH273209   4.285   0.780   0.400 -0.4512  0.0960  0.5597
17265TIP3    H173210   4.219   0.769   0.332 -0.6721  0.4006  0.7251
17265TIP3    H273211   4.236   0.811   0.476 -0.4765 -1.7311  1.3522
17266TIP3   OH273212   6.189   2.631  16.116 -0.0300 -0.5619 -0.1862
17266TIP3    H173213   6.218   2.654  16.027 -1.1112 -0.2356 -0.4726
17266TIP3    H273214   6.129   2.558  16.103 -0.5525 -0.2114  0.2252
17267TIP3   OH273215   1.814   5.750  16.247  0.6177  0.7315 -0.2253
17267TIP3    H173216   1.856   5.836  16.258 -2.7329  2.5693 -0.2049
17267TIP3    H273217   1.752   5.745  16.320  0.8733 -1.8866 -0.1048
17268TIP3   OH273218   2.512   4.847  14.006  1.0176  0.4561 -0.3364
17268TIP3    H173219   2.432   4.885  14.040 -0.4696 -4.2105  2.2865
17268TIP3    H273220   2.483   4.793  13.932  1.0115 -3.2179  2.1067
17269TIP3   OH273221   4.934   4.531   1.487 -0.2906  0.0451 -0.3989
17269TIP3    H173222   4.894   4.615   1.510  2.0424  1.3112 -0.6539
17269TIP3    H273223   4.885   4.500   1.411  0.1168  2.2698 -1.6363
17270TIP3   OH273224   0.757   1.468  14.322 -0.3105 -0.1045  0.1476
17270TIP3    H173225   0.697   1.406  14.363 -0.7188  0.3319  0.2236
17270TIP3    H273226   0.778   1.531  14.391  1.2829 -0.9883  0.4992
17271TIP3   OH273227   5.515   1.815  13.718 -0.1180  0.6658  0.3152
17271TIP3    H173228   5.527   1.832  13.625 -0.8668 -3.2105 -0.6585
17271TIP3    H273229   5.604   1.806  13.752  0.1619  2.2320  0.0627
17272TIP3   OH273230   6.755   4.155  14.502 -0.1974  0.7633 -0.2180
17272TIP3    H173231   6.764   4.241  14.462 -0.8261  0.8801 -0.1100
17272TIP3    H273232   6.787   4.094  14.435  0.2209  1.0724 -0.3029
17273TIP3   OH273233   3.991   1.501   2.827  0.4204 -0.0700  0.8060
17273TIP3    H173234   4.072   1.452   2.837  0.9513  0.9108  1.5135
17273TIP3    H273235   3.928   1.438   2.792  2.3097 -0.1067 -3.0105
17274TIP3   OH273236   2.656   4.783   0.261  0.0538  0.1719  0.0982
17274TIP3    H173237   2.722   4.762   0.327 -1.4767 -0.2400  1.5920
17274TIP3    H273238   2.664   4.877   0.247  0.1243  0.3504  1.2455
17275TIP3   OH273239   4.165   4.927  16.194 -0.3753  0.2186 -0.1992
17275TIP3    H173240   4.181   5.021  16.190 -1.9853  0.5464  0.2346
17275TIP3    H273241   4.131   4.912  16.282  2.8655 -1.3287  0.9233
17276TIP3   OH273242   4.997   1.223  13.725 -0.4434 -0.3682  0.1369
17276TIP3    H173243   5.017   1.307  13.766  2.3455 -0.9684  0.2129
17276TIP3    H273244   5.041   1.158  13.780  1.7231 -1.3971 -2.5715
17277TIP3   OH273245   4.528   2.682  15.830 -0.2958 -0.0885  0.4102
17277TIP3    H173246   4.539   2.614  15.764 -1.4378  1.3906 -1.4060
17277TIP3    H273247   4.589   2.751  15.804  0.8054 -0.3216  2.1871
17278TIP3   OH273248   1.038   0.928   1.522  0.0358  0.4877  0.2662
17278TIP3    H173249   1.043   0.834   1.506  1.2733  0.3246  1.4384
17278TIP3    H273250   0.956   0.941   1.568  0.7160 -0.3086  1.7660
17279TIP3   OH273251   6.361   0.535  16.540 -0.5541  1.1739 -0.0438
17279TIP3    H173252   6.386   0.550  16.448 -3.1305 -0.1735 -1.0742
17279TIP3    H273253   6.398   0.609  16.587  3.7598  0.2421 -1.5258
17280TIP3   OH273254   4.188   6.521   5.128  0.0857  0.3688  0.3519
17280TIP3    H173255   4.248   6.446   5.130 -0.5452 -0.1812  2.8665
17280TIP3    H273256   4.233   6.587   5.076  1.7931 -0.8639  0.1796
17281TIP3   OH273257   4.056   5.006  12.188  0.0130 -0.0740  0.0922
17281TIP3    H173258   3.968   5.005  12.150 -0.3529 -0.1890  0.9188
17281TIP3    H273259   4.052   5.074  12.255  0.3848 -0.4573  0.5092
17282TIP3   OH273260   0.532   4.887   6.041 -0.1771 -1.0152  0.2849
17282TIP3    H173261   0.577   4.888   6.126  0.0631 -0.3924  0.1544
17282TIP3    H273262   0.443   4.857   6.061 -0.3998  0.0378  0.8965
17283TIP3   OH273263   5.168   3.383  15.099  0.1739 -0.8284  0.0732
17283TIP3    H173264   5.163   3.380  15.195  2.5199 -0.9072  0.2608
17283TIP3    H273265   5.108   3.314  15.070 -2.0172  0.4350  1.3618
17284TIP3   OH273266   5.579   6.042   4.875 -0.3722 -0.1059  0.2810
17284TIP3    H173267   5.500   6.005   4.835 -0.2045 -0.6143  0.4132
17284TIP3    H273268   5.547   6.112   4.932 -0.6598  0.2529 -0.3036
17285TIP3   OH273269   5.072   0.691   0.740 -0.7996  0.2383 -0.4032
17285TIP3    H173270   5.044   0.600   0.738 -0.6988  0.2119 -1.7393
17285TIP3    H273271   5.069   0.716   0.833 -0.0307 -1.3579  0.0783
17286TIP3   OH273272   1.096   1.835   1.649  0.7093  0.2335 -0.0476
17286TIP3    H173273   1.074   1.928   1.643 -1.0180 -0.1579 -0.3527
17286TIP3    H273274   1.120   1.822   1.740 -1.6126  0.4932  0.6565
17287TIP3   OH273275   0.046   4.813   3.567 -0.2689  0.3245  0.3255
17287TIP3    H173276   0.090   4.897   3.551  1.5475 -0.8856 -1.5186
17287TIP3    H273277   0.097   4.774   3.638 -0.7385  0.4958  0.7640
17288TIP3   OH273278   3.082   1.627  16.807 -0.3488 -0.2064  0.3610
17288TIP3    H173279   3.012   1.688  16.782 -0.9831 -1.0438  0.0227
17288TIP3    H273280   3.040   1.540  16.802  0.5239 -0.6653  0.8452
17289TIP3   OH273281   1.031   0.310  11.652 -0.1267  0.5469 -0.1654
17289TIP3    H173282   1.082   0.375  11.604 -0.1026 -0.0773 -1.0117
17289TIP3    H273283   0.942   0.321  11.620 -0.0296 -0.1841 -0.7264
17290TIP3   OH273284   6.475   5.158   0.080 -0.1777 -0.3724 -0.3586
17290TIP3    H173285   6.566   5.150   0.054 -0.8010 -0.8617 -2.6158
17290TIP3    H273286   6.468   5.107   0.161  2.1981  2.4455  1.8544
17291TIP3   OH273287   4.622   5.415  12.402  0.7081  0.3863 -0.6267
17291TIP3    H173288   4.691   5.392  12.463 -0.7020  1.7005  1.5970
17291TIP3    H273289   4.641   5.506  12.377  0.8409  0.1123 -1.5859
17292TIP3   OH273290   6.697   2.517   3.049 -0.4272 -0.4084  0.0849
17292TIP3    H173291   6.709   2.511   2.954 -0.2834  1.8613 -0.0980
17292TIP3    H273292   6.636   2.447   3.069 -1.4597 -0.1608 -1.8984
17293TIP3   OH273293   0.452   0.039  14.225 -0.0189 -0.0714 -0.7210
17293TIP3    H173294   0.443  -0.051  14.196 -0.7215  0.0925 -1.0304
17293TIP3    H273295   0.516   0.036  14.296 -1.3197 -1.0529  0.4393
17294TIP3   OH273296   2.845   0.084  15.894 -0.2936  0.6043  0.2563
17294TIP3    H173297   2.766   0.086  15.839 -1.1206 -2.5587  1.1019
17294TIP3    H273298   2.818   0.037  15.973  1.8859  1.4990  1.6140
17295TIP3   OH273299   1.125   3.906  16.819 -0.7852 -0.3219  0.2591
17295TIP3    H173300   1.034   3.932  16.835 -1.9564 -3.1225 -1.1151
17295TIP3    H273301   1.119   3.836  16.754  2.4276 -0.3048 -0.2374
17296TIP3   OH273302   1.439   4.879  15.214  0.5776  0.1738 -0.4290
17296TIP3    H173303   1.447   4.858  15.121  0.0621 -0.3604 -0.3547
17296TIP3    H273304   1.389   4.807  15.251  0.2547  0.6868  0.1505
17297TIP3   OH273305   5.408   3.310  12.611 -0.1851 -0.6395 -0.0676
17297TIP3    H173306   5.347   3.299  12.537  0.4948  1.7264 -1.0685
17297TIP3    H273307   5.367   3.375  12.667  0.6756 -0.2140  0.0870
17298TIP3   OH273308   6.026   0.430   5.428  0.6173  0.1966  0.7862
17298TIP3    H173309   6.103   0.448   5.373 -0.7521 -2.0477 -2.1786
17298TIP3    H273310   6.061   0.378   5.501  2.2348  1.4572  0.9734
17299TIP3   OH273311   3.798   4.622   4.142 -0.0593  0.0157 -0.5680
17299TIP3    H173312   3.746   4.557   4.094 -0.5197  0.1423 -0.2346
17299TIP3    H273313   3.792   4.701   4.088  0.5569 -0.2237 -1.0104
17300TIP3   OH273314   6.063   0.869   4.971 -0.0839  0.4727  0.4951
17300TIP3    H173315   6.098   0.858   4.883  1.1385  1.6472  0.8158
17300TIP3    H273316   6.021   0.955   4.970  0.1496  0.6001  1.1175
17301TIP3   OH273317   3.592   5.953   5.021  0.4733 -0.0971 -0.3373
17301TIP3    H173318   3.581   6.034   5.071 -0.6836 -0.9578  0.8734
17301TIP3    H273319   3.592   5.883   5.087 -1.2830 -1.2905 -1.5178
17302TIP3   OH273320   1.382   4.698  12.311  0.1813 -0.4209  0.7632
17302TIP3    H173321   1.446   4.634  12.279 -0.0339 -1.5011  2.3860
17302TIP3    H273322   1.390   4.771  12.250 -1.7854 -3.1215 -3.1353
17303TIP3   OH273323   3.221   3.351   5.900  1.1299 -0.0870  0.0939
17303TIP3    H173324   3.191   3.435   5.934 -1.2614 -0.9595  0.2993
17303TIP3    H273325   3.248   3.370   5.810  0.1547  0.8319 -0.0230
17304TIP3   OH273326   1.774   6.400  10.561 -0.2016  0.2102  0.2857
17304TIP3    H173327   1.759   6.308  10.539 -0.0161  0.4358 -0.8137
17304TIP3    H273328   1.843   6.398  10.628  0.3675 -0.4007 -0.3116
17305TIP3   OH273329   6.710   2.858   5.126 -0.1562  0.5987 -0.1775
17305TIP3    H173330   6.750   2.809   5.198  0.0386  0.9695 -0.0243
17305TIP3    H273331   6.737   2.949   5.142 -1.2995  0.9059  0.0819
17306TIP3   OH273332   6.541   0.602   1.859  0.8427 -0.3594 -0.1323
17306TIP3    H173333   6.577   0.654   1.787 -0.3159 -0.4580 -0.8174
17306TIP3    H273334   6.538   0.662   1.933  3.0388 -0.5566  0.1595
17307TIP3   OH273335   2.696   2.598   6.552  0.1216 -0.0544 -0.5509
17307TIP3    H173336   2.671   2.517   6.508  1.6310 -0.9907  0.2148
17307TIP3    H273337   2.615   2.630   6.591 -0.0746 -2.9858  1.8852
17308TIP3   OH273338   5.255   2.618  11.337 -0.1387  0.4319 -0.7823
17308TIP3    H173339   5.336   2.577  11.308  0.0508  0.4252 -0.2397
17308TIP3    H273340   5.186   2.559  11.307  0.0081  0.7632 -1.8247
17309TIP3   OH273341   1.836   6.488   2.238 -0.1411  0.1394 -1.2965
17309TIP3    H173342   1.790   6.406   2.219 -0.8903  0.1673  0.2244
17309TIP3    H273343   1.774   6.538   2.291  0.1819  1.8352 -2.4601
17310TIP3   OH273344   5.993   4.760   5.701  0.1241  0.2427  0.6323
17310TIP3    H173345   6.075   4.771   5.654  0.4895 -0.8203  0.9853
17310TIP3    H273346   6.001   4.674   5.742 -1.5523 -0.2710 -0.0763
17311TIP3   OH273347   3.657   3.107  14.656 -0.0369  0.4792  1.2182
17311TIP3    H173348   3.715   3.110  14.732  0.3249 -0.6120  1.0048
17311TIP3    H273349   3.577   3.067  14.688  0.5116 -1.0146  0.8068
17312TIP3   OH273350   6.592   3.417   4.556 -0.4832  0.1762 -0.0758
17312TIP3    H173351   6.569   3.341   4.609 -0.8481  0.4321  0.1381
17312TIP3    H273352   6.536   3.487   4.589 -0.4657  0.4269 -0.5670
17313TIP3   OH273353   2.309   2.386   4.094 -0.1517  0.0969  0.4069
17313TIP3    H173354   2.372   2.435   4.146  0.1433  1.3285 -1.0330
17313TIP3    H273355   2.341   2.296   4.097  1.2816  0.5779  0.2967
17314TIP3   OH273356   1.369   0.141  13.479  0.3963  0.0547  1.0185
17314TIP3    H173357   1.407   0.154  13.566  1.0880 -0.4918  0.8091
17314TIP3    H273358   1.340   0.050  13.479 -0.7802  0.4146  1.1092
17315TIP3   OH273359   0.575   1.782  14.916  0.0301  0.5491  0.1271
17315TIP3    H173360   0.511   1.723  14.955  1.1220 -0.9231 -0.1843
17315TIP3    H273361   0.532   1.867  14.912 -2.0200 -0.4596 -0.4143
17316TIP3   OH273362   5.119   2.234  16.933 -1.2551  0.1725  0.6509
17316TIP3    H173363   5.161   2.284  16.863 -1.8639  1.6926  1.3239
17316TIP3    H273364   5.084   2.156  16.890  1.0601 -0.5091 -0.1580
17317TIP3   OH273365   1.626   2.675   4.527 -0.0208  0.5511  0.2970
17317TIP3    H173366   1.693   2.738   4.555  0.7566 -0.2811  0.3615
17317TIP3    H273367   1.620   2.689   4.432  1.9809 -0.9417 -0.1148
17318TIP3   OH273368   2.896   4.269  12.516  0.0378  0.4114 -0.0790
17318TIP3    H173369   2.973   4.255  12.572 -0.3549  0.6596  0.5381
17318TIP3    H273370   2.824   4.282  12.578 -0.8646 -1.6283 -0.6240
17319TIP3   OH273371   6.165   2.769  14.620 -0.0836 -0.3837 -0.2694
17319TIP3    H173372   6.249   2.804  14.647 -0.7186  1.3745 -0.4258
17319TIP3    H273373   6.174   2.753  14.526  0.6523 -2.0538  0.0532
17320TIP3   OH273374   4.777   1.325   3.706 -0.3042 -0.5493 -0.2140
17320TIP3    H173375   4.839   1.306   3.776  1.0732  0.3816 -1.1295
17320TIP3    H273376   4.690   1.314   3.746  0.4177  0.8558  1.8693
17321TIP3   OH273377   6.328   1.299   3.412  0.2744  0.3335  0.1995
17321TIP3    H173378   6.287   1.381   3.439  0.0224  0.1490  0.3711
17321TIP3    H273379   6.281   1.231   3.460  0.6151  0.1027  0.2087
17322TIP3   OH273380   3.713   4.435  12.046  0.0208 -0.1263 -0.9034
17322TIP3    H173381   3.787   4.377  12.027  0.3813  0.2710 -0.7231
17322TIP3    H273382   3.635   4.381  12.030  0.2818 -1.9458  2.9486
17323TIP3   OH273383   0.899   5.253  12.775  0.4050  0.3508  0.0589
17323TIP3    H173384   0.948   5.247  12.857  0.1921  1.2497  0.2602
17323TIP3    H273385   0.925   5.337  12.738  1.3529 -0.5358 -1.3621
17324TIP3   OH273386   4.809   1.254   6.371 -0.0247 -0.1322  0.1321
17324TIP3    H173387   4.791   1.347   6.385 -0.6595 -0.3383  0.7144
17324TIP3    H273388   4.730   1.209   6.399  0.4856 -0.8961  0.3881
17325TIP3   OH273389   4.092   4.914   2.041  0.4068 -0.1127  0.4565
17325TIP3    H173390   4.072   5.005   2.063 -0.6838 -0.2555  0.1035
17325TIP3    H273391   4.007   4.874   2.026  0.9503 -0.8410 -0.7819
17326TIP3   OH273392   1.559   3.961   0.357  0.7373 -0.5648  0.2490
17326TIP3    H173393   1.599   4.044   0.328 -1.4747 -0.2266 -2.2283
17326TIP3    H273394   1.606   3.894   0.307  0.6927 -0.5104  0.1312
17327TIP3   OH273395   0.351   3.295   4.227  0.1041  0.6304  0.2254
17327TIP3    H173396   0.269   3.280   4.180  1.2025  1.2836 -2.0561
17327TIP3    H273397   0.419   3.256   4.172  1.2576 -1.6136  2.9630
17328TIP3   OH273398   1.000   3.630   4.667  0.6254  0.4653  0.5928
17328TIP3    H173399   1.028   3.708   4.716  1.4775  0.8540 -0.4621
17328TIP3    H273400   1.020   3.651   4.576 -1.0907 -0.1609  0.0267
17329TIP3   OH273401   4.061   3.075   1.294 -0.4133  0.1670 -0.3714
17329TIP3    H173402   3.971   3.078   1.327 -0.5357  0.2253 -0.7134
17329TIP3    H273403   4.053   3.039   1.206 -0.0675 -0.1142 -0.2890
17330TIP3   OH273404   0.052   3.586  13.239  0.6481 -0.1402 -0.0185
17330TIP3    H173405  -0.022   3.595  13.179 -0.6781  0.5256  1.6129
17330TIP3    H273406   0.066   3.491  13.246  0.7365 -0.2290 -1.2343
17331TIP3   OH273407   1.081   4.747   1.896 -0.2063 -0.2415  0.5894
17331TIP3    H173408   1.115   4.665   1.860  0.1210  0.2016 -0.1278
17331TIP3    H273409   1.147   4.775   1.960  0.6453  0.4370 -0.5480
17332TIP3   OH273410   0.726   2.078   5.200 -0.3918  0.5626 -0.1615
17332TIP3    H173411   0.768   2.101   5.282  0.1685 -0.3788 -0.1798
17332TIP3    H273412   0.663   2.010   5.223 -1.3933  1.4295 -0.2590
17333TIP3   OH273413   6.399   0.840   2.321  0.0892 -0.2703  0.3032
17333TIP3    H173414   6.340   0.857   2.395 -2.1847  0.4200 -1.5455
17333TIP3    H273415   6.481   0.883   2.346 -1.0850  1.2782  1.8002
17334TIP3   OH273416   6.205   0.719   1.917 -0.3354  0.5649 -0.1319
17334TIP3    H173417   6.136   0.736   1.853 -0.6426 -0.1830 -0.0084
17334TIP3    H273418   6.235   0.630   1.896 -1.5886 -0.3823  1.7788
17335TIP3   OH273419   3.570   0.561  15.868  0.1370 -0.3272 -0.1540
17335TIP3    H173420   3.658   0.556  15.905  0.3864  1.2187 -0.4606
17335TIP3    H273421   3.512   0.559  15.944  0.4860 -0.4321  0.1123
17336TIP3   OH273422   3.583   2.276  15.184 -0.3255 -0.2777  0.2341
17336TIP3    H173423   3.548   2.309  15.267 -0.9346  1.0792 -0.5321
17336TIP3    H273424   3.510   2.281  15.123  0.5481  0.3246 -0.7994
17337TIP3   OH273425   2.607   2.734   4.388 -0.3342 -0.1213  0.7234
17337TIP3    H173426   2.614   2.822   4.423 -1.3520  0.2349  0.0993
17337TIP3    H273427   2.697   2.701   4.386  0.2221  1.3384 -0.1299
17338TIP3   OH273428   0.602   5.661   5.624  0.4555 -0.0125  0.0231
17338TIP3    H173429   0.531   5.722   5.604  0.1675 -0.1095  0.7262
17338TIP3    H273430   0.682   5.714   5.621  0.4453 -0.0264 -1.3867
17339TIP3   OH273431   3.747   3.795   2.256  0.0416  0.1408  0.0284
17339TIP3    H173432   3.736   3.776   2.349 -0.2485  0.9692  0.1724
17339TIP3    H273433   3.694   3.729   2.212 -0.5732  0.3162  0.4892
17340TIP3   OH273434   3.232   6.332  15.347  0.6154 -0.7820  0.3879
17340TIP3    H173435   3.323   6.350  15.324  0.6046 -0.7225  0.3919
17340TIP3    H273436   3.182   6.400  15.303  0.5595 -0.8928  0.2791
17341TIP3   OH273437   1.504   1.918   0.533  0.8759  0.1523 -0.9178
17341TIP3    H173438   1.537   1.992   0.482  0.0430  1.4575  0.3402
17341TIP3    H273439   1.410   1.916   0.514  0.7155  0.0949 -0.1559
17342TIP3   OH273440   0.089   6.533  13.673  0.1533  0.3499  0.1190
17342TIP3    H173441   0.046   6.547  13.758  0.0229 -0.7335  0.2449
17342TIP3    H273442   0.172   6.580  13.680  0.2930 -0.0080  0.9679
17343TIP3   OH273443   1.907   2.659   5.448  0.0451  0.0634  0.2806
17343TIP3    H173444   1.828   2.642   5.499 -2.5275  1.9785 -2.6604
17343TIP3    H273445   1.915   2.584   5.389 -2.2685  1.6166 -2.2677
17344TIP3   OH273446   6.686   5.016  12.877 -0.4948 -0.3830  0.4544
17344TIP3    H173447   6.754   5.078  12.901  0.2120 -1.2894  0.8708
17344TIP3    H273448   6.626   5.017  12.951 -1.0761  0.5812 -0.0089
17345TIP3   OH273449   5.186   0.592   3.123  0.1520 -0.4131 -0.0756
17345TIP3    H173450   5.149   0.680   3.113  0.5834 -0.1306  0.7078
17345TIP3    H273451   5.281   0.606   3.118  0.1925 -1.0605 -1.5556
17346TIP3   OH273452   2.954   1.840  11.310 -0.3302 -0.6311 -0.5569
17346TIP3    H173453   2.935   1.875  11.397 -1.6257 -0.0532 -1.0457
17346TIP3    H273454   3.022   1.898  11.276  0.7895 -1.3528  0.3509
17347TIP3   OH273455   4.023   4.547   5.789  0.2609 -0.2180 -0.0308
17347TIP3    H173456   3.977   4.550   5.874  0.2051 -1.4485  0.0010
17347TIP3    H273457   3.955   4.521   5.727  0.6915 -1.0965 -0.1457
17348TIP3   OH273458   5.433   1.973   1.346  0.4489  0.4716 -0.3463
17348TIP3    H173459   5.381   1.902   1.309  0.4906 -0.3051  1.0217
17348TIP3    H273460   5.376   2.049   1.343  0.0499  0.1570 -0.9307
17349TIP3   OH273461   3.865   1.456   0.790 -0.0681  0.2454 -0.2390
17349TIP3    H173462   3.926   1.472   0.862 -0.3942  1.7589 -0.2563
17349TIP3    H273463   3.787   1.420   0.832  0.1568  0.0571  0.0179
17350TIP3   OH273464   6.661   0.079  13.263  0.1836 -0.2702  0.0151
17350TIP3    H173465   6.634   0.040  13.180  0.9781 -0.6293 -0.0851
17350TIP3    H273466   6.658   0.006  13.325 -0.6910  0.0577  0.3799
17351TIP3   OH273467   5.894   0.657  12.696 -0.1156 -0.1143  0.1512
17351TIP3    H173468   5.892   0.592  12.626 -1.9475  0.0636 -0.0173
17351TIP3    H273469   5.894   0.605  12.776  2.6227 -0.3271  0.0925
17352TIP3   OH273470   5.291   4.309  10.503  0.2924 -0.3340 -0.4672
17352TIP3    H173471   5.210   4.330  10.550 -0.6115  0.0217 -2.0896
17352TIP3    H273472   5.298   4.214  10.507  0.2992 -0.2949  0.4779
17353TIP3   OH273473   1.943   2.634  16.134 -0.0756  0.3826 -0.4874
17353TIP3    H173474   1.913   2.666  16.049  1.5943  1.6162 -0.6593
17353TIP3    H273475   2.030   2.671  16.144  0.2995 -0.8390  1.1839
17354TIP3   OH273476   5.318   4.621   2.577 -0.4145 -0.1605  0.4403
17354TIP3    H173477   5.307   4.542   2.525  0.0696 -1.1368  1.7511
17354TIP3    H273478   5.412   4.625   2.595  0.3114  3.0049 -2.9806
17355TIP3   OH273479   5.799   5.853  14.634 -0.6020 -0.4730  0.4621
17355TIP3    H173480   5.838   5.940  14.629 -0.4231 -0.3137  2.9551
17355TIP3    H273481   5.869   5.798  14.670 -2.2981 -0.2506  4.7651
17356TIP3   OH273482   6.282   1.256   5.987 -0.4535  0.3083 -0.1171
17356TIP3    H173483   6.268   1.238   6.079 -0.3541  0.8605  0.0097
17356TIP3    H273484   6.366   1.213   5.967  0.1137  1.1774  0.3434
17357TIP3   OH273485   6.488   5.242  14.062 -0.5131 -0.3515  0.5219
17357TIP3    H173486   6.407   5.289  14.044  0.6957  2.1010  0.9786
17357TIP3    H273487   6.504   5.256  14.155  0.1933 -1.2358  0.5486
17358TIP3   OH273488   3.111   4.417  11.828 -0.2780  0.1397  0.2358
17358TIP3    H173489   3.033   4.431  11.775  0.7673  1.4821 -1.0147
17358TIP3    H273490   3.109   4.488  11.892 -0.2581 -0.0315  0.4283
17359TIP3   OH273491   1.152   1.464  14.970  0.3687  0.3683 -0.0472
17359TIP3    H173492   1.169   1.485  14.878 -0.6749  0.3932 -0.2491
17359TIP3    H273493   1.104   1.540  15.003 -1.0084 -0.4645 -0.0351
17360TIP3   OH273494   2.490   1.382   0.194 -0.5083  0.5347  0.2220
17360TIP3    H173495   2.578   1.345   0.185 -0.6874  0.1941 -0.1484
17360TIP3    H273496   2.476   1.430   0.112 -1.0310 -0.1952 -0.1259
17361TIP3   OH273497   4.531   0.572  14.812 -0.3023  0.0323  0.1307
17361TIP3    H173498   4.544   0.599  14.903 -2.7616  1.2913  0.1808
17361TIP3    H273499   4.581   0.635  14.760  2.8327 -1.8695  0.5313
17362TIP3   OH273500   3.310   5.650   4.810  0.5905 -0.1816 -0.3825
17362TIP3    H173501   3.322   5.585   4.741  0.2753 -0.6442 -0.0132
17362TIP3    H273502   3.322   5.600   4.891  2.2592  0.5998 -0.1019
17363TIP3   OH273503   3.495   1.336   2.730  0.0803 -0.2088 -0.1363
17363TIP3    H173504   3.491   1.426   2.762 -3.0213 -0.9001  1.8656
17363TIP3    H273505   3.473   1.342   2.637 -1.3260  1.0419  0.2450
17364TIP3   OH273506   0.778   1.726  16.859 -0.4373 -0.5421 -0.4610
17364TIP3    H173507   0.829   1.653  16.896 -0.8792 -0.3423  0.5637
17364TIP3    H273508   0.761   1.699  16.769  1.3234 -0.6949 -0.7884
17365TIP3   OH273509   3.561   5.312  11.184 -0.1290 -0.2047  0.5087
17365TIP3    H173510   3.510   5.392  11.198 -2.9821 -1.4648 -1.7031
17365TIP3    H273511   3.639   5.342  11.137 -1.4192  1.2981 -0.8105
17366TIP3   OH273512   0.506   6.704  12.573  0.3874 -0.1319 -0.1253
17366TIP3    H173513   0.416   6.724  12.600  0.4116 -1.2002  0.7656
17366TIP3    H273514   0.551   6.789  12.578 -0.2839  0.2023  0.5331
17367TIP3   OH273515   2.265   0.022  14.108  0.0108 -0.1238 -0.7448
17367TIP3    H173516   2.323   0.006  14.182  0.8086 -0.2277 -1.3796
17367TIP3    H273517   2.233   0.111  14.121 -1.0801 -0.6671  0.5326
17368TIP3   OH273518   4.215   2.781   4.991 -0.0541 -0.9622  0.1461
17368TIP3    H173519   4.250   2.738   5.069  1.9619 -0.2250 -0.3006
17368TIP3    H273520   4.232   2.718   4.920  1.4253 -0.1795 -0.2405
17369TIP3   OH273521   6.303   0.367   3.484  0.2744  0.6165 -0.2530
17369TIP3    H173522   6.389   0.326   3.485  0.2970  0.6006 -1.2730
17369TIP3    H273523   6.248   0.307   3.434 -0.3247  0.6418  0.3658
17370TIP3   OH273524   0.760   2.534  10.855  0.3551 -0.4353 -0.0852
17370TIP3    H173525   0.716   2.516  10.772 -0.2293  0.1582  0.0919
17370TIP3    H273526   0.732   2.463  10.913 -1.1059  0.4218  0.2975
17371TIP3   OH273527   4.971   3.996   4.378  0.0693  0.1739 -0.2583
17371TIP3    H173528   5.057   3.969   4.347  0.1218 -0.0540  0.0709
17371TIP3    H273529   4.934   4.048   4.307  1.0658  1.5135  0.1508
17372TIP3   OH273530   5.292   4.610   0.976  0.0358 -0.0036  0.3394
17372TIP3    H173531   5.228   4.639   0.910 -0.5082  0.9024  1.2422
17372TIP3    H273532   5.375   4.609   0.929 -0.2068  1.4107 -0.1768
17373TIP3   OH273533   3.407   6.518   2.411 -0.2156  0.1300 -0.2932
17373TIP3    H173534   3.363   6.590   2.455 -0.1425  0.5743 -0.9370
17373TIP3    H273535   3.377   6.440   2.457 -0.1206  0.5852  0.5549
17374TIP3   OH273536   5.588   2.693  11.470  0.1413 -0.1211  1.1465
17374TIP3    H173537   5.534   2.676  11.548 -0.3509 -2.2697  0.3829
17374TIP3    H273538   5.530   2.740  11.411 -0.3792 -0.9244  1.0038
17375TIP3   OH273539   0.150   3.757  12.168  0.4416 -0.0961 -0.0952
17375TIP3    H173540   0.090   3.778  12.096  1.5660  2.0553 -0.5329
17375TIP3    H273541   0.156   3.662  12.168 -1.5947 -0.2808 -1.1394
17376TIP3   OH273542   1.586   0.631   1.743 -0.2006 -0.3127 -0.4895
17376TIP3    H173543   1.593   0.614   1.837 -0.8533 -1.5885 -0.6503
17376TIP3    H273544   1.674   0.619   1.709  0.0562  0.2435 -0.0263
17377TIP3   OH273545   1.741   4.063   4.676 -0.0721 -0.2329  0.1085
17377TIP3    H173546   1.820   4.018   4.708  0.4060 -1.6096 -2.6836
17377TIP3    H273547   1.763   4.088   4.587 -1.6682  2.4624  0.3876
17378TIP3   OH273548   5.218   4.038   4.274 -1.0475  0.0651 -0.2381
17378TIP3    H173549   5.177   4.125   4.268 -2.1997 -0.4457 -0.0505
17378TIP3    H273550   5.302   4.055   4.316 -1.8085  0.9504  1.0219
17379TIP3   OH273551   0.360   5.547   2.298 -0.2628  0.0048 -0.7734
17379TIP3    H173552   0.411   5.574   2.375 -2.4725 -0.0930  0.8057
17379TIP3    H273553   0.410   5.475   2.260  2.3736  1.8975 -1.2179
17380TIP3   OH273554   6.046   4.653   0.746  0.3575  0.0002  0.6946
17380TIP3    H173555   6.025   4.588   0.813 -1.4411 -0.6104 -0.3803
17380TIP3    H273556   6.103   4.608   0.685  0.6522  0.0306  0.9490
17381TIP3   OH273557   2.529   5.252   3.723 -0.4918  0.1846 -0.0459
17381TIP3    H173558   2.539   5.231   3.630 -1.6054 -1.8544  0.2553
17381TIP3    H273559   2.458   5.197   3.753 -1.9462  2.7028  1.4774
17382TIP3   OH273560   5.742   3.021   4.880 -0.1978 -0.0854  0.0929
17382TIP3    H173561   5.752   2.937   4.926 -0.8438 -0.4582 -0.4307
17382TIP3    H273562   5.671   3.006   4.818 -0.3670  0.8834  0.0442
17383TIP3   OH273563   5.864   2.018  11.431  0.6838  0.1462  0.2595
17383TIP3    H173564   5.857   2.114  11.430  2.2543  0.2870  0.7540
17383TIP3    H273565   5.887   1.995  11.341 -0.5159  0.1338 -0.0657
17384TIP3   OH273566   1.696   1.476   4.610 -0.7147 -0.6805 -0.4794
17384TIP3    H173567   1.674   1.452   4.520 -0.7937  0.5105 -0.7936
17384TIP3    H273568   1.792   1.471   4.614 -0.7435 -1.2535 -0.4713
17385TIP3   OH273569   6.532   4.395  14.856  0.1024  0.7318 -0.0547
17385TIP3    H173570   6.507   4.389  14.764 -2.1945 -0.2125  0.5651
17385TIP3    H273571   6.542   4.304  14.884  2.3892  1.0233  0.2997
17386TIP3   OH273572   4.928   3.538   0.803 -0.1807 -0.2041 -0.0848
17386TIP3    H173573   4.992   3.505   0.866 -0.3891  0.2074  0.3501
17386TIP3    H273574   4.864   3.586   0.857  1.4203  3.1079 -0.8588
17387TIP3   OH273575   2.730   4.407   3.378 -0.1889  0.9876 -0.5482
17387TIP3    H173576   2.820   4.439   3.372 -0.0183  0.5201 -0.4635
17387TIP3    H273577   2.677   4.481   3.349  0.1788  1.5186  0.1002
17388TIP3   OH273578   3.597   0.867   3.709  0.5560  0.1848  0.4709
17388TIP3    H173579   3.652   0.916   3.648  1.0424 -1.5548 -0.5540
17388TIP3    H273580   3.518   0.921   3.719  1.0641  1.1613 -0.6021
17389TIP3   OH273581   3.110   4.160  15.736 -0.4135 -0.2978  0.5455
17389TIP3    H173582   3.138   4.138  15.647  0.4985  1.4909  0.3625
17389TIP3    H273583   3.016   4.174  15.728 -0.3078  0.0495 -0.1743
17390TIP3   OH273584   5.681   1.221   5.778 -0.6992  0.3614 -0.2182
17390TIP3    H173585   5.622   1.210   5.852 -0.0587  1.0435  0.4092
17390TIP3    H273586   5.657   1.150   5.718 -1.4697  0.0190  0.4664
17391TIP3   OH273587   4.568   6.606  13.367 -0.0389  0.5634 -0.2972
17391TIP3    H173588   4.482   6.604  13.410  0.3067  1.3568  0.4779
17391TIP3    H273589   4.592   6.514  13.356 -1.0219  0.3294 -0.6043
17392TIP3   OH273590   0.753   5.419  13.210  0.0170  0.7372  0.1430
17392TIP3    H173591   0.812   5.376  13.271 -0.4989  0.9793  0.8316
17392TIP3    H273592   0.800   5.419  13.127  0.7288  0.3935  0.5331
17393TIP3   OH273593   5.784   4.351   2.434 -0.3014  0.1762 -0.6383
17393TIP3    H173594   5.821   4.437   2.414  0.9238 -0.0665  0.4591
17393TIP3    H273595   5.855   4.303   2.477 -1.1662 -1.1645 -0.6327
17394TIP3   OH273596   6.677   2.078  16.659 -0.4920 -0.2155 -0.1396
17394TIP3    H173597   6.607   2.134  16.692 -0.1815 -0.1467  0.4050
17394TIP3    H273598   6.654   2.063  16.567  0.0950  1.8614 -0.6720
17395TIP3   OH273599   5.799   3.193   0.290  0.1978 -0.1750 -0.2662
17395TIP3    H173600   5.882   3.219   0.329  1.0415 -1.8723 -0.8349
17395TIP3    H273601   5.738   3.262   0.315  1.6451  0.8387  0.6099
17396TIP3   OH273602   3.999   4.782   1.513 -0.3177 -0.1149 -0.4584
17396TIP3    H173603   3.917   4.829   1.493 -0.3421 -0.5648 -1.4849
17396TIP3    H273604   4.001   4.778   1.608 -1.5484 -0.1675 -0.4096
17397TIP3   OH273605   5.258   2.650  13.949 -0.1547 -0.2448 -0.2714
17397TIP3    H173606   5.331   2.591  13.965  0.7295  1.2471  1.7582
17397TIP3    H273607   5.278   2.727  14.002 -3.2018  0.2460  0.3613
17398TIP3   OH273608   1.570   1.663  17.182  0.7055 -0.3355 -0.1875
17398TIP3    H173609   1.490   1.650  17.132  0.2944  1.5038 -0.0775
17398TIP3    H273610   1.603   1.748  17.153  2.0451 -0.5790  0.5376
17399TIP3   OH273611   5.663   5.421   4.493 -0.8529  0.3057 -0.5439
17399TIP3    H173612   5.587   5.428   4.551 -0.0799  0.4239  0.4731
17399TIP3    H273613   5.708   5.342   4.522 -1.0160 -0.2065 -1.6675
17400TIP3   OH273614   6.417   0.784  11.444 -0.4734 -0.3068 -0.2339
17400TIP3    H173615   6.489   0.792  11.507 -1.5556 -1.8640  1.2792
17400TIP3    H273616   6.458   0.805  11.360  1.1635  1.2756  0.8503
17401TIP3   OH273617   3.996   3.806   5.024 -0.2459 -0.4425  0.0222
17401TIP3    H173618   3.933   3.759   5.080  0.4773 -0.8280  0.5252
17401TIP3    H273619   4.068   3.745   5.012  0.9730  0.7076  1.1490
17402TIP3   OH273620   5.888   2.006  13.729 -0.4299 -0.4739  0.0501
17402TIP3    H173621   5.983   1.995  13.729 -0.6505 -2.8754 -1.3662
17402TIP3    H273622   5.874   2.090  13.684  0.9897 -0.2228  0.0251
17403TIP3   OH273623   3.088   4.074   2.436 -0.1005  0.7203 -0.1230
17403TIP3    H173624   3.104   4.159   2.475  1.0829  0.4232  0.0666
17403TIP3    H273625   3.127   4.080   2.349 -0.9980  0.7313 -0.5350
17404TIP3   OH273626   4.989   4.994  15.742  0.3895  0.0602  0.0840
17404TIP3    H173627   5.013   5.085  15.725  2.1675 -0.6042 -1.3060
17404TIP3    H273628   5.072   4.948  15.748 -0.4442 -1.3279  1.8988
17405TIP3   OH273629   4.726   5.902   5.943  0.0181 -0.5337  0.5255
17405TIP3    H173630   4.670   5.853   5.883  0.0094 -0.6649  0.6387
17405TIP3    H273631   4.672   5.914   6.021 -0.1748  0.1347  0.2966
17406TIP3   OH273632   3.157   2.967   5.941  0.1415 -0.2807 -0.2968
17406TIP3    H173633   3.123   3.003   6.022 -2.1093  0.8229 -1.6279
17406TIP3    H273634   3.155   3.040   5.879  1.5047 -1.1576 -1.4510
17407TIP3   OH273635   3.439   4.394  16.934 -0.5731  0.0371  0.1290
17407TIP3    H173636   3.433   4.417  16.841 -0.1376 -0.4414 -0.0220
17407TIP3    H273637   3.374   4.324  16.945 -0.4927 -0.0356  0.1422
17408TIP3   OH273638   0.694   1.816  15.952 -0.0778 -0.3326  0.2634
17408TIP3    H173639   0.612   1.769  15.939 -0.3588  0.5310 -1.4307
17408TIP3    H273640   0.687   1.892  15.895  1.2352  0.6480  1.3335
17409TIP3   OH273641   5.728   3.742   5.241  0.2198  0.1821 -0.2043
17409TIP3    H173642   5.750   3.712   5.152  1.9116  0.1030  0.2053
17409TIP3    H273643   5.788   3.695   5.298  1.1784  2.3628  0.7092
17410TIP3   OH273644   6.716   0.554   6.078  0.0885 -0.4556  0.2405
17410TIP3    H173645   6.633   0.588   6.111  0.2946 -0.1092  0.4183
17410TIP3    H273646   6.775   0.630   6.081  0.3485 -0.6417 -0.0968
17411TIP3   OH273647   1.864   3.850  13.382 -0.2495 -0.2137  0.0626
17411TIP3    H173648   1.876   3.945  13.388  2.0430 -0.2821 -1.9269
17411TIP3    H273649   1.924   3.814  13.447 -1.1163 -0.3310  0.8156
17412TIP3   OH273650   4.298   3.758   5.278  0.1401  0.8040  0.0859
17412TIP3    H173651   4.362   3.689   5.262 -0.3826  0.3640 -0.1342
17412TIP3    H273652   4.213   3.717   5.260 -0.1917  1.4354  0.1782
17413TIP3   OH273653   5.869   4.960  12.494 -0.2097  0.3013 -0.0318
17413TIP3    H173654   5.868   4.973  12.399 -2.0180 -1.4739 -0.3134
17413TIP3    H273655   5.777   4.949  12.518  0.3212 -0.7617  1.6904
17414TIP3   OH273656   2.771   6.108   2.289 -0.4246  0.2717  0.0682
17414TIP3    H173657   2.863   6.091   2.268 -0.8068 -0.7448 -0.9153
17414TIP3    H273658   2.756   6.062   2.371  0.5010  2.3543  1.4844
17415TIP3   OH273659   2.448   6.541  14.625  0.6032 -0.0939  0.1112
17415TIP3    H173660   2.472   6.625  14.586 -3.8077  1.2219 -0.2605
17415TIP3    H273661   2.412   6.490  14.553  0.2158 -1.0355  0.9460
17416TIP3   OH273662   2.156   6.035  13.749 -0.0068 -0.2295 -0.0602
17416TIP3    H173663   2.098   6.110  13.744  0.7925  0.4372  0.3684
17416TIP3    H273664   2.104   5.962  13.716 -0.8346  0.4845 -0.3723
17417TIP3   OH273665   2.233   3.245   2.679 -0.3868 -0.6206 -0.4127
17417TIP3    H173666   2.164   3.184   2.652  0.4658 -1.4065 -0.8904
17417TIP3    H273667   2.301   3.188   2.715  0.3181  0.0706 -0.6396
17418TIP3   OH273668   6.404   4.149  13.139  0.2911  0.0937  0.2299
17418TIP3    H173669   6.450   4.116  13.062  0.2729  0.9532 -0.1688
17418TIP3    H273670   6.471   4.192  13.191 -0.1176  2.0294 -0.7273
17419TIP3   OH273671   5.607   3.667   0.093  0.2303  0.9661 -0.2436
17419TIP3    H173672   5.524   3.619   0.088  0.2592  0.9528 -0.5725
17419TIP3    H273673   5.652   3.645   0.012  0.8868  0.3623  0.2707
17420TIP3   OH273674   4.191   4.166   0.735  0.3087  0.0061  0.0491
17420TIP3    H173675   4.157   4.231   0.796  0.3903  0.1918 -0.1009
17420TIP3    H273676   4.118   4.108   0.718  0.9138 -1.5525  2.2670
17421TIP3   OH273677   6.488   5.839  15.280 -0.3663  0.2276  0.1683
17421TIP3    H173678   6.473   5.745  15.272  0.1344  0.2434 -1.2865
17421TIP3    H273679   6.573   5.845  15.324 -0.6584  0.0120  0.7681
17422TIP3   OH273680   1.838   6.603   3.818 -0.6133  0.1138 -0.3441
17422TIP3    H173681   1.884   6.598   3.734  0.3553 -1.0778  0.2223
17422TIP3    H273682   1.745   6.605   3.794 -0.3602 -0.4857 -1.4503
17423TIP3   OH273683   1.373   4.867  10.975 -0.1777 -0.0835  0.1569
17423TIP3    H173684   1.318   4.875  10.897  2.1622  1.5011 -1.4884
17423TIP3    H273685   1.370   4.774  10.998 -2.4190 -0.2583 -0.6195
17424TIP3   OH273686   0.826   6.067   0.037  0.7222  0.1255 -0.0875
17424TIP3    H173687   0.795   5.976   0.036  2.3717 -0.5023 -2.6875
17424TIP3    H273688   0.748   6.118   0.059 -0.1065 -1.8949  2.1786
17425TIP3   OH273689   6.427   0.102   2.198  0.4053  0.6386  0.4237
17425TIP3    H173690   6.337   0.121   2.222  0.3558 -0.3950  1.1346
17425TIP3    H273691   6.466   0.067   2.278  0.9034 -0.6922 -0.3676
17426TIP3   OH273692   6.682   4.120   4.885 -0.3358 -0.0004 -0.1407
17426TIP3    H173693   6.732   4.140   4.965 -1.2870 -0.2394  0.5336
17426TIP3    H273694   6.742   4.068   4.832 -0.2008 -1.1869  1.1096
17427TIP3   OH273695   3.562   4.224   4.168  0.1544 -0.0567  0.4006
17427TIP3    H173696   3.571   4.261   4.080 -0.7305 -2.0440 -0.6131
17427TIP3    H273697   3.630   4.266   4.220  0.5562  1.3333 -1.1798
17428TIP3   OH273698   0.349   1.577  12.768  0.2911 -0.3055 -0.2636
17428TIP3    H173699   0.374   1.515  12.699  0.2430 -0.3403 -0.2496
17428TIP3    H273700   0.335   1.523  12.845 -2.1010 -0.5843 -0.8099
17429TIP3   OH273701   1.751   4.851  16.943  0.6625  0.3806  0.0022
17429TIP3    H173702   1.776   4.759  16.945  1.2840  0.5420  0.0196
17429TIP3    H273703   1.679   4.858  17.006 -0.0287 -0.2639 -0.6908
17430TIP3   OH273704   5.853   1.720   0.234 -0.1378 -0.4001 -0.0171
17430TIP3    H173705   5.807   1.767   0.164 -0.6098  1.6809  1.5601
17430TIP3    H273706   5.861   1.631   0.202 -1.8105  0.0808 -2.0148
17431TIP3   OH273707   4.657   3.168  16.005 -0.4723  0.1410  0.1797
17431TIP3    H173708   4.740   3.124  15.987 -1.6105 -1.3769 -1.7090
17431TIP3    H273709   4.626   3.129  16.087  1.0958  1.4516  1.4494
17432TIP3   OH273710   5.582   5.387  12.991  0.1190  0.5536  0.4176
17432TIP3    H173711   5.524   5.314  12.969  0.2473  0.7786 -0.7263
17432TIP3    H273712   5.653   5.346  13.041 -1.1319  0.3239  2.0939
17433TIP3   OH273713   0.863   5.147   1.459 -0.1822  0.0607 -0.8417
17433TIP3    H173714   0.842   5.072   1.516 -1.2874  0.2017 -1.0392
17433TIP3    H273715   0.841   5.116   1.371 -0.8959  0.6959 -0.8936
17434TIP3   OH273716   3.676   3.028  16.639  0.4064  0.6200  0.2838
17434TIP3    H173717   3.614   3.037  16.712 -1.1596 -1.0402 -0.7735
17434TIP3    H273718   3.743   3.094  16.657 -0.4378  0.9336  2.6958
17435TIP3   OH273719   3.480   3.349  17.095  0.3658  0.0613 -0.4610
17435TIP3    H173720   3.474   3.442  17.118  0.0098 -0.0352 -0.1565
17435TIP3    H273721   3.487   3.349  16.999  0.2109  0.3965 -0.4751
17436TIP3   OH273722   1.417   1.586  15.335 -0.0237 -0.3127 -0.1044
17436TIP3    H173723   1.365   1.532  15.275 -0.7672  0.1270  0.1336
17436TIP3    H273724   1.435   1.529  15.409 -1.0166 -0.1698  0.2579
17437TIP3   OH273725   1.918   6.156   0.564 -0.0652 -0.0174 -0.3117
17437TIP3    H173726   2.009   6.132   0.545  0.3542  2.0875 -1.2863
17437TIP3    H273727   1.870   6.133   0.485 -0.3233 -0.7506  0.0489
17438TIP3   OH273728   3.921   3.860   5.371 -0.3485  0.2738 -0.1421
17438TIP3    H173729   3.931   3.832   5.462 -0.6320 -0.8410 -0.4510
17438TIP3    H273730   3.982   3.805   5.321  0.9622  1.9033 -0.4738
17439TIP3   OH273731   2.102   5.714  13.188 -0.1331 -0.1440 -0.5470
17439TIP3    H173732   2.038   5.749  13.250  1.0329  0.2228  0.5018
17439TIP3    H273733   2.099   5.775  13.114 -1.7848 -0.7824 -1.0602
17440TIP3   OH273734   6.039   6.392  17.089 -0.3241  0.8376 -0.3650
17440TIP3    H173735   6.009   6.478  17.063  0.2282  0.5147 -2.2169
17440TIP3    H273736   5.986   6.331  17.037  2.4416  0.2327 -2.7210
17441TIP3   OH273737   6.581   2.375  14.001  0.1884 -0.1227  0.4303
17441TIP3    H173738   6.558   2.467  13.990  0.3707 -0.0826  0.3748
17441TIP3    H273739   6.501   2.334  14.033 -0.3812 -0.2548 -1.1046
17442TIP3   OH273740   4.312   3.358  13.660 -0.2042  0.2227  0.1503
17442TIP3    H173741   4.275   3.325  13.577 -1.1665 -0.3655  0.7951
17442TIP3    H273742   4.267   3.441  13.675  0.3511  0.5849 -0.1766
17443TIP3   OH273743   2.694   2.991  16.608 -0.1414 -0.2520  0.7941
17443TIP3    H173744   2.743   2.917  16.643  1.8692  0.5745 -0.1443
17443TIP3    H273745   2.692   2.976  16.513  2.4101  2.0120  0.2758
17444TIP3   OH273746   1.656   6.444  11.539  0.7083  0.4720  0.5587
17444TIP3    H173747   1.574   6.438  11.489  0.6555 -1.6194  0.8168
17444TIP3    H273748   1.723   6.415  11.477  0.7593 -1.2557  1.3730
17445TIP3   OH273749   5.763   5.208   1.566 -0.0857 -0.2078 -0.0158
17445TIP3    H173750   5.855   5.189   1.552  0.5308  1.2054  1.7199
17445TIP3    H273751   5.720   5.184   1.483  1.8986 -0.3531 -1.0528
17446TIP3   OH273752   4.754   1.601  12.144  0.3039  0.2425 -0.3848
17446TIP3    H173753   4.729   1.670  12.206 -2.3028 -1.4802  0.6767
17446TIP3    H273754   4.754   1.521  12.197  0.9711 -0.8965 -2.0378
17447TIP3   OH273755   3.904   4.056  15.121  0.4636 -0.0853  0.2678
17447TIP3    H173756   3.939   4.142  15.144  1.5809 -0.8457  1.5306
17447TIP3    H273757   3.933   4.042  15.031  0.5513  0.7129  0.1642
17448TIP3   OH273758   2.129   0.624  11.327  0.5515  0.0010  0.2594
17448TIP3    H173759   2.155   0.707  11.288 -0.8192 -0.3784 -1.5854
17448TIP3    H273760   2.204   0.566  11.312  0.7886  0.3977 -0.1118
17449TIP3   OH273761   1.787   2.691   5.922 -0.4212  0.2753  0.0236
17449TIP3    H173762   1.775   2.599   5.945 -0.4532  0.6892  1.7586
17449TIP3    H273763   1.849   2.724   5.987  0.1664  1.3191 -1.0219
17450TIP3   OH273764   0.308   0.667   4.573  0.2373  0.4440  0.2697
17450TIP3    H173765   0.297   0.582   4.531 -0.3991  0.1350  1.0341
17450TIP3    H273766   0.306   0.648   4.666 -0.9570  1.4058  0.4650
17451TIP3   OH273767   2.247   1.736  13.973  0.5617 -0.5929 -0.1596
17451TIP3    H173768   2.234   1.687  13.891 -0.7714  1.0275 -0.9814
17451TIP3    H273769   2.270   1.669  14.037  1.7392 -1.9113 -1.8587
17452TIP3   OH273770   1.822   2.692  12.532 -0.0448 -0.8286  0.6152
17452TIP3    H173771   1.774   2.613  12.508 -0.8013  0.1281 -1.2034
17452TIP3    H273772   1.756   2.751  12.568 -0.0407 -0.0011 -0.6623
17453TIP3   OH273773   2.378   1.259   6.831 -0.2861 -0.2177 -0.5727
17453TIP3    H173774   2.466   1.263   6.869 -0.2890  2.9454 -0.6445
17453TIP3    H273775   2.393   1.240   6.738  0.4061  1.0036 -0.7275
17454TIP3   OH273776   6.591   0.684  12.630 -0.4777  0.0636 -0.1449
17454TIP3    H173777   6.547   0.609  12.670 -0.5566  0.6173  0.8290
17454TIP3    H273778   6.580   0.671  12.535 -3.4223  0.5834  0.0518
17455TIP3   OH273779   3.233   0.096   0.112  0.0514 -0.6527  0.2111
17455TIP3    H173780   3.207   0.004   0.114 -5.7171  0.5481 -0.7878
17455TIP3    H273781   3.204   0.132   0.196 -2.6241  1.0195 -1.2835
17456TIP3   OH273782   0.736   3.141   2.070  0.3854 -0.2571  0.3368
17456TIP3    H173783   0.797   3.144   2.144  2.7686  0.0168 -1.5515
17456TIP3    H273784   0.762   3.064   2.020 -2.2459 -1.3847  0.5516
17457TIP3   OH273785   6.343   3.875   4.625 -0.1311  0.0786 -0.1347
17457TIP3    H173786   6.362   3.903   4.715 -0.6539  1.7349 -0.5038
17457TIP3    H273787   6.422   3.898   4.576 -1.0532  2.3067 -0.7009
17458TIP3   OH273788   5.707   1.553  14.711 -0.0494  0.3136 -0.6516
17458TIP3    H173789   5.728   1.570  14.803  0.7725 -1.8398 -0.4085
17458TIP3    H273790   5.781   1.590  14.662 -0.3314  1.1665 -0.4632
17459TIP3   OH273791   0.295   4.327  13.571 -0.6613 -0.3480 -0.5184
17459TIP3    H173792   0.326   4.398  13.627  0.7194 -2.2861  1.3594
17459TIP3    H273793   0.356   4.327  13.497 -1.0749  0.8087 -0.8695
17460TIP3   OH273794   1.102   4.378   1.584 -0.2647  0.0772  0.0436
17460TIP3    H173795   1.181   4.332   1.555 -1.0618 -2.0825  1.0297
17460TIP3    H273796   1.081   4.338   1.669 -3.3019 -0.6714 -0.9224
17461TIP3   OH273797   5.224   4.894  10.865  0.2231  0.1247 -0.2953
17461TIP3    H173798   5.214   4.831  10.794  1.9047 -0.6177  0.0783
17461TIP3    H273799   5.153   4.873  10.926  2.3465 -3.4754  1.2620
17462TIP3   OH273800   4.332   5.247  15.149  0.2929 -0.2469 -0.3285
17462TIP3    H173801   4.363   5.238  15.059  0.0976 -0.8684 -0.3403
17462TIP3    H273802   4.399   5.202  15.201 -0.5655 -1.5981 -0.3546
17463TIP3   OH273803   3.826   0.852   2.156 -0.3861 -0.0249  0.0461
17463TIP3    H173804   3.832   0.765   2.195  0.5112  0.1775  0.3796
17463TIP3    H273805   3.876   0.909   2.215  1.5041  0.1928 -1.6375
17464TIP3   OH273806   0.298   5.211  14.952 -0.1515  0.3105 -0.5368
17464TIP3    H173807   0.326   5.146  14.888 -0.5846  0.6700 -1.1056
17464TIP3    H273808   0.378   5.238  14.996  0.1471  0.0265 -0.9000
17465TIP3   OH273809   1.478   2.394   2.839  0.4550 -0.5413  0.3935
17465TIP3    H173810   1.415   2.465   2.846 -0.9020 -1.5249 -1.1788
17465TIP3    H273811   1.468   2.361   2.750  4.3958  0.3311 -0.5961
17466TIP3   OH273812   1.379   5.340   2.156 -0.0779 -0.3230  0.0832
17466TIP3    H173813   1.297   5.389   2.142  0.6531  1.0430  0.3880
17466TIP3    H273814   1.396   5.349   2.250  1.4913  1.2355 -0.2992
17467TIP3   OH273815   3.058   3.774  15.968 -0.2005  0.1506  0.2448
17467TIP3    H173816   2.978   3.728  15.993 -0.5111  1.4766  1.9316
17467TIP3    H273817   3.129   3.718  15.998 -0.4649 -0.9266 -1.0603
17468TIP3   OH273818   3.473   5.554  16.015  0.3046  0.1675 -0.1513
17468TIP3    H173819   3.442   5.530  15.927 -2.2300  0.0630  0.6976
17468TIP3    H273820   3.453   5.647  16.022 -0.7069 -0.1092  0.7700
17469TIP3   OH273821   0.378   5.843  16.509 -0.0574  0.6898 -0.5228
17469TIP3    H173822   0.391   5.810  16.598 -1.3082  2.2833  0.3164
17469TIP3    H273823   0.445   5.911  16.500  1.8432 -1.2383 -1.8609
17470TIP3   OH273824   5.180   3.695   4.395 -0.4474  0.4238 -0.0619
17470TIP3    H173825   5.214   3.769   4.447 -0.3548  1.1543 -1.1319
17470TIP3    H273826   5.188   3.620   4.453 -0.7374  1.2853  1.1486
17471TIP3   OH273827   6.613   4.688  13.906  0.5625 -0.5937  0.3052
17471TIP3    H173828   6.647   4.747  13.973  0.4476  0.0198 -0.1730
17471TIP3    H273829   6.668   4.610  13.912  0.8384 -0.3601  0.8069
17472TIP3   OH273830   0.361   4.056   2.128  0.1371  0.0224  0.3425
17472TIP3    H173831   0.333   4.146   2.146 -1.1405 -0.0790 -0.9286
17472TIP3    H273832   0.280   4.011   2.103  0.7856 -1.4499  0.7988
17473TIP3   OH273833   5.810   5.667   2.093 -0.0905 -0.4193 -0.4172
17473TIP3    H173834   5.896   5.693   2.059  0.5417 -0.9528  0.7147
17473TIP3    H273835   5.817   5.572   2.106 -0.9478 -0.5093 -0.5798
17474TIP3   OH273836   1.951   0.353  15.618 -0.5993 -0.3997 -0.2968
17474TIP3    H173837   1.960   0.439  15.578 -2.0146  1.2505  2.6752
17474TIP3    H273838   1.870   0.317  15.581 -0.5099 -0.0810 -0.8185
17475TIP3   OH273839   3.981   4.466   6.675 -0.1916  0.1538 -0.4314
17475TIP3    H173840   3.930   4.417   6.740 -0.0022  0.8291  0.2390
17475TIP3    H273841   3.915   4.500   6.614 -0.4428  0.1434 -0.1691
17476TIP3   OH273842   6.467   4.498   4.536 -0.4809 -0.5627 -0.6977
17476TIP3    H173843   6.459   4.404   4.551 -0.4422 -0.6541 -1.2335
17476TIP3    H273844   6.408   4.538   4.599 -2.1888 -1.0352 -1.9234
17477TIP3   OH273845   2.937   0.169  16.374  0.0522  0.2495  0.5692
17477TIP3    H173846   2.984   0.117  16.439  0.5160 -1.3448 -0.9527
17477TIP3    H273847   3.007   0.210  16.323 -0.1900 -0.8975 -0.7390
17478TIP3   OH273848   0.692   0.489  13.408  0.1287  0.8239 -0.1607
17478TIP3    H173849   0.695   0.453  13.319  1.6072 -2.0882  0.9295
17478TIP3    H273850   0.777   0.533  13.419  0.0654  0.9297 -0.0934
17479TIP3   OH273851   1.939   1.633  13.765 -0.1100 -0.1523 -0.1030
17479TIP3    H173852   1.943   1.630  13.860 -1.9219 -3.1206  0.0101
17479TIP3    H273853   2.007   1.696  13.740  0.7516  0.3721  3.0714
17480TIP3   OH273854   5.277   4.380  12.452  0.4658 -0.3222  0.3211
17480TIP3    H173855   5.275   4.299  12.401  0.9600 -0.5285  0.6199
17480TIP3    H273856   5.369   4.389  12.478  1.1072  2.0129 -2.3844
17481TIP3   OH273857   4.426   5.915  14.126  0.4245  0.1322 -0.6518
17481TIP3    H173858   4.498   5.909  14.064 -1.0974  1.6148 -2.7018
17481TIP3    H273859   4.350   5.882  14.077 -0.7809  1.0925  0.5110
17482TIP3   OH273860   5.874   4.761   6.935  0.6176 -0.3122  0.1277
17482TIP3    H173861   5.892   4.677   6.893  2.1307 -1.3106  2.5626
17482TIP3    H273862   5.948   4.817   6.910  0.8725 -0.4954  0.4774
17483TIP3   OH273863   1.956   2.305  11.716 -0.3031  0.0163 -0.5718
17483TIP3    H173864   1.991   2.256  11.790  0.7549  1.6521  0.0695
17483TIP3    H273865   2.004   2.273  11.640 -0.7783 -1.0624 -0.4284
17484TIP3   OH273866   6.712   6.524  12.347  0.4768  0.4114 -0.5969
17484TIP3    H173867   6.698   6.449  12.405 -0.6353  0.8423 -0.2703
17484TIP3    H273868   6.795   6.562  12.376 -0.0794  0.6492  0.7648
17485TIP3   OH273869   0.485   5.065  13.958 -0.0056  0.1290  0.1069
17485TIP3    H173870   0.451   4.988  13.911 -0.5490 -0.5795  1.5980
17485TIP3    H273871   0.571   5.038  13.989 -1.1002 -0.8595  2.6598
17486TIP3   OH273872   3.983   1.520   0.544 -0.2110  0.1893  0.0135
17486TIP3    H173873   4.005   1.609   0.571  0.5634  0.1875 -0.5737
17486TIP3    H273874   3.963   1.474   0.625 -0.5535  0.8718  0.3305
17487TIP3   OH273875   5.803   6.307  12.406  0.0702  0.2804 -0.0374
17487TIP3    H173876   5.758   6.378  12.453  1.5136  0.8599  0.5390
17487TIP3    H273877   5.834   6.249  12.476 -0.5338 -0.5810 -0.4747
17488TIP3   OH273878   0.212   6.610   0.629  0.4972  0.0428  0.1511
17488TIP3    H173879   0.295   6.567   0.649  0.5170 -0.0439 -0.1146
17488TIP3    H273880   0.226   6.651   0.543  0.7458  1.2417  0.7310
17489TIP3   OH273881   5.080   4.212   1.219 -0.5056 -0.2345 -0.2540
17489TIP3    H173882   5.057   4.295   1.178  2.4829 -0.4472 -2.7447
17489TIP3    H273883   5.010   4.152   1.192 -0.6638  0.5985 -1.8237
17490TIP3   OH273884   2.473   3.355  11.198 -0.1495 -0.0129 -0.0636
17490TIP3    H173885   2.470   3.420  11.128 -0.5448  0.8632  0.7447
17490TIP3    H273886   2.406   3.291  11.174  0.0230  0.0426 -0.7076
17491TIP3   OH273887   3.832   6.004   3.668 -0.6024 -0.0943 -0.1175
17491TIP3    H173888   3.880   5.928   3.636 -1.9104 -0.9808 -0.0202
17491TIP3    H273889   3.802   5.979   3.755 -2.0487  0.0609 -0.5470
17492TIP3   OH273890   4.052   4.208  14.381  0.8984 -0.2548 -0.1461
17492TIP3    H173891   4.009   4.180  14.462 -0.7401  1.7230 -0.2567
17492TIP3    H273892   3.984   4.201  14.314  1.4083  0.7922 -0.7980
17493TIP3   OH273893   2.447   0.987   1.468  0.1075 -0.0373  0.3756
17493TIP3    H173894   2.512   0.944   1.411  1.0061  1.2428  0.4029
17493TIP3    H273895   2.486   0.983   1.556  0.3320  1.0353  0.3392
17494TIP3   OH273896   0.592   4.549  16.733 -0.1173 -0.8954  0.2761
17494TIP3    H173897   0.522   4.565  16.797 -1.1469  0.9009 -1.1840
17494TIP3    H273898   0.570   4.606  16.660  1.8622 -1.7431 -1.0517
17495TIP3   OH273899   0.597   0.944  12.139 -0.0604  0.1612  0.6642
17495TIP3    H173900   0.509   0.975  12.121  0.3236  1.6718  1.2610
17495TIP3    H273901   0.648   1.023  12.155  1.6255 -0.6135 -0.5662
17496TIP3   OH273902   3.417   5.675   3.298  0.0162 -0.1913  1.1192
17496TIP3    H173903   3.369   5.624   3.362  0.6267 -0.5999  1.2580
17496TIP3    H273904   3.405   5.628   3.215  2.2188 -1.7278  1.5924
17497TIP3   OH273905   4.939   4.546   0.625  0.1446 -0.5418 -0.4319
17497TIP3    H173906   5.022   4.553   0.578  1.0323 -1.4012  0.9425
17497TIP3    H273907   4.921   4.452   0.628 -0.2805 -0.4447  0.3005
17498TIP3   OH273908   1.560   5.242   0.657  0.1568 -0.1321 -0.3380
17498TIP3    H173909   1.568   5.337   0.669  2.4687 -0.2908 -0.0419
17498TIP3    H273910   1.468   5.223   0.671 -0.3343  2.0560 -0.2660
17499TIP3   OH273911   0.494   1.966   4.215  0.5530 -0.6620 -0.3005
17499TIP3    H173912   0.533   1.913   4.285  0.6429  0.2126  0.3315
17499TIP3    H273913   0.458   1.902   4.154  1.3128 -1.4630  0.0617
17500TIP3   OH273914   5.091   5.689  16.065  0.6030 -0.3025  0.2004
17500TIP3    H173915   5.120   5.618  16.122  2.8249  0.0010 -0.4236
17500TIP3    H273916   5.122   5.663  15.978 -1.6236 -0.1720 -0.6849
17501TIP3   OH273917   3.044   3.834   0.504 -0.3132  0.3229  0.6468
17501TIP3    H173918   3.035   3.769   0.574  0.9884 -0.0992  0.4534
17501TIP3    H273919   3.137   3.834   0.484 -0.3179  2.1234  0.5003
17502TIP3   OH273920   4.934   0.451  10.582 -0.3834  0.0503  0.0376
17502TIP3    H173921   4.897   0.367  10.610  1.8175 -1.7008 -1.9387
17502TIP3    H273922   4.858   0.507  10.569 -1.9831 -1.8110  0.8509
17503TIP3   OH273923   1.425   2.886  13.766 -0.0773  0.1876 -0.2139
17503TIP3    H173924   1.397   2.863  13.854 -0.4420  2.0627  0.2093
17503TIP3    H273925   1.398   2.977  13.755  1.1423  0.4110 -1.7710
17504TIP3   OH273926   4.072   4.854  16.469 -0.4173  0.6511  0.1477
17504TIP3    H173927   3.996   4.891  16.514  0.5215  1.0187  1.4958
17504TIP3    H273928   4.065   4.759  16.482 -0.1806  0.7510  1.0720
17505TIP3   OH273929   5.343   3.489  13.019 -0.0314  0.1400  0.1506
17505TIP3    H173930   5.272   3.534  13.063 -1.3650 -1.0794 -0.6738
17505TIP3    H273931   5.389   3.442  13.088 -0.0660  0.8688  0.6740
17506TIP3   OH273932   3.558   2.865  16.076 -0.4149 -0.0797  1.0391
17506TIP3    H173933   3.541   2.836  15.987 -0.3160  0.4260  0.8526
17506TIP3    H273934   3.502   2.809  16.131  0.0643 -0.8781  0.7227
17507TIP3   OH273935   3.656   5.521   1.221  0.3436 -0.0077 -0.2224
17507TIP3    H173936   3.570   5.554   1.193 -0.1361 -0.1210  1.0579
17507TIP3    H273937   3.713   5.537   1.146 -0.7852  0.1073 -1.0877
17508TIP3   OH273938   4.727   2.193   5.939 -0.1426  0.3739  0.1151
17508TIP3    H173939   4.764   2.201   5.851  0.7316 -0.1679  0.4259
17508TIP3    H273940   4.702   2.101   5.947  1.6341 -0.0762  1.1248
17509TIP3   OH273941   3.826   5.755   1.506  0.3044  0.2618  0.2068
17509TIP3    H173942   3.758   5.787   1.567 -3.6629 -1.2981 -2.9507
17509TIP3    H273943   3.843   5.830   1.449  1.7167  0.7907  1.2667
17510TIP3   OH273944   4.850   1.660  12.879 -0.1851 -0.1384 -0.3547
17510TIP3    H173945   4.889   1.722  12.941 -0.8583  2.2563 -2.1398
17510TIP3    H273946   4.761   1.646  12.912 -1.3738  2.9649 -1.7518
17511TIP3   OH273947   0.760   6.131  14.726  0.1774  0.7763 -0.2636
17511TIP3    H173948   0.793   6.046  14.697 -0.8134  0.0937  0.5274
17511TIP3    H273949   0.825   6.161  14.790 -0.7045 -0.5951  1.3589
17512TIP3   OH273950   2.670   3.735  16.138  0.1866 -0.1876  0.0220
17512TIP3    H173951   2.597   3.751  16.077  0.8400  1.7510 -0.3306
17512TIP3    H273952   2.636   3.670  16.200 -0.5714 -2.1376 -2.2690
17513TIP3   OH273953   4.282   1.287   2.045 -0.6221 -0.1020 -0.2365
17513TIP3    H173954   4.296   1.378   2.020 -2.5410  0.1486 -0.5513
17513TIP3    H273955   4.190   1.283   2.071 -0.5712 -1.9431 -0.2004
17514TIP3   OH273956   4.345   4.181   6.136 -0.2036 -0.5200 -0.2643
17514TIP3    H173957   4.307   4.242   6.073 -0.5690 -0.3476  0.1122
17514TIP3    H273958   4.269   4.135   6.173  0.0045 -0.6013  0.0635
17515TIP3   OH273959   1.320   1.298  13.641  0.0680  0.6003  0.1820
17515TIP3    H173960   1.373   1.306  13.561  0.6405  0.6035  0.5577
17515TIP3    H273961   1.379   1.324  13.712 -0.2094 -0.1131  0.6851
17516TIP3   OH273962   4.900   3.636   5.446  0.6036 -0.2685 -0.4169
17516TIP3    H173963   4.905   3.666   5.537  0.5033 -0.7364 -0.2539
17516TIP3    H273964   4.826   3.684   5.409 -0.3102 -1.1731  0.1779
17517TIP3   OH273965   3.613   4.768   2.582 -0.5984  0.4705  0.1383
17517TIP3    H173966   3.548   4.730   2.641 -0.8235  0.1406 -0.3186
17517TIP3    H273967   3.695   4.768   2.632 -1.1335  1.7749  1.0771
17518TIP3   OH273968   0.728   6.074  12.414  0.1449 -0.2203 -0.2394
17518TIP3    H173969   0.637   6.043  12.416  0.0514 -0.0350 -1.1967
17518TIP3    H273970   0.776   6.001  12.375  0.8690 -1.3700  2.5562
17519TIP3   OH273971   6.252   3.161   4.581  0.1743  0.1310  0.2754
17519TIP3    H173972   6.240   3.218   4.506 -0.0363  0.6860  0.7208
17519TIP3    H273973   6.187   3.091   4.569 -1.6057  1.5444  1.1720
17520TIP3   OH273974   1.465   6.182   2.619  0.7356 -0.2724  0.0155
17520TIP3    H173975   1.451   6.183   2.524  0.5432 -0.5532  0.0420
17520TIP3    H273976   1.384   6.217   2.656  0.3898 -1.1795  0.1292
17521TIP3   OH273977   1.582   4.565  11.058 -0.5329 -0.2243  0.4312
17521TIP3    H173978   1.587   4.482  11.106  1.2743 -1.1857 -1.2740
17521TIP3    H273979   1.488   4.581  11.048 -0.9690 -0.6801  2.9695
17522TIP3   OH273980   0.778   2.063  15.765  0.1768  0.5590  0.3456
17522TIP3    H173981   0.790   2.139  15.708 -0.4601  2.0543  2.0810
17522TIP3    H273982   0.686   2.065  15.789 -0.0702 -1.3746 -0.3394
17523TIP3   OH273983   3.997   2.582  16.215 -0.2619 -0.0654  0.1990
17523TIP3    H173984   4.050   2.532  16.154 -0.0539  1.1793 -0.6800
17523TIP3    H273985   4.048   2.581  16.296 -0.3541 -1.4029  0.2657
17524TIP3   OH273986   4.423   3.113   6.556  0.1597 -0.1409  0.2922
17524TIP3    H173987   4.400   3.170   6.629 -0.9794 -2.6205  2.0183
17524TIP3    H273988   4.447   3.030   6.598 -2.6487 -2.3881 -2.1551
17525TIP3   OH273989   2.749   4.480   2.195 -0.1953  0.2511 -0.0318
17525TIP3    H173990   2.665   4.436   2.206 -0.7862  1.0025 -1.3002
17525TIP3    H273991   2.802   4.419   2.144  0.3468 -0.5665  1.4472
17526TIP3   OH273992   1.368   3.980  12.070  0.2869  0.2843 -0.1661
17526TIP3    H173993   1.346   3.925  12.145 -1.1671  0.5572 -0.3617
17526TIP3    H273994   1.349   4.070  12.100  1.2057  0.5413 -0.3413
17527TIP3   OH273995   4.093   4.090   6.254  0.1018  0.3594 -0.2191
17527TIP3    H173996   4.072   4.111   6.345  2.9042 -0.1109  0.6280
17527TIP3    H273997   4.061   4.001   6.242  0.6435  0.0388  0.6522
17528TIP3   OH273998   4.122   2.457   3.145  0.4033 -0.2861  0.2797
17528TIP3    H173999   4.134   2.473   3.238  1.1959 -1.9038  0.4977
17528TIP3    H274000   4.211   2.453   3.109  0.0966  1.2241 -0.7445
17529TIP3   OH274001   0.355   6.215   1.908  0.1886 -0.0711  0.6941
17529TIP3    H174002   0.393   6.230   1.995  0.5749  1.8534  0.2533
17529TIP3    H274003   0.312   6.298   1.886 -1.5004 -1.1273 -0.2089
17530TIP3   OH274004   6.517   3.287   1.543 -0.0199 -0.1932  0.1481
17530TIP3    H174005   6.593   3.231   1.556  0.6934  0.3928 -1.2354
17530TIP3    H274006   6.461   3.271   1.619  0.9276 -1.5234  0.5917
17531TIP3   OH274007   5.394   1.488  12.413 -0.4897  0.2763  1.0255
17531TIP3    H174008   5.464   1.436  12.452  0.3088 -0.4700 -1.2187
17531TIP3    H274009   5.387   1.565  12.469  0.2235 -0.9191  2.8477
17532TIP3   OH274010   3.154   5.151   2.034 -0.2817  0.5503  0.0394
17532TIP3    H174011   3.136   5.057   2.042  0.9558  0.3466  0.5461
17532TIP3    H274012   3.168   5.180   2.124  0.1133  1.0673 -0.1884
17533TIP3   OH274013   3.942   0.726  13.434 -0.0081 -0.2112 -0.3343
17533TIP3    H174014   3.979   0.688  13.354 -0.8353 -1.2608 -0.2427
17533TIP3    H274015   3.950   0.656  13.499 -0.1049  0.3418  0.2832
17534TIP3   OH274016   0.600   3.730   1.051 -0.0287 -0.6220 -0.6519
17534TIP3    H174017   0.653   3.693   0.981 -0.1389 -1.2224 -0.4247
17534TIP3    H274018   0.542   3.659   1.077  1.5483 -1.1936  1.6111
17535TIP3   OH274019   4.292   4.207  12.615  0.2569  0.5527 -0.3483
17535TIP3    H174020   4.314   4.294  12.648 -2.8603  1.7764 -1.1765
17535TIP3    H274021   4.201   4.214  12.586  0.3014 -2.6368 -1.7043
17536TIP3   OH274022   4.684   1.659  10.667 -0.0739  0.2359  1.0140
17536TIP3    H174023   4.640   1.616  10.594  1.2047 -0.7253  0.7668
17536TIP3    H274024   4.622   1.725  10.698 -0.3603  1.2023 -1.4143
17537TIP3   OH274025   0.969   3.571   3.128 -0.3401 -0.3665  0.1473
17537TIP3    H174026   0.958   3.665   3.145  0.0132 -0.2424 -0.3025
17537TIP3    H274027   0.903   3.529   3.184 -1.2343  0.2145 -0.4334
17538TIP3   OH274028   4.722   4.913   3.837 -0.1620 -0.0398 -0.1461
17538TIP3    H174029   4.698   4.976   3.906  2.4655 -0.4060  1.2442
17538TIP3    H274030   4.675   4.833   3.860  0.2254  0.0197  0.9250
17539TIP3   OH274031   4.839   5.194   6.652  0.1730  0.0606  0.3049
17539TIP3    H174032   4.835   5.289   6.667  1.2721  0.3789 -1.1775
17539TIP3    H274033   4.778   5.178   6.580  2.6716  0.3038 -2.0261
17540TIP3   OH274034   2.548   3.440   4.319 -0.5548  0.0562  0.3140
17540TIP3    H174035   2.604   3.426   4.242 -0.7577 -0.4153  0.2449
17540TIP3    H274036   2.592   3.391   4.389 -1.0015 -0.5263  0.1984
17541TIP3   OH274037   6.594   1.022  14.643  0.6451  0.9378 -0.1027
17541TIP3    H174038   6.550   0.964  14.705 -0.6464  0.3283 -1.5291
17541TIP3    H274039   6.643   0.963  14.585  1.8353  1.4939  0.3020
17542TIP3   OH274040   1.489   2.432  15.092  0.7610  0.4192 -0.1319
17542TIP3    H174041   1.522   2.355  15.045  3.0549  1.7290 -0.8266
17542TIP3    H274042   1.401   2.407  15.120  1.0726 -2.1017 -1.1262
17543TIP3   OH274043   3.192   0.767   1.504  0.2155 -0.2245  0.2043
17543TIP3    H174044   3.155   0.853   1.522  2.3916  0.2755  2.8704
17543TIP3    H274045   3.231   0.776   1.417 -0.3659  1.1699  0.0588
17544TIP3   OH274046   3.013   2.837   3.985  0.3180  0.4782  0.5112
17544TIP3    H174047   3.083   2.894   4.017  1.8107 -1.4835  0.9199
17544TIP3    H274048   2.992   2.780   4.059  0.0213 -0.5768 -0.3535
17545TIP3   OH274049   0.181   3.124   0.859 -0.5165  0.4849 -0.5906
17545TIP3    H174050   0.207   3.066   0.931  1.2055  1.2325 -0.5664
17545TIP3    H274051   0.110   3.076   0.814 -0.7884 -0.5343  0.8514
17546TIP3   OH274052   2.977   1.029  10.862  0.4218  0.4781 -0.0998
17546TIP3    H174053   2.889   1.062  10.842 -0.4419 -0.3014  2.0851
17546TIP3    H274054   2.970   0.934  10.851  0.3124  0.1721  2.1693
17547TIP3   OH274055   3.084   6.061  15.441  1.2063 -0.0810  0.1549
17547TIP3    H174056   3.082   6.124  15.369  1.3200 -1.7295 -1.3489
17547TIP3    H274057   3.171   6.022  15.436  1.1278 -0.3954  1.0442
17548TIP3   OH274058   1.818   3.611  15.748  0.1457  0.3522  0.7463
17548TIP3    H174059   1.911   3.630  15.761 -0.0800  0.9332  1.6574
17548TIP3    H274060   1.812   3.516  15.752  0.7537  0.2890  0.2563
17549TIP3   OH274061   3.418   5.592  15.021 -0.8234 -0.3384  0.1499
17549TIP3    H174062   3.465   5.548  14.949  1.7971  0.2879  1.3333
17549TIP3    H274063   3.411   5.525  15.089  1.3443  0.3817  1.1769
17550TIP3   OH274064   2.615   1.391   5.600 -0.4233 -0.0965  0.0125
17550TIP3    H174065   2.593   1.389   5.693 -0.0361 -1.1653  0.1020
17550TIP3    H274066   2.710   1.404   5.598  0.1164 -3.2214 -0.0698
17551TIP3   OH274067   2.769   2.066   1.090 -0.1202  0.1605  0.3636
17551TIP3    H174068   2.822   2.145   1.084  0.3829 -0.2080 -0.2197
17551TIP3    H274069   2.832   1.994   1.082 -0.4580 -0.3204  1.7511
17552TIP3   OH274070   1.832   5.974   5.201  0.0193 -0.0233  0.0149
17552TIP3    H174071   1.760   6.018   5.157  0.7225 -0.5309 -1.7111
17552TIP3    H274072   1.792   5.899   5.244 -1.0048  1.5829  2.0482
17553TIP3   OH274073   0.712   4.300   1.952  0.3633 -0.3333 -0.6965
17553TIP3    H174074   0.714   4.214   1.995  0.0916 -0.2370 -0.4878
17553TIP3    H274075   0.690   4.361   2.022 -1.4005 -0.3325 -1.2109
17554TIP3   OH274076   5.582   5.232  16.116 -0.1133 -0.0302  0.2474
17554TIP3    H174077   5.550   5.305  16.063 -2.4079 -1.1628 -0.0778
17554TIP3    H274078   5.512   5.218  16.181  1.3745 -0.4372  1.8357
17555TIP3   OH274079   1.473   1.872  14.262  0.3129  0.3464  0.4373
17555TIP3    H174080   1.397   1.815  14.267 -0.6551  1.6457  1.1708
17555TIP3    H274081   1.548   1.813  14.263 -0.6021 -0.8757  2.3784
17556TIP3   OH274082   6.751   0.610  12.880  0.1643 -0.0520 -0.2938
17556TIP3    H174083   6.716   0.649  12.800 -0.5079  0.5001  0.2663
17556TIP3    H274084   6.784   0.524  12.852 -2.8413 -1.2078 -0.6155
17557TIP3   OH274085   2.826   0.491   3.837  0.6474  0.5897  0.2975
17557TIP3    H174086   2.877   0.566   3.806  0.3355  1.2929  1.4400
17557TIP3    H274087   2.891   0.430   3.871  0.8323  0.8007  0.3261
17558TIP3   OH274088   2.974   4.589  11.198 -0.0212 -0.5700 -0.0765
17558TIP3    H174089   2.880   4.599  11.212  0.3892  0.6548  2.3114
17558TIP3    H274090   3.000   4.667  11.150  0.1085  0.3791  1.4608
17559TIP3   OH274091   1.356   6.051   0.030  0.3098 -0.5750 -0.7280
17559TIP3    H174092   1.441   6.092   0.046 -0.4734  0.0733  2.6943
17559TIP3    H274093   1.363   5.965   0.072 -1.4966  0.6142  2.3213
17560TIP3   OH274094   2.152   4.377   2.477  0.0681 -0.4048  0.1161
17560TIP3    H174095   2.111   4.382   2.391  1.2541 -0.8378 -0.4940
17560TIP3    H274096   2.195   4.462   2.489 -0.8195 -0.0212  0.6720
17561TIP3   OH274097   2.403   3.201  13.543 -0.1996  0.8357 -0.5388
17561TIP3    H174098   2.328   3.141  13.541  0.6580 -0.2715 -0.5053
17561TIP3    H274099   2.455   3.170  13.617  1.0616  0.6264 -1.4861
17562TIP3   OH274100   0.038   2.411  11.501  0.2507  0.2247  0.3117
17562TIP3    H174101   0.055   2.481  11.564 -2.6979  1.5870 -0.2359
17562TIP3    H274102   0.098   2.429  11.429 -0.0725  1.9117  0.4150
17563TIP3   OH274103   3.754   2.910  11.505 -0.0003 -0.1581  0.6508
17563TIP3    H174104   3.762   2.828  11.456 -1.0840 -0.9593  1.7469
17563TIP3    H274105   3.797   2.892  11.589 -0.6863  0.2142  1.0932
17564TIP3   OH274106   2.122   3.416  12.882 -0.2390 -0.3700  0.1403
17564TIP3    H174107   2.188   3.470  12.838  2.9636 -0.2803  4.4380
17564TIP3    H274108   2.039   3.461  12.866  1.5859  3.0199 -0.5654
17565TIP3   OH274109   1.589   6.406   3.222 -0.8021 -0.2464 -0.4395
17565TIP3    H174110   1.587   6.372   3.311 -0.3543 -2.0483 -1.0556
17565TIP3    H274111   1.616   6.331   3.169 -0.0446  1.0407 -1.9743
17566TIP3   OH274112   0.214   0.464  16.629 -0.4484  0.0656 -0.1301
17566TIP3    H174113   0.162   0.535  16.666 -2.1349 -0.7510 -0.8237
17566TIP3    H274114   0.275   0.440  16.698  0.1590  2.1648  0.1159
17567TIP3   OH274115   0.586   0.532   4.388 -0.0912 -0.6131  0.0423
17567TIP3    H174116   0.500   0.490   4.377 -0.5237  0.5212 -1.1754
17567TIP3    H274117   0.608   0.517   4.480 -0.7129 -2.5468 -0.0586
17568TIP3   OH274118   2.732   4.022   3.493  0.1534  0.4027 -0.3843
17568TIP3    H174119   2.821   4.025   3.457  0.1875  0.7269 -0.2851
17568TIP3    H274120   2.684   3.962   3.436  0.5199 -0.0287 -0.2435
17569TIP3   OH274121   5.393   3.776  16.798  0.0569  0.5104 -0.3712
17569TIP3    H174122   5.353   3.715  16.860  0.3548 -0.2509 -0.9124
17569TIP3    H274123   5.414   3.722  16.721 -0.5750  1.4914 -1.2584
17570TIP3   OH274124   0.864   2.230  15.202 -0.0042  0.5510  0.0827
17570TIP3    H174125   0.947   2.224  15.154 -1.3138 -0.2949 -2.1808
17570TIP3    H274126   0.863   2.151  15.257 -0.3149 -0.7223 -1.6641
17571TIP3   OH274127   6.291   0.174   0.231  0.2104 -0.0881 -0.1768
17571TIP3    H174128   6.356   0.228   0.185 -0.1843  0.6087  0.0746
17571TIP3    H274129   6.336   0.145   0.310  0.2111  0.4002  0.0020
17572TIP3   OH274130   1.397   4.646   3.274  0.5121 -0.1058 -0.2340
17572TIP3    H174131   1.381   4.642   3.180  0.0469 -3.1541 -0.1319
17572TIP3    H274132   1.370   4.560   3.306  3.0351 -0.0928  2.2850
17573TIP3   OH274133   5.865   0.074   2.963  0.3714 -0.7722 -0.0715
17573TIP3    H174134   5.774   0.068   2.993 -0.0268  1.5667 -0.6179
17573TIP3    H274135   5.912   0.008   3.015 -0.9558  0.4919  2.9722
17574TIP3   OH274136   2.963   1.526   4.998 -0.5382 -0.0701  0.4894
17574TIP3    H174137   3.004   1.613   4.992 -0.3361 -0.1957  0.0340
17574TIP3    H274138   3.024   1.467   4.954 -1.5124 -0.1480 -0.8272
17575TIP3   OH274139   4.384   4.040   0.162  0.1758 -0.0331  0.3777
17575TIP3    H174140   4.363   4.124   0.122  1.7810  0.5767  0.7516
17575TIP3    H274141   4.359   4.051   0.254 -0.3795 -0.2618  0.2576
17576TIP3   OH274142   4.754   0.584   6.246  0.4485 -0.4641 -0.6878
17576TIP3    H174143   4.745   0.664   6.196 -0.1939 -0.8498 -1.2079
17576TIP3    H274144   4.665   0.561   6.272  0.6125 -1.0427 -0.6017
17577TIP3   OH274145   2.798   1.058   1.306 -0.3045  0.3218 -1.3289
17577TIP3    H174146   2.723   1.109   1.275 -0.0236  1.0374 -0.8667
17577TIP3    H274147   2.760   0.987   1.357 -0.6521  1.4407  0.0243
17578TIP3   OH274148   4.267   4.518   1.232  0.5038 -0.2221 -0.3707
17578TIP3    H174149   4.196   4.526   1.295  0.0982 -1.0172 -0.7135
17578TIP3    H274150   4.291   4.608   1.211  0.4471  0.0524  0.6825
17579TIP3   OH274151   3.858   6.100   2.443 -0.6331 -0.4137 -0.4044
17579TIP3    H174152   3.802   6.081   2.367 -1.5633 -0.1230  0.1956
17579TIP3    H274153   3.797   6.131   2.510  0.2248 -0.3559  0.3556
17580TIP3   OH274154   4.054   5.804   5.330  0.4494  0.1248 -0.5666
17580TIP3    H174155   4.075   5.793   5.237 -0.6574  0.0017 -0.8086
17580TIP3    H274156   3.960   5.790   5.336  0.5780 -0.3854  0.6613
17581TIP3   OH274157   6.319   6.669   4.426 -0.3547  0.3590  0.3109
17581TIP3    H174158   6.346   6.585   4.388  1.0116  1.0176 -0.2264
17581TIP3    H274159   6.269   6.712   4.356 -0.1329  0.4394  0.2003
17582TIP3   OH274160   6.606   4.896  15.433 -0.4004 -0.2430 -0.0632
17582TIP3    H174161   6.653   4.956  15.375 -0.6833 -0.4766 -0.5390
17582TIP3    H274162   6.572   4.828  15.375  0.4024 -1.1938  0.5395
17583TIP3   OH274163   5.936   6.525   5.463  0.0130  0.0260  0.4333
17583TIP3    H174164   5.986   6.552   5.385  1.0242  0.3630  1.1680
17583TIP3    H274165   6.001   6.524   5.533 -0.7560 -0.8835  1.1527
17584TIP3   OH274166   5.036   2.392  16.144  0.3091 -0.1434 -0.2755
17584TIP3    H174167   4.971   2.370  16.210  0.5662 -0.5020 -0.1378
17584TIP3    H274168   5.000   2.468  16.098  0.6301  0.8239  1.0199
17585TIP3   OH274169   5.751   0.650  15.733 -0.0860 -0.1983 -0.0195
17585TIP3    H174170   5.732   0.593  15.659  1.5409  1.7464 -2.1034
17585TIP3    H274171   5.711   0.734  15.709  0.9917  0.6398  1.0076
17586TIP3   OH274172   0.092   5.387  12.594 -0.6087  0.1968 -0.4930
17586TIP3    H174173   0.166   5.399  12.535 -0.4923  1.8207 -0.0727
17586TIP3    H274174   0.120   5.320  12.655  0.5682  0.8510 -0.2918
17587TIP3   OH274175   5.480   0.368  15.146  0.0992 -0.2241 -0.4525
17587TIP3    H174176   5.431   0.394  15.068 -0.8681 -1.8000 -0.4170
17587TIP3    H274177   5.488   0.273  15.139  1.7781 -0.1842  0.3678
17588TIP3   OH274178   1.743   2.054  12.676 -0.1934  0.0193 -0.5662
17588TIP3    H174179   1.690   2.040  12.597 -0.0972 -1.7265 -0.3723
17588TIP3    H274180   1.710   1.989  12.738  0.9430  0.1454  0.1993
17589TIP3   OH274181   3.329   2.003  11.759  0.0535 -0.0432 -0.1493
17589TIP3    H174182   3.307   1.993  11.667  0.7934 -0.0777 -0.3320
17589TIP3    H274183   3.368   1.920  11.784 -1.4681 -0.5540  0.5993
17590TIP3   OH274184   1.378   3.417   1.571 -0.0425  0.4012  0.0011
17590TIP3    H174185   1.311   3.473   1.609 -0.1640 -0.7432  1.5818
17590TIP3    H274186   1.335   3.331   1.562  0.8274 -0.0351 -0.1032
17591TIP3   OH274187   5.829   6.275   5.324 -0.1336  0.0741 -0.0923
17591TIP3    H174188   5.849   6.354   5.374 -0.1066  0.2579 -0.3923
17591TIP3    H274189   5.746   6.294   5.281  0.5518  0.4819 -1.2778
17592TIP3   OH274190   1.584   6.024   0.806 -0.4240  0.5190  0.6140
17592TIP3    H174191   1.497   6.028   0.767  0.0293  2.1875 -0.3412
17592TIP3    H274192   1.572   6.050   0.897 -1.2722 -1.9027  1.2671
17593TIP3   OH274193   2.838   5.435  15.200  0.3906  0.1803 -0.1241
17593TIP3    H174194   2.746   5.462  15.197  0.5825  0.7845 -1.0596
17593TIP3    H274195   2.847   5.374  15.127  0.3943 -1.0269  0.8663
17594TIP3   OH274196   4.693   6.087  16.659  0.2805 -0.5055 -0.1339
17594TIP3    H174197   4.599   6.081  16.637 -0.2429 -2.1659  2.1324
17594TIP3    H274198   4.711   6.004  16.703  2.5884  0.2573  0.4363
17595TIP3   OH274199   4.579   1.063  15.126  0.1945  0.0675  0.3649
17595TIP3    H174200   4.578   1.152  15.159  0.2503 -0.1108  0.8561
17595TIP3    H274201   4.513   1.017  15.179  1.3546 -0.5872  1.2777
17596TIP3   OH274202   5.773   5.895  15.315 -0.0698 -0.5904  0.4645
17596TIP3    H174203   5.693   5.871  15.361 -0.2736 -1.4841 -0.3413
17596TIP3    H274204   5.766   5.990  15.303 -1.3569 -0.7552 -0.2358
17597TIP3   OH274205   3.957   0.904   2.550 -0.1855 -0.1341 -0.2649
17597TIP3    H174206   4.010   0.840   2.597 -1.0150  1.1680  2.7209
17597TIP3    H274207   3.882   0.919   2.607 -0.1547  3.2429 -0.8983
17598TIP3   OH274208   4.141   5.768  13.051  0.4488 -0.4978  0.3482
17598TIP3    H174209   4.196   5.772  12.973  0.0197 -1.2533 -0.0048
17598TIP3    H274210   4.191   5.814  13.119  0.7477  0.3326 -0.4134
17599TIP3   OH274211   4.173   0.556   4.857 -0.3371  0.2202 -0.8569
17599TIP3    H174212   4.237   0.526   4.922  1.2323  1.1840 -1.8685
17599TIP3    H274213   4.106   0.601   4.908  1.0965  1.3877  0.1050
17600TIP3   OH274214   2.867   3.497  14.157  0.0417 -0.4836 -0.0710
17600TIP3    H174215   2.960   3.508  14.139 -0.1385 -0.5437 -1.1062
17600TIP3    H274216   2.852   3.545  14.238  0.5001  1.6190 -1.1478
17601TIP3   OH274217   2.217   1.667  13.049 -0.1287  0.1631 -0.0690
17601TIP3    H174218   2.224   1.573  13.066  1.2853  0.5389  1.8553
17601TIP3    H274219   2.270   1.681  12.970  1.3366 -0.4340  0.7532
17602TIP3   OH274220   1.401   5.706   2.074  0.4860 -0.2757  0.3634
17602TIP3    H174221   1.340   5.663   2.015  1.3675 -2.4292  0.9138
17602TIP3    H274222   1.356   5.786   2.101 -0.0878  0.6250 -2.8573
17603TIP3   OH274223   5.234   4.679  12.828  0.1306  0.1176 -0.1489
17603TIP3    H174224   5.157   4.707  12.877  1.0094 -0.2035  1.5174
17603TIP3    H274225   5.229   4.583  12.829 -0.1752  0.1114 -1.2860
17604TIP3   OH274226   1.107   5.654   2.673  0.0035 -0.2518 -0.5274
17604TIP3    H174227   1.140   5.610   2.751  0.4287  0.9403 -0.0053
17604TIP3    H274228   1.160   5.619   2.602  1.6268  0.7336  0.1318
17605TIP3   OH274229   4.524   2.462  11.778 -0.0290  0.0863  0.0609
17605TIP3    H174230   4.439   2.421  11.764  0.5639 -1.9697  1.9172
17605TIP3    H274231   4.562   2.469  11.690 -1.2001 -1.1042 -0.5774
17606TIP3   OH274232   6.439   2.854  14.568  0.2407 -0.1707  0.8331
17606TIP3    H174233   6.431   2.848  14.473  1.7348  3.8718  0.2411
17606TIP3    H274234   6.527   2.822  14.587  0.8026  1.1391  0.4988
17607TIP3   OH274235   3.204   3.321  12.271 -0.4570 -0.1556  0.5594
17607TIP3    H174236   3.251   3.284  12.346 -1.5441  0.3427  1.5196
17607TIP3    H274237   3.111   3.315  12.296 -0.9133 -0.7808 -1.1151
17608TIP3   OH274238   2.308   1.931  16.272 -0.2215  0.2826  0.9759
17608TIP3    H174239   2.365   1.956  16.199 -1.7204  0.8809 -0.0372
17608TIP3    H274240   2.321   1.836  16.281 -0.3227  0.1252 -0.3635
17609TIP3   OH274241   0.067   4.843  13.677  0.7264 -0.1673 -0.0888
17609TIP3    H174242   0.011   4.772  13.647 -0.5490  1.2628 -1.2692
17609TIP3    H274243   0.039   4.859  13.767  0.0560 -0.2577 -0.2755
17610TIP3   OH274244   4.923   0.530  17.007 -0.0085  0.4169 -0.2727
17610TIP3    H174245   4.912   0.595  17.076  0.7556  0.7998 -0.4930
17610TIP3    H274246   4.887   0.572  16.929 -1.7944 -0.4034  0.0719
17611TIP3   OH274247   0.410   3.707   2.250 -0.1122 -0.1389  0.1823
17611TIP3    H174248   0.465   3.784   2.269 -1.3323  0.9711 -0.5684
17611TIP3    H274249   0.466   3.632   2.269  1.3385  0.9395  0.3638
17612TIP3   OH274250   6.698   1.786   0.439  0.3780 -0.3865  0.3116
17612TIP3    H174251   6.706   1.691   0.441  1.5997 -0.3000  0.2086
17612TIP3    H274252   6.760   1.817   0.505 -1.0434  0.3071  1.3728
17613TIP3   OH274253   1.028   2.565  11.645  0.5071  0.4178  0.1295
17613TIP3    H174254   1.020   2.471  11.654 -1.9454  0.6582  1.3698
17613TIP3    H274255   1.072   2.578  11.561 -1.6736 -1.7975 -1.4707
17614TIP3   OH274256   0.958   3.367  11.542  0.1921 -0.2483  0.5407
17614TIP3    H174257   0.920   3.448  11.576 -0.0459  0.3334 -1.0087
17614TIP3    H274258   0.905   3.346  11.465  2.2058 -0.0868 -0.9876
17615TIP3   OH274259   3.258   4.969   2.854  0.2686 -0.0145 -0.1111
17615TIP3    H174260   3.240   4.882   2.892  1.0988 -1.1787 -2.2261
17615TIP3    H274261   3.354   4.975   2.853  0.2172  0.8809 -0.1303
17616TIP3   OH274262   3.263   2.350  16.163 -0.3309 -0.3536  0.5841
17616TIP3    H174263   3.329   2.411  16.129  0.5819 -1.7881 -0.3183
17616TIP3    H274264   3.246   2.291  16.090 -0.1587 -2.0272  1.8484
17617TIP3   OH274265   0.962   1.094   2.199 -0.5127  0.4820  0.8000
17617TIP3    H174266   1.000   1.088   2.286 -0.7602 -0.0992  0.8731
17617TIP3    H274267   0.944   1.004   2.174  0.3959  0.5658 -0.2390
17618TIP3   OH274268   2.205   5.573   6.060 -0.9048 -0.1506  0.6406
17618TIP3    H174269   2.194   5.548   6.152  1.1598  0.6832  1.1640
17618TIP3    H274270   2.251   5.657   6.063  1.0154 -1.0499 -1.1447
17619TIP3   OH274271   4.980   1.639  14.380  0.2960  0.3790  0.3129
17619TIP3    H174272   5.048   1.643  14.313 -0.1034  1.3475 -0.0487
17619TIP3    H274273   4.961   1.731  14.400 -2.0258  0.1892 -0.7209
17620TIP3   OH274274   0.231   3.169   3.076  0.1888 -0.2245 -0.2842
17620TIP3    H174275   0.258   3.078   3.087 -0.2104 -0.1344  1.7836
17620TIP3    H274276   0.311   3.214   3.051  0.7887 -0.8749  0.3946
17621TIP3   OH274277   0.618   2.253   3.469 -0.2847 -0.2716  0.2672
17621TIP3    H174278   0.573   2.277   3.388 -0.3478 -1.8797 -0.2232
17621TIP3    H274279   0.707   2.230   3.441  0.9901  2.9433  1.2343
17622TIP3   OH274280   0.601   0.823   0.767 -0.0030 -0.2013  0.1880
17622TIP3    H174281   0.582   0.821   0.674  0.1054 -0.9732  0.1778
17622TIP3    H274282   0.630   0.735   0.788  1.4176  0.3447  0.6562
17623TIP3   OH274283   4.214   5.595  12.107  0.5905 -0.3713  0.0168
17623TIP3    H174284   4.296   5.546  12.110  0.2826 -1.1057 -2.1379
17623TIP3    H274285   4.240   5.687  12.101  1.1879 -0.3843  1.7538
17624TIP3   OH274286   6.594   0.544  13.081 -0.3823  0.0277 -0.0999
17624TIP3    H174287   6.655   0.557  13.009  1.1190 -0.9900  0.9220
17624TIP3    H274288   6.548   0.628  13.089 -1.5319 -0.2369 -3.0116
17625TIP3   OH274289   1.356   6.289  16.852  0.0312 -0.0601  0.2227
17625TIP3    H174290   1.449   6.311  16.846  0.0289 -0.1680 -0.2486
17625TIP3    H274291   1.314   6.370  16.877  0.2713 -0.0434  0.5719
17626TIP3   OH274292   4.292   0.832   5.432 -0.5682  0.3988  0.1865
17626TIP3    H174293   4.299   0.783   5.350 -1.6021  0.8163 -0.1627
17626TIP3    H274294   4.336   0.776   5.497 -3.2389 -1.8912  0.2057
17627TIP3   OH274295   5.635   5.034  13.868 -0.2353  0.1932 -0.0681
17627TIP3    H174296   5.681   5.104  13.821  0.0134  0.4271  0.5127
17627TIP3    H274297   5.619   5.071  13.955 -3.6530  1.0838 -0.9043
17628TIP3   OH274298   4.590   4.549   5.431 -0.5445  0.6313  0.2739
17628TIP3    H174299   4.594   4.579   5.521  2.7259 -0.8275  0.7433
17628TIP3    H274300   4.670   4.584   5.390  0.4345 -2.3925 -0.7131
17629TIP3   OH274301   2.133   0.909  14.245 -0.0645  0.3701  0.1041
17629TIP3    H174302   2.145   0.984  14.303  0.0444 -0.4492  1.1742
17629TIP3    H274303   2.193   0.842  14.279 -0.7767 -0.4980 -0.2951
17630TIP3   OH274304   1.100   0.159  11.049  0.1486  0.8109 -0.0704
17630TIP3    H174305   1.011   0.148  11.015 -0.0822 -0.5410  0.8899
17630TIP3    H274306   1.089   0.193  11.138  0.5499  0.0637  0.2795
17631TIP3   OH274307   5.880   1.360  14.050 -0.0270  0.5567 -0.3412
17631TIP3    H174308   5.922   1.446  14.049 -0.0158  0.5513 -0.3319
17631TIP3    H274309   5.857   1.346  14.142  1.0704  0.0083 -0.1327
17632TIP3   OH274310   2.335   6.538   3.569  0.6971  0.0127 -0.2699
17632TIP3    H174311   2.421   6.525   3.610  0.6557  0.5730 -0.0004
17632TIP3    H274312   2.272   6.512   3.636  0.6244  1.1174  0.1118
17633TIP3   OH274313   4.130   3.057   2.953  0.2406 -0.4118 -0.6900
17633TIP3    H174314   4.219   3.031   2.976  0.7258  1.1993 -0.6243
17633TIP3    H274315   4.099   3.106   3.029  0.0262  0.6745 -1.4472
17634TIP3   OH274316   0.574   4.903  15.471 -0.2558 -0.0457 -0.1178
17634TIP3    H174317   0.508   4.966  15.443 -0.9165 -0.2747  0.8675
17634TIP3    H274318   0.533   4.855  15.543  1.7042  1.3104  2.1003
17635TIP3   OH274319   0.514   5.663   4.667 -0.0227  0.1116 -0.1964
17635TIP3    H174320   0.423   5.658   4.695 -0.1230 -0.5174 -0.6054
17635TIP3    H274321   0.562   5.686   4.747 -0.6659  1.7475 -0.2608
17636TIP3   OH274322   2.304   2.367   1.139  0.5058 -0.5222 -0.6605
17636TIP3    H174323   2.291   2.407   1.053 -0.8111  1.6594  0.4744
17636TIP3    H274324   2.243   2.294   1.141 -1.6874  1.1995 -0.5753
17637TIP3   OH274325   1.519   2.579   2.467  0.2603 -0.3466  0.0180
17637TIP3    H174326   1.567   2.659   2.488  1.0960 -0.6000 -0.8762
17637TIP3    H274327   1.441   2.610   2.421  0.8800 -0.0700 -0.8653
17638TIP3   OH274328   5.303   3.117   3.216  0.2217 -0.1154  0.3106
17638TIP3    H174329   5.355   3.118   3.296 -1.2129  0.7786  1.2739
17638TIP3    H274330   5.270   3.028   3.209 -1.3106  0.2898  1.8694
17639TIP3   OH274331   0.983   6.345   1.092  0.1979 -0.1102  0.0582
17639TIP3    H174332   1.047   6.275   1.104  1.3578  1.0216  0.7176
17639TIP3    H274333   1.012   6.390   1.012  1.8162  1.9524  1.6838
17640TIP3   OH274334   5.385   0.502  15.375  0.4044 -0.7281  0.3454
17640TIP3    H174335   5.437   0.461  15.306  0.2805  0.3322 -0.4021
17640TIP3    H274336   5.357   0.586  15.338 -0.3553 -0.4953  1.3842
17641TIP3   OH274337   4.128   3.415   4.612  0.1371 -0.0057 -0.0907
17641TIP3    H174338   4.181   3.468   4.672 -0.4423  0.2264  0.2129
17641TIP3    H274339   4.090   3.479   4.551  0.3106 -0.1881 -0.3946
17642TIP3   OH274340   6.554   5.171   2.146 -0.2207  0.2343  0.5333
17642TIP3    H174341   6.544   5.076   2.150 -0.7877  0.2909  0.4862
17642TIP3    H274342   6.635   5.188   2.194  1.4078 -0.5029 -1.7850
17643TIP3   OH274343   3.180   3.699  13.407 -0.1013 -0.5803  0.0292
17643TIP3    H174344   3.089   3.670  13.411 -0.6840  0.6576 -2.3642
17643TIP3    H274345   3.213   3.662  13.325  1.6824 -1.2704  1.0182
17644TIP3   OH274346   6.286   4.833  12.625  0.2122 -0.4312 -0.1852
17644TIP3    H174347   6.378   4.856  12.630  0.2225 -0.1835 -1.3604
17644TIP3    H274348   6.245   4.884  12.695  0.4338  2.2071 -1.8838
17645TIP3   OH274349   0.849   2.812  17.375 -0.3350  0.0305 -0.0403
17645TIP3    H174350   0.923   2.810  17.315  1.8379 -1.8187  2.4485
17645TIP3    H274351   0.856   2.897  17.419  0.6956 -0.3351  0.5419
17646TIP3   OH274352   2.811   0.892   5.145 -0.1200  0.2927  0.3643
17646TIP3    H174353   2.808   0.891   5.049 -0.9406 -2.0927  0.3537
17646TIP3    H274354   2.900   0.867   5.166 -0.4847 -1.2569  0.1750
17647TIP3   OH274355   6.464   0.794  10.849  0.0581 -0.1504 -0.5159
17647TIP3    H174356   6.537   0.754  10.897 -0.2603  0.3295  0.3915
17647TIP3    H274357   6.499   0.876  10.815 -0.7019  1.3867  2.1129
17648TIP3   OH274358   0.252   4.831  16.053  0.0003 -0.5642 -0.2483
17648TIP3    H174359   0.217   4.781  15.979 -0.9732  0.5537 -0.5833
17648TIP3    H274360   0.258   4.920  16.021  0.2975 -0.1955  0.7890
17649TIP3   OH274361   3.582   5.359   2.154  0.9149 -0.6906 -0.1474
17649TIP3    H174362   3.611   5.423   2.089  0.0199  0.1435  0.2549
17649TIP3    H274363   3.618   5.390   2.237  1.1073 -1.1287 -0.0622
17650TIP3   OH274364   6.603   5.865   1.365  0.0930  0.0057  0.1896
17650TIP3    H174365   6.686   5.818   1.376  0.6585  0.6737 -0.9960
17650TIP3    H274366   6.628   5.958   1.365 -0.9272  0.3164  1.8504
17651TIP3   OH274367   6.680   0.875   3.990  0.3933 -0.2715 -0.0397
17651TIP3    H174368   6.664   0.938   3.920 -0.2988  0.2420  0.5662
17651TIP3    H274369   6.594   0.860   4.029  0.5422 -1.6350 -0.2026
17652TIP3   OH274370   5.577   0.209  11.573 -0.3310  0.2174 -0.5162
17652TIP3    H174371   5.625   0.288  11.600  1.5188 -0.4627 -1.6383
17652TIP3    H274372   5.512   0.241  11.511 -0.9675  1.0882  0.5539
17653TIP3   OH274373   1.436   3.181   4.993 -0.5850  0.1785  0.6281
17653TIP3    H174374   1.416   3.131   5.072  0.1950  1.4643  1.6898
17653TIP3    H274375   1.368   3.248   4.988 -0.2086  0.5716  0.6497
17654TIP3   OH274376   0.764   5.955  13.602 -0.1294  0.4209  0.2182
17654TIP3    H174377   0.726   5.874  13.568  0.8030 -0.3820  1.0477
17654TIP3    H274378   0.693   6.019  13.596 -0.4907 -0.1012 -1.6631
17655TIP3   OH274379   4.492   5.130  17.179 -0.3172 -0.6860  0.5536
17655TIP3    H174380   4.435   5.080  17.238 -0.4203  1.5521  2.4906
17655TIP3    H274381   4.530   5.064  17.121 -1.1775 -2.8669  2.3178
17656TIP3   OH274382   3.800   2.770   1.735 -0.0990 -0.5875 -0.1872
17656TIP3    H174383   3.833   2.761   1.824  0.4742 -0.1891 -0.3514
17656TIP3    H274384   3.708   2.795   1.745 -0.1235 -0.8704  0.2861
17657TIP3   OH274385   0.645   3.889   0.701  0.0261  0.5232 -0.1215
17657TIP3    H174386   0.598   3.949   0.643  0.5621  1.8125  0.7128
17657TIP3    H274387   0.736   3.921   0.699 -0.1386  1.2963  2.2273
17658TIP3   OH274388   4.388   5.355   1.817 -0.2901 -0.3026 -0.7557
17658TIP3    H174389   4.471   5.377   1.860  1.0748  1.5388 -3.9261
17658TIP3    H274390   4.353   5.439   1.788 -2.7169 -1.1657 -0.5158
17659TIP3   OH274391   5.864   3.825   1.370 -0.1443 -0.0219 -0.1610
17659TIP3    H174392   5.881   3.763   1.299 -0.4107  0.3360 -0.5495
17659TIP3    H274393   5.806   3.890   1.330 -0.0235  0.3673  0.2938
17660TIP3   OH274394   1.584   3.204  14.474 -0.4744  0.2225  0.5074
17660TIP3    H174395   1.644   3.263  14.519 -1.6814  1.0292  1.0932
17660TIP3    H274396   1.641   3.137  14.435  0.9444  1.8535 -0.3208
17661TIP3   OH274397   3.524   4.454  15.085  0.0677 -0.3027  0.3937
17661TIP3    H174398   3.576   4.418  15.157  0.7608 -1.2105 -0.5460
17661TIP3    H274399   3.438   4.471  15.124  0.4260 -0.7862  1.4295
17662TIP3   OH274400   0.173   5.515   2.492 -0.3931  0.4589  0.2071
17662TIP3    H174401   0.082   5.489   2.481 -0.0341 -0.9718  0.4042
17662TIP3    H274402   0.206   5.525   2.402 -0.1541 -1.2877  0.0658
17663TIP3   OH274403   5.185   2.562   3.649 -0.1636  0.0836 -1.1596
17663TIP3    H174404   5.235   2.513   3.714  0.4036  3.9985  1.7439
17663TIP3    H274405   5.251   2.614   3.603 -0.9864  0.5278 -1.8606
17664TIP3   OH274406   6.350   4.519  11.889  0.4247 -0.2963 -0.4502
17664TIP3    H174407   6.347   4.540  11.796  1.7003  0.1801 -0.4016
17664TIP3    H274408   6.436   4.551  11.918  0.4161 -1.2435  0.6874
17665TIP3   OH274409   3.681   1.584   0.203  0.5007  0.0678 -0.2455
17665TIP3    H174410   3.604   1.547   0.160  0.8662  1.3810 -2.1231
17665TIP3    H274411   3.656   1.589   0.296 -2.0762  1.3484 -0.9089
17666TIP3   OH274412   1.337   4.258  12.158  0.0066  0.0597 -0.3232
17666TIP3    H174413   1.371   4.300  12.079 -0.7496  1.0526 -0.1333
17666TIP3    H274414   1.269   4.317  12.189 -1.1754 -1.3845 -0.1087
17667TIP3   OH274415   4.616   5.053   2.648  0.0361 -0.0081 -0.7244
17667TIP3    H174416   4.654   5.098   2.573  2.0837  0.0776  0.3008
17667TIP3    H274417   4.639   4.961   2.635 -0.6780 -0.1875 -0.7927
17668TIP3   OH274418   6.380   1.700   5.413 -0.1261  0.3560 -0.8951
17668TIP3    H174419   6.412   1.760   5.480 -2.4758  0.8862 -0.1442
17668TIP3    H274420   6.459   1.661   5.375  1.3210 -0.1099  2.2983
17669TIP3   OH274421   5.651   5.217  11.815  0.5016  0.2112  0.1412
17669TIP3    H174422   5.612   5.247  11.733 -0.3545 -0.9759  0.0954
17669TIP3    H274423   5.742   5.249  11.812  1.5775 -2.6547 -2.8519
17670TIP3   OH274424   0.436   1.418   3.160 -0.3547  0.0563 -0.0260
17670TIP3    H174425   0.342   1.437   3.154 -0.4891 -0.8299 -1.3055
17670TIP3    H274426   0.456   1.372   3.078  0.9069 -0.9933  0.8316
17671TIP3   OH274427   0.946   3.609  10.756  0.2453 -0.0598 -0.3735
17671TIP3    H174428   0.924   3.630  10.665 -0.8620 -0.6904 -0.2657
17671TIP3    H274429   0.927   3.690  10.804  0.6948  0.2303 -0.6774
17672TIP3   OH274430   1.160   5.631  14.307  0.2083 -0.8767 -0.0946
17672TIP3    H174431   1.197   5.623  14.395  0.2490  0.4455  0.0294
17672TIP3    H274432   1.227   5.594  14.250  0.6768 -0.7082  0.3360
17673TIP3   OH274433   1.461   4.306   3.108  0.1336  0.1006  0.1453
17673TIP3    H174434   1.556   4.301   3.104  0.0909 -0.0355 -0.8481
17673TIP3    H274435   1.431   4.216   3.091 -0.2081  0.5024 -1.5558
17674TIP3   OH274436   2.384   2.635  15.505  0.4226 -0.4356  0.4215
17674TIP3    H174437   2.334   2.577  15.447  1.1586 -0.0129 -0.6613
17674TIP3    H274438   2.415   2.705  15.448  1.4545 -0.1931  1.2626
17675TIP3   OH274439   1.706   5.841   2.150 -0.4056 -0.1263  0.0869
17675TIP3    H174440   1.684   5.917   2.202 -1.7696 -1.1020  1.0024
17675TIP3    H274441   1.648   5.771   2.183  0.1898 -1.3279 -1.2845
17676TIP3   OH274442   4.604   4.459   1.029  0.3162 -1.1317  1.0092
17676TIP3    H174443   4.576   4.539   0.984  0.5676 -2.6786 -2.1876
17676TIP3    H274444   4.522   4.417   1.056 -0.0960 -1.7328 -1.0302
17677TIP3   OH274445   4.057   1.418  15.758 -0.0760 -0.1630 -0.2370
17677TIP3    H174446   4.032   1.339  15.711  0.2530 -0.7524  0.5471
17677TIP3    H274447   3.992   1.484  15.731  0.7230 -0.1611 -2.3049
17678TIP3   OH274448   2.352   0.985  11.343  0.5598 -0.1478 -0.2240
17678TIP3    H174449   2.331   1.078  11.333  0.3689 -0.3331 -1.6928
17678TIP3    H274450   2.295   0.940  11.281  0.3533 -1.3040  0.7631
17679TIP3   OH274451   3.886   5.312   1.710  0.1945 -0.4472  0.3246
17679TIP3    H174452   3.926   5.268   1.635 -2.7465 -0.7162 -1.2284
17679TIP3    H274453   3.905   5.405   1.697  0.7521 -0.6143 -0.0620
17680TIP3   OH274454   6.711   0.300  14.305 -0.0498  0.1372  0.5329
17680TIP3    H174455   6.789   0.246  14.299  0.1343  0.5199 -0.5845
17680TIP3    H274456   6.705   0.345  14.221 -0.6740  1.2066  1.1179
17681TIP3   OH274457   4.739   5.829   1.850 -0.8247 -0.0169 -0.1612
17681TIP3    H174458   4.675   5.779   1.901  0.6412 -1.6002  0.2158
17681TIP3    H274459   4.783   5.883   1.916 -0.6048 -0.2146 -0.1471
17682TIP3   OH274460   5.978   4.016  12.427 -0.0762  0.3885  0.0521
17682TIP3    H174461   6.040   4.029  12.498  1.9279  0.2773 -1.5928
17682TIP3    H274462   5.894   4.045  12.463  1.0583  1.3872  2.0620
17683TIP3   OH274463   0.942   3.759  17.297  0.6547 -0.8630 -0.4060
17683TIP3    H174464   1.005   3.728  17.233  1.4265 -3.3138  1.3837
17683TIP3    H274465   0.992   3.816  17.355  0.2692  0.2880 -1.1781
17684TIP3   OH274466   0.935   0.804   4.352  0.1098  0.2577  0.3490
17684TIP3    H174467   0.975   0.788   4.437  1.3797  1.1669 -0.0331
17684TIP3    H274468   0.998   0.860   4.306  0.4281 -1.7801 -1.9262
17685TIP3   OH274469   5.659   5.322   0.504 -0.6295 -0.8692  0.3468
17685TIP3    H174470   5.747   5.341   0.537  0.8344 -0.3363 -3.4086
17685TIP3    H274471   5.653   5.226   0.505  1.0879 -1.0547 -1.6974
17686TIP3   OH274472   1.274   0.924   0.604  0.3327 -0.2644 -0.1633
17686TIP3    H174473   1.361   0.923   0.564  0.1244 -1.7143 -0.6353
17686TIP3    H274474   1.213   0.926   0.530 -0.0478 -2.4866  0.0196
17687TIP3   OH274475   1.895   4.481  15.545 -0.0224  0.0346  0.1247
17687TIP3    H174476   1.826   4.417  15.560  0.6330 -0.3852  1.5729
17687TIP3    H274477   1.855   4.566  15.564 -0.2998 -0.1533  0.3783
17688TIP3   OH274478   0.009   3.805  11.487 -0.4288 -0.6775 -0.8319
17688TIP3    H174479  -0.060   3.751  11.449 -0.4352 -0.4861 -1.0994
17688TIP3    H274480   0.089   3.755  11.474 -0.7060 -1.6362  0.9113
17689TIP3   OH274481   1.241   5.650   5.727  0.6664  0.7064  0.0425
17689TIP3    H174482   1.256   5.726   5.782  1.3156  1.1110 -0.6777
17689TIP3    H274483   1.160   5.669   5.680  1.8363  1.8844 -1.6223
17690TIP3   OH274484   5.249   2.425  17.131  0.0943  0.0938  0.6365
17690TIP3    H174485   5.238   2.364  17.058 -0.5751  2.1378 -1.0620
17690TIP3    H274486   5.236   2.371  17.209 -0.6227 -1.8989 -0.7691
17691TIP3   OH274487   6.393   1.281   4.932  0.0613  0.6405  0.5481
17691TIP3    H174488   6.399   1.348   4.864  0.7535 -1.5907 -1.7243
17691TIP3    H274489   6.368   1.329   5.011  1.2667  3.6455 -0.7692
17692TIP3   OH274490   1.103   3.416  14.425 -0.0209  0.0034  0.0380
17692TIP3    H174491   1.089   3.331  14.383 -2.5728  0.9487 -1.2133
17692TIP3    H274492   1.117   3.477  14.352  1.5028  0.7656  0.9012
17693TIP3   OH274493   5.316   1.507   3.312  0.6185 -0.5642 -0.1252
17693TIP3    H174494   5.331   1.453   3.235  0.0610  2.6434 -2.6676
17693TIP3    H274495   5.404   1.525   3.346  1.0930  0.0708 -1.6129
17694TIP3   OH274496   5.250   4.948   5.799 -0.4888 -0.6092 -0.1876
17694TIP3    H174497   5.266   5.031   5.844 -2.3062 -0.7285  0.8155
17694TIP3    H274498   5.194   4.971   5.725 -1.5582 -0.9593  0.4730
17695TIP3   OH274499   0.246   2.992   1.297 -0.5314  0.1260 -0.6571
17695TIP3    H174500   0.224   3.077   1.260  2.3935  0.6875 -1.3688
17695TIP3    H274501   0.275   2.940   1.222  0.6354 -0.4280  0.1521
17696TIP3   OH274502   0.258   5.099   2.628  0.3963 -0.2690  0.8724
17696TIP3    H174503   0.227   5.184   2.660 -2.3202 -0.0231 -2.0366
17696TIP3    H274504   0.180   5.045   2.624  1.8527 -2.5382  1.3014
17697TIP3   OH274505   0.739   0.417  14.352 -0.2756 -0.5927  0.5067
17697TIP3    H174506   0.727   0.380  14.264  0.9157  1.1419 -0.4414
17697TIP3    H274507   0.766   0.342  14.405 -0.0693 -1.5138 -0.8304
17698TIP3   OH274508   1.665   3.022   2.787 -0.0711  0.3678 -0.9241
17698TIP3    H174509   1.665   2.937   2.831 -0.5746  0.9104  0.1921
17698TIP3    H274510   1.748   3.062   2.811 -0.9811  1.2991  0.9174
17699TIP3   OH274511   0.446   1.470   2.632  0.0058 -0.3170 -0.2804
17699TIP3    H174512   0.451   1.484   2.727  0.3859 -1.7236 -0.0612
17699TIP3    H274513   0.385   1.536   2.601 -0.0391  0.2452  0.9286
17700TIP3   OH274514   0.738   4.215  13.095  0.4303 -0.6678 -0.2629
17700TIP3    H174515   0.802   4.272  13.140 -0.8365  0.2557  0.4477
17700TIP3    H274516   0.730   4.139  13.152 -0.1741 -0.1103  0.4184
17701TIP3   OH274517   0.197   5.711   4.652 -0.3237  0.0657  0.0485
17701TIP3    H174518   0.186   5.628   4.699  0.7743 -0.1798 -0.0945
17701TIP3    H274519   0.142   5.703   4.574  0.1772 -0.7495 -0.2305
17702TIP3   OH274520   5.867   5.503   5.478 -0.0140 -0.4645  0.2548
17702TIP3    H174521   5.882   5.585   5.525  3.1880 -1.7865  1.8575
17702TIP3    H274522   5.890   5.522   5.387  1.1085  0.3314  0.6851
17703TIP3   OH274523   5.886   0.653   0.728  0.4330  0.0229  0.6350
17703TIP3    H174524   5.836   0.574   0.747 -0.6428  0.6237  0.4217
17703TIP3    H274525   5.916   0.685   0.813  1.8117 -1.1743  0.6361
17704TIP3   OH274526   1.323   3.288  12.662  0.0653  0.2773 -0.0566
17704TIP3    H174527   1.413   3.272  12.689 -0.0115 -0.0964 -0.0229
17704TIP3    H274528   1.270   3.253  12.734 -0.2030 -2.3493 -1.4311
17705TIP3   OH274529   0.936   0.246   0.859  0.2980 -0.1425  0.3215
17705TIP3    H174530   0.984   0.164   0.869 -0.8965 -0.9911 -0.6689
17705TIP3    H274531   0.894   0.240   0.773  2.4281  2.7100 -1.1116
17706TIP3   OH274532   1.230   2.566   1.321  0.0060  0.4307  0.3357
17706TIP3    H174533   1.215   2.472   1.314 -0.1355  0.4434  0.4658
17706TIP3    H274534   1.143   2.605   1.311  0.2588  0.6457 -1.4054
17707TIP3   OH274535   1.167   4.878   6.787 -0.6626 -0.3483  0.5341
17707TIP3    H174536   1.149   4.897   6.879 -0.4379 -0.6632  0.6448
17707TIP3    H274537   1.155   4.783   6.779 -0.0875 -0.4082  0.3767
17708TIP3   OH274538   2.984   4.789   3.117 -0.2922  0.3666  0.4127
17708TIP3    H174539   2.939   4.818   3.038 -0.1260 -0.3843  0.0338
17708TIP3    H274540   3.074   4.776   3.090 -0.1662  0.4061  0.8056
17709TIP3   OH274541   4.945   3.049   5.797 -0.0628 -0.3936 -0.2869
17709TIP3    H174542   4.898   3.122   5.837 -1.7741 -2.3361  1.4433
17709TIP3    H274543   5.027   3.088   5.765 -0.3101  2.0100  1.7312
17710TIP3   OH274544   5.428   2.636   4.223  0.1491  0.5261 -0.4093
17710TIP3    H174545   5.347   2.675   4.256  0.8535  0.5645  1.4019
17710TIP3    H274546   5.404   2.546   4.199 -0.3965  0.4741  0.2998
17711TIP3   OH274547   1.108   4.199   3.455  0.0078 -0.6311  0.0760
17711TIP3    H174548   1.143   4.150   3.529  2.1081 -0.1807 -0.5325
17711TIP3    H274549   1.087   4.285   3.491  0.0636 -0.7314  0.3470
17712TIP3   OH274550   1.168   5.384   3.353 -0.0239  0.2302  0.0928
17712TIP3    H174551   1.213   5.355   3.274  0.3712 -2.2475  1.1094
17712TIP3    H274552   1.098   5.441   3.322  0.8819  0.3285 -1.9031
17713TIP3   OH274553   5.233   1.790  12.069  0.4040 -0.3529  0.6351
17713TIP3    H174554   5.157   1.761  12.120 -1.1722  0.4605 -1.1201
17713TIP3    H274555   5.295   1.717  12.076 -0.4900 -1.0373  2.1505
17714TIP3   OH274556   0.672   3.942  16.457  0.1393  0.0511 -0.0449
17714TIP3    H174557   0.765   3.938  16.477 -0.1072 -0.6996  1.0127
17714TIP3    H274558   0.651   3.855  16.422  0.0647  0.5829 -1.3802
17715TIP3   OH274559   3.262   4.251  11.684  0.1679 -0.3902  0.4483
17715TIP3    H174560   3.198   4.304  11.731 -1.2634 -1.0671 -0.6715
17715TIP3    H274561   3.212   4.177  11.650  1.4412 -0.6904 -0.8782
17716TIP3   OH274562   6.674   4.980   6.397 -0.1900  0.2248  0.0543
17716TIP3    H174563   6.701   5.065   6.363 -1.2694  1.3096  1.7648
17716TIP3    H274564   6.595   4.998   6.447 -0.5820 -1.8371  0.2692
17717TIP3   OH274565   1.425   1.917  13.908 -0.1436  0.0024 -0.5117
17717TIP3    H174566   1.444   1.968  13.986 -0.1694  1.8292 -1.6545
17717TIP3    H274567   1.498   1.855  13.901  1.5781  1.9621 -0.7764
17718TIP3   OH274568   1.330   2.718  10.879 -0.2221 -0.6259  0.4393
17718TIP3    H174569   1.261   2.742  10.817 -2.5048 -2.7956  1.9475
17718TIP3    H274570   1.351   2.799  10.925 -1.0962  0.2552 -0.6766
17719TIP3   OH274571   6.272   5.780  16.623 -0.6679  0.0367 -0.3258
17719TIP3    H174572   6.296   5.731  16.544  0.7402  0.2975 -0.0979
17719TIP3    H274573   6.210   5.845  16.594 -1.1116 -0.6664 -0.9857
17720TIP3   OH274574   5.217   3.401  13.880 -0.2095  0.0854 -0.6595
17720TIP3    H174575   5.191   3.355  13.960  1.7687 -0.9259 -0.5526
17720TIP3    H274576   5.293   3.353  13.848 -0.8834  0.5319 -3.1188
17721TIP3   OH274577   2.268   1.037   0.298  0.0965  0.1204  0.2958
17721TIP3    H174578   2.240   0.947   0.279 -1.1598  0.7255 -0.9813
17721TIP3    H274579   2.344   1.028   0.354  1.2158 -1.7926 -1.4029
17722TIP3   OH274580   4.469   0.405  11.201 -0.3044  0.3080 -0.0291
17722TIP3    H174581   4.439   0.318  11.226  0.1341 -0.1247 -0.9421
17722TIP3    H274582   4.430   0.419  11.115  0.9489  0.3121 -0.6269
17723TIP3   OH274583   5.044   4.953   2.291  0.1012  0.6664 -0.0406
17723TIP3    H174584   5.078   5.003   2.365 -2.1382  0.6105  1.1136
17723TIP3    H274585   4.953   4.981   2.284 -0.5236 -1.4237 -0.9504
17724TIP3   OH274586   6.014   0.798   5.464 -0.2034 -0.5489  0.1441
17724TIP3    H174587   6.078   0.730   5.443  1.3067  0.8091  0.1445
17724TIP3    H274588   5.939   0.779   5.408  1.0270 -1.0113 -1.4295
17725TIP3   OH274589   1.991   5.541   3.813  0.5067 -0.6688  0.1015
17725TIP3    H174590   1.924   5.480   3.781 -0.1353 -0.0326  0.1964
17725TIP3    H274591   2.036   5.570   3.734 -0.7436  0.5127 -0.2294
17726TIP3   OH274592   1.141   4.614   4.806  0.3296 -0.3812  0.0657
17726TIP3    H174593   1.175   4.658   4.884 -0.0901  0.7741 -0.3722
17726TIP3    H274594   1.200   4.540   4.792  0.3622 -0.6442  1.5031
17727TIP3   OH274595   4.687   2.527  15.045  0.2040 -0.0283 -0.0902
17727TIP3    H174596   4.641   2.509  14.964 -0.3850  0.9336  0.0198
17727TIP3    H274597   4.732   2.610  15.030 -1.1351  0.9533  1.0415
17728TIP3   OH274598   3.872   0.285   4.968 -0.1166 -0.4604 -0.0063
17728TIP3    H174599   3.886   0.298   5.062 -1.1615 -2.1831  0.4460
17728TIP3    H274600   3.960   0.291   4.929  0.3965 -0.2408  1.1446
17729TIP3   OH274601   3.718   0.556   0.282 -0.3095  0.8801 -0.0627
17729TIP3    H174602   3.639   0.604   0.307 -1.0626 -0.2155 -0.2760
17729TIP3    H274603   3.716   0.555   0.186 -0.3003  0.4513 -0.0616
17730TIP3   OH274604   4.833   2.204  14.568 -0.4824 -0.2447  0.1354
17730TIP3    H174605   4.867   2.216  14.656  0.2146  0.1061 -0.1732
17730TIP3    H274606   4.761   2.142  14.578  2.0134 -3.3273  0.4534
17731TIP3   OH274607   3.188   6.719  17.126 -0.1352  0.4699  0.6001
17731TIP3    H174608   3.256   6.653  17.113  0.4802  1.0549  0.7579
17731TIP3    H274609   3.110   6.670  17.151  0.5922 -0.1252  1.7793
17732TIP3   OH274610   0.715   0.364  12.136 -0.1847  0.1343 -0.2634
17732TIP3    H174611   0.791   0.342  12.083  0.8803 -2.8661  2.2053
17732TIP3    H274612   0.752   0.407  12.214 -1.0987 -0.3534  0.4648
17733TIP3   OH274613   4.280   3.280   4.073 -0.0118 -0.2682  0.0262
17733TIP3    H174614   4.341   3.346   4.041 -0.3848  0.0473 -0.0307
17733TIP3    H274615   4.278   3.213   4.004 -0.7999  0.3982 -0.6116
17734TIP3   OH274616   2.983   4.755  13.742  0.1258  0.0987 -0.7942
17734TIP3    H174617   2.951   4.835  13.782  1.0667  1.0236 -1.8206
17734TIP3    H274618   3.044   4.718  13.806  0.5215  0.7944 -0.7595
17735TIP3   OH274619   2.617   1.880   6.085 -0.1822  0.1329  0.2319
17735TIP3    H174620   2.602   1.974   6.072  1.4733  1.0977  3.8398
17735TIP3    H274621   2.699   1.863   6.038  1.1115  1.3126  1.9514
17736TIP3   OH274622   5.622   4.475  15.398 -0.4013 -0.5782 -0.4105
17736TIP3    H174623   5.657   4.392  15.367 -2.5309 -0.6895 -2.7858
17736TIP3    H274624   5.530   4.474  15.371 -0.5047  2.5422 -0.5113
17737TIP3   OH274625   0.113   0.909   6.576 -0.8731  0.2811  0.0318
17737TIP3    H174626   0.038   0.924   6.634 -1.0290 -0.8718  0.1604
17737TIP3    H274627   0.078   0.851   6.508 -0.2019  0.0791 -0.1438
17738TIP3   OH274628   1.733   2.555  13.327 -0.2192 -0.4864 -0.6250
17738TIP3    H174629   1.752   2.648  13.316 -0.8167 -0.3483 -0.5545
17738TIP3    H274630   1.813   2.510  13.300  0.9543  0.1212  1.6171
17739TIP3   OH274631   4.235   3.879   6.742  0.0440  0.0573 -0.6616
17739TIP3    H174632   4.236   3.966   6.783 -0.1434 -0.5264  0.6285
17739TIP3    H274633   4.298   3.828   6.793 -0.9446 -0.9742 -0.4340
17740TIP3   OH274634   1.580   2.150  16.341 -0.2617  0.0607  0.1095
17740TIP3    H174635   1.487   2.157  16.361 -0.5960 -0.6550 -1.1009
17740TIP3    H274636   1.596   2.215  16.272  0.0975  0.0481  0.1753
17741TIP3   OH274637   3.132   6.220   4.953  0.2818 -0.0597 -0.0848
17741TIP3    H174638   3.099   6.139   4.992 -1.6891 -0.1609 -1.8081
17741TIP3    H274639   3.208   6.192   4.901 -0.1576 -0.7681 -0.3712
17742TIP3   OH274640   6.451   2.710   0.972 -0.5249 -0.0327  0.2729
17742TIP3    H174641   6.516   2.654   1.014  0.7879  0.3843 -1.0906
17742TIP3    H274642   6.416   2.764   1.043 -1.5556 -2.2861  1.5458
17743TIP3   OH274643   3.780   0.097   3.642 -0.2216 -0.3063 -0.3411
17743TIP3    H174644   3.727   0.075   3.719 -0.0403  1.9386  0.5248
17743TIP3    H274645   3.855   0.038   3.646 -0.7198 -0.8873  0.6543
17744TIP3   OH274646   5.821   0.826   4.661 -0.3153  0.1647 -0.2297
17744TIP3    H174647   5.743   0.792   4.706  0.4991 -1.3743  0.0950
17744TIP3    H274648   5.815   0.791   4.573 -0.6366  1.1394 -0.6130
17745TIP3   OH274649   6.543   4.646  15.322  0.0473  0.5118  0.5220
17745TIP3    H174650   6.496   4.601  15.392  0.2614 -0.4223  0.0694
17745TIP3    H274651   6.490   4.633  15.244  0.5045  0.3744  0.2297
17746TIP3   OH274652   6.040   2.795   2.424 -0.2757  0.1643  0.2137
17746TIP3    H174653   6.080   2.724   2.475 -0.2947  0.0866  0.1217
17746TIP3    H274654   6.060   2.874   2.473  0.2351  0.1583  0.0273
17747TIP3   OH274655   2.524   2.096  14.696 -0.5204 -0.1097 -0.1306
17747TIP3    H174656   2.432   2.102  14.672 -0.4622 -2.7725 -1.3538
17747TIP3    H274657   2.523   2.082  14.791 -1.3066  0.4822 -0.0406
17748TIP3   OH274658   0.637   6.478  13.783 -0.8379 -0.4084 -0.0784
17748TIP3    H174659   0.691   6.399  13.776  1.0878  0.9560 -1.9191
17748TIP3    H274660   0.602   6.491  13.695 -0.0468  1.4476 -0.1719
17749TIP3   OH274661   5.887   3.200   2.995 -0.4464  0.4361 -0.7120
17749TIP3    H174662   5.872   3.255   2.919  0.3313  1.7203  0.0250
17749TIP3    H274663   5.968   3.152   2.975 -0.7212  0.1113 -1.0510
17750TIP3   OH274664   2.155   6.268   5.858 -0.2048 -0.6238  0.2572
17750TIP3    H174665   2.141   6.309   5.943 -1.6794  0.9911 -0.6989
17750TIP3    H274666   2.073   6.223   5.838 -0.7856  0.9927 -1.2920
17751TIP3   OH274667   1.998   1.621  11.604 -0.0505 -0.1996  0.0564
17751TIP3    H174668   2.065   1.686  11.583 -0.6458  0.1500 -0.8341
17751TIP3    H274669   2.039   1.537  11.584  1.2226 -0.2747  2.5129
17752TIP3   OH274670   2.849   4.628  12.544  0.5503  0.4115  0.0549
17752TIP3    H174671   2.788   4.695  12.513 -1.0135 -0.6064  0.8025
17752TIP3    H274672   2.858   4.567  12.470 -3.0472 -1.9254  1.2600
17753TIP3   OH274673   4.152   5.394  14.778  0.0160 -0.1421 -0.3779
17753TIP3    H174674   4.244   5.377  14.758  0.0524 -0.3283 -0.0656
17753TIP3    H274675   4.153   5.441  14.861 -0.2664 -2.7830  1.2381
17754TIP3   OH274676   5.148   5.522  14.353  0.5427 -0.3139  0.3321
17754TIP3    H174677   5.144   5.588  14.284  1.4649 -1.2677 -0.6648
17754TIP3    H274678   5.241   5.508  14.368  0.3662 -0.3320  1.6048
17755TIP3   OH274679   4.492   3.638   1.090  0.4790 -0.7541 -0.3280
17755TIP3    H174680   4.454   3.551   1.100  1.7327 -1.2363  0.3421
17755TIP3    H274681   4.486   3.677   1.178  1.1698 -0.6883 -0.3061
17756TIP3   OH274682   5.632   4.887  11.885  0.5049 -0.1369 -0.0664
17756TIP3    H174683   5.659   4.931  11.805  0.6633  0.0146  0.0683
17756TIP3    H274684   5.694   4.814  11.894  0.7480  0.0939  0.1389
17757TIP3   OH274685   4.781   4.132   4.244 -0.2345  0.0537 -0.0997
17757TIP3    H174686   4.777   4.225   4.267 -1.5894  0.4610 -1.7872
17757TIP3    H274687   4.735   4.126   4.160  1.6830 -1.8160 -1.1005
17758TIP3   OH274688   4.381   6.433   1.396  0.2275  0.5638  0.0791
17758TIP3    H174689   4.362   6.460   1.306  0.3705  0.8045  0.1214
17758TIP3    H274690   4.332   6.352   1.407  1.4276 -0.3244 -0.7438
17759TIP3   OH274691   6.505   6.159   4.982  0.3291  0.7721  0.0439
17759TIP3    H174692   6.487   6.183   4.891  2.6314  0.9596 -0.4370
17759TIP3    H274693   6.573   6.092   4.975  0.7073  0.9676  1.6422
17760TIP3   OH274694   4.224   0.347   0.997 -0.4353 -0.0914 -0.4357
17760TIP3    H174695   4.222   0.424   1.052  0.8488 -1.2218  1.2957
17760TIP3    H274696   4.224   0.381   0.908  4.3987  2.2009  0.1424
17761TIP3   OH274697   2.943   6.617  17.176 -0.2439 -0.2575 -0.1108
17761TIP3    H174698   2.903   6.645  17.259 -1.5868  0.1189 -0.8675
17761TIP3    H274699   2.869   6.597  17.119  0.5484  1.9600 -2.0742
17762TIP3   OH274700   0.382   5.653  11.992  0.3020  0.0800  0.0864
17762TIP3    H174701   0.321   5.710  11.945 -0.9190 -1.9162 -0.9084
17762TIP3    H274702   0.452   5.636  11.928  0.7194  0.5123  0.4189
17763TIP3   OH274703   1.385   3.803  11.582 -0.0098 -0.3450 -0.4069
17763TIP3    H174704   1.427   3.869  11.527 -1.3425  0.6576 -0.2742
17763TIP3    H274705   1.430   3.811  11.667 -0.5848  0.8782 -0.1883
17764TIP3   OH274706   0.731   0.653  16.231 -0.0878 -0.1481 -0.1485
17764TIP3    H174707   0.803   0.591  16.243 -0.5209 -0.6146  0.0885
17764TIP3    H274708   0.742   0.685  16.142 -0.1668 -0.9855 -0.4732
17765TIP3   OH274709   4.092   0.810  12.035 -1.3182 -0.4520 -0.5628
17765TIP3    H174710   4.121   0.862  12.110 -2.1390  2.0892 -1.8875
17765TIP3    H274711   4.079   0.722  12.070  0.9483 -0.0086  1.6212
17766TIP3   OH274712   0.414   1.308  14.776 -0.0848 -0.3410  0.0094
17766TIP3    H174713   0.486   1.292  14.837 -1.2432 -1.0483  1.2498
17766TIP3    H274714   0.455   1.312  14.690  1.6312  0.8275  0.8258
17767TIP3   OH274715   0.136   4.663   1.664 -0.3558  0.1734  0.3835
17767TIP3    H174716   0.157   4.622   1.580  1.8091 -3.0523  2.2763
17767TIP3    H274717   0.204   4.729   1.677  0.7257 -0.9219  0.5231
17768TIP3   OH274718   0.448   0.115  13.577 -0.3948 -0.4763  0.6228
17768TIP3    H174719   0.431   0.205  13.551 -2.0563 -1.0352 -0.3573
17768TIP3    H274720   0.543   0.108  13.577 -0.2030  1.4267  1.3113
17769TIP3   OH274721   6.674   0.651  13.542  0.6352  0.0011  0.0265
17769TIP3    H174722   6.755   0.700  13.543  0.4316  0.3332  1.2692
17769TIP3    H274723   6.606   0.716  13.525  0.1904  0.5014  3.2148
17770TIP3   OH274724   3.802   5.139   4.493 -0.6785 -0.3388  0.7635
17770TIP3    H174725   3.808   5.113   4.585  0.6144 -0.0075  0.7853
17770TIP3    H274726   3.891   5.163   4.468 -0.6541 -2.0388 -1.0610
17771TIP3   OH274727   6.182   6.056  11.439 -0.3978 -0.2482  0.1569
17771TIP3    H174728   6.170   6.147  11.469 -0.6124  0.1511 -1.0856
17771TIP3    H274729   6.167   6.060  11.345 -0.9837 -1.6921  0.1717
17772TIP3   OH274730   0.723   6.407  13.414 -0.0734  0.5425  0.0718
17772TIP3    H174731   0.631   6.395  13.436 -0.4377  1.0134 -1.0770
17772TIP3    H274732   0.731   6.501  13.395  0.5268  0.4250 -0.3083
17773TIP3   OH274733   5.150   6.396  11.026  0.0778 -0.1691 -0.5316
17773TIP3    H174734   5.081   6.409  10.961 -0.2102 -0.8217 -0.3675
17773TIP3    H274735   5.132   6.463  11.093 -1.4788 -1.4101  0.3873
17774TIP3   OH274736   0.312   5.423   1.907  0.5428  0.8844 -0.1677
17774TIP3    H174737   0.294   5.378   1.989  1.1519  1.6944  0.4186
17774TIP3    H274738   0.270   5.508   1.916  1.2642  1.2720 -0.3842
17775TIP3   OH274739   4.364   2.120  10.583 -0.5950  0.3923  0.3279
17775TIP3    H174740   4.429   2.190  10.574  0.7115 -1.0744 -2.8947
17775TIP3    H274741   4.288   2.151  10.534 -1.6022  1.1463  2.2422
17776TIP3   OH274742   0.216   6.573  15.303 -0.5834 -0.2198 -0.1486
17776TIP3    H174743   0.125   6.554  15.280 -0.8068  1.8256 -1.2766
17776TIP3    H274744   0.237   6.651  15.250  1.0226  0.8166  1.8939
17777TIP3   OH274745   4.252   6.557   3.055  0.5645  0.1965 -0.2881
17777TIP3    H174746   4.265   6.545   3.149 -0.0903 -0.2591 -0.2530
17777TIP3    H274747   4.291   6.643   3.037 -1.0338  1.1848  0.7677
17778TIP3   OH274748   2.913   5.635   4.076  0.2446 -0.2482 -0.1001
17778TIP3    H174749   2.921   5.567   4.143 -2.7693 -0.1255  0.5372
17778TIP3    H274750   2.878   5.590   3.999 -0.8063  0.3617 -0.0038
17779TIP3   OH274751   0.609   5.947   2.529  0.4376  0.6834 -0.0537
17779TIP3    H174752   0.520   5.961   2.563  0.4569 -0.7336  0.6783
17779TIP3    H274753   0.666   5.992   2.590  0.3829 -0.7992  1.1537
17780TIP3   OH274754   6.356   0.526   3.744  0.1917  0.9562  0.4793
17780TIP3    H174755   6.308   0.471   3.682  1.0119 -0.7611  1.3087
17780TIP3    H274756   6.303   0.527   3.823 -0.2927  2.2081  0.1697
17781TIP3   OH274757   0.793   0.008  15.894 -0.5421  0.3622 -0.3453
17781TIP3    H174758   0.851   0.048  15.958 -1.2176  0.5869  0.1381
17781TIP3    H274759   0.829   0.034  15.809  0.8569 -0.6420 -0.0966
17782TIP3   OH274760   3.064   4.782  10.992  0.3940  0.0480  0.6403
17782TIP3    H174761   3.008   4.743  10.925  2.3200  1.0770 -1.7067
17782TIP3    H274762   3.038   4.875  10.993 -0.7993 -0.2284  2.6770
17783TIP3   OH274763   6.442   4.235   4.522  0.2889  0.0254  0.0909
17783TIP3    H174764   6.376   4.169   4.502  1.3418 -1.0531  0.0770
17783TIP3    H274765   6.499   4.236   4.446  1.8594 -1.0315  1.2037
17784TIP3   OH274766   2.734   1.675   2.036  0.2344 -0.0791 -1.0040
17784TIP3    H174767   2.650   1.630   2.033 -0.0550  0.3577  0.1346
17784TIP3    H274768   2.782   1.641   1.960 -1.0535 -0.1436 -1.8275
17785TIP3   OH274769   1.599   4.442  10.811  0.3512 -0.0385 -0.4919
17785TIP3    H174770   1.602   4.478  10.900  2.5941 -1.0479 -0.0632
17785TIP3    H274771   1.621   4.516  10.755 -0.6110  0.5043 -0.1653
17786TIP3   OH274772   3.677   1.050  10.964 -0.2919  0.0993 -0.1325
17786TIP3    H174773   3.705   1.038  11.054  1.5779 -0.3413 -0.7313
17786TIP3    H274774   3.756   1.036  10.912 -1.1414  1.1311 -1.7953
17787TIP3   OH274775   3.479   4.357   1.221  0.2936 -0.5265  0.2114
17787TIP3    H174776   3.390   4.349   1.256  0.1770 -0.0405  0.0380
17787TIP3    H274777   3.477   4.308   1.139 -0.3133  0.8967 -0.6681
17788TIP3   OH274778   5.154   0.444   3.780 -0.6461  0.0611  0.3787
17788TIP3    H174779   5.085   0.505   3.753 -0.1848 -0.3216 -1.8374
17788TIP3    H274780   5.136   0.365   3.730  0.9680 -0.2949  0.3197
17789TIP3   OH274781   5.640   6.493   5.043  0.2657 -0.0352 -0.0270
17789TIP3    H174782   5.646   6.499   4.947 -2.1135  0.9792 -0.1947
17789TIP3    H274783   5.612   6.404   5.060 -2.0771  0.5456 -0.5472
17790TIP3   OH274784   5.771   3.915  14.603  0.2276 -0.1710 -0.2093
17790TIP3    H174785   5.688   3.921  14.650 -0.1540  1.4197 -1.0424
17790TIP3    H274786   5.832   3.878  14.668 -0.2442  2.0910  1.6446
17791TIP3   OH274787   3.365   4.495  14.168  0.0956  0.2766 -0.2615
17791TIP3    H174788   3.428   4.555  14.130  0.8753  0.6315  1.4682
17791TIP3    H274789   3.409   4.460  14.246 -0.0453 -3.0713 -1.4885
17792TIP3   OH274790   0.297   2.687  11.708 -1.1895  0.2303 -0.3245
17792TIP3    H174791   0.369   2.733  11.751 -0.6543  1.1491 -2.1174
17792TIP3    H274792   0.316   2.595  11.723 -0.8281  0.4935  1.0503
17793TIP3   OH274793   3.606   4.561  17.328 -0.0923  0.2155  0.5227
17793TIP3    H174794   3.517   4.569  17.292  0.4485 -2.0316 -1.6066
17793TIP3    H274795   3.601   4.488  17.389  0.3234 -0.0826  0.2067
17794TIP3   OH274796   3.338   6.530   3.604 -0.2715 -0.3494 -0.0900
17794TIP3    H174797   3.410   6.575   3.649 -0.5495  0.7897 -0.7682
17794TIP3    H274798   3.320   6.454   3.660 -0.2296  0.7105  1.4290
17795TIP3   OH274799   5.541   4.912  10.794  0.1048 -0.2961  0.2491
17795TIP3    H174800   5.551   4.864  10.712 -1.8111 -0.0236 -0.1960
17795TIP3    H274801   5.469   4.973  10.777 -0.0812  0.0247  2.0206
17796TIP3   OH274802   1.870   4.717  11.365 -0.1337  0.6929  0.0516
17796TIP3    H174803   1.865   4.709  11.270 -1.1066 -1.5321  0.2558
17796TIP3    H274804   1.785   4.690  11.397  0.7515 -0.3612  1.6546
17797TIP3   OH274805   2.120   3.353   5.099 -0.1113 -0.1780 -0.1859
17797TIP3    H174806   2.078   3.283   5.148  2.7701 -0.8760  1.5226
17797TIP3    H274807   2.093   3.433   5.144 -3.3191  0.0067 -2.0779
17798TIP3   OH274808   3.835   3.601   5.072  0.4590  0.9050  0.2998
17798TIP3    H174809   3.768   3.649   5.120  0.3947 -0.1600  1.3397
17798TIP3    H274810   3.789   3.568   4.995  0.1486  1.3439  0.2914
17799TIP3   OH274811   2.129   0.285  14.161  0.1727  0.1572  0.0379
17799TIP3    H174812   2.056   0.347  14.168  0.0755  0.0281  0.1549
17799TIP3    H274813   2.197   0.322  14.218 -0.2779 -0.4050  0.9593
17800TIP3   OH274814   5.523   5.635   4.076  0.0475  0.5250 -0.0859
17800TIP3    H174815   5.538   5.727   4.096  1.7203 -0.2547  2.7301
17800TIP3    H274816   5.431   5.621   4.097  0.2162  1.1874  1.1826
17801TIP3   OH274817   0.499   0.086   0.965  0.0577  0.0321 -0.3024
17801TIP3    H174818   0.408   0.064   0.946 -0.0175  0.6452 -0.6780
17801TIP3    H274819   0.495   0.137   1.045 -0.0421  0.9177 -0.8553
17802TIP3   OH274820   3.708   6.061  16.851 -0.2060 -0.0163 -0.2617
17802TIP3    H174821   3.776   6.009  16.809  0.4995  1.0939 -0.5253
17802TIP3    H274822   3.648   5.996  16.889 -0.3025 -1.0323 -2.0614
17803TIP3   OH274823   3.539   1.683  15.638  0.1473 -0.2453  0.3525
17803TIP3    H174824   3.520   1.610  15.697 -0.8537 -0.4728 -0.2274
17803TIP3    H274825   3.531   1.761  15.693 -0.4225 -0.4771  0.6070
17804TIP3   OH274826   2.235   6.472  12.959 -0.1508 -0.3361 -0.4533
17804TIP3    H174827   2.178   6.440  13.028 -0.2716 -0.2871 -0.5294
17804TIP3    H274828   2.316   6.423  12.970  0.3996  0.7792  0.7006
17805TIP3   OH274829   4.974   4.056  15.560 -0.2041  0.3097  0.4779
17805TIP3    H174830   5.031   4.006  15.501  1.5784  0.8535  1.6616
17805TIP3    H274831   4.914   3.991  15.595  1.1550 -0.7855  0.9032
17806TIP3   OH274832   2.476   6.152  13.773  0.2328 -0.2212  0.1229
17806TIP3    H174833   2.410   6.207  13.813 -0.9329 -1.0644 -0.5658
17806TIP3    H274834   2.466   6.067  13.815 -0.3081 -0.8308 -1.1855
17807TIP3   OH274835   4.431   4.631   5.176  0.0478 -0.0234 -0.4150
17807TIP3    H174836   4.353   4.602   5.129 -0.3846 -0.7239  0.7175
17807TIP3    H274837   4.425   4.590   5.262  0.5466  1.6716  0.4747
17808TIP3   OH274838   4.681   2.270   3.652  0.4691 -0.2753  0.2152
17808TIP3    H174839   4.697   2.216   3.575 -0.7868 -0.3299 -0.0242
17808TIP3    H274840   4.765   2.269   3.699  1.3942  0.1152 -1.3419
17809TIP3   OH274841   6.463   1.172  13.807  0.0362  0.3391 -0.1285
17809TIP3    H174842   6.463   1.183  13.902  0.8729 -0.3533 -0.0362
17809TIP3    H274843   6.555   1.174  13.782 -0.2024  1.3303 -1.0447
17810TIP3   OH274844   5.457   4.838  12.727 -0.7909 -0.2307  0.3078
17810TIP3    H174845   5.512   4.766  12.697 -0.8189  0.0091 -0.3189
17810TIP3    H274846   5.370   4.800  12.733 -0.6075 -0.5555  1.1000
17811TIP3   OH274847   4.266   2.335   0.979 -0.1748  0.2166 -0.0351
17811TIP3    H174848   4.291   2.427   0.990  0.7281 -0.1965  1.8045
17811TIP3    H274849   4.282   2.316   0.886 -0.0139  1.8027 -0.3516
17812TIP3   OH274850   2.670   2.463   1.021  0.2224  1.0969  0.8984
17812TIP3    H174851   2.664   2.462   1.116 -1.5451  1.1518  0.8134
17812TIP3    H274852   2.582   2.443   0.990  0.6921  1.3406 -0.7383
17813TIP3   OH274853   6.682   5.578   3.636  0.7046 -0.2545 -0.3699
17813TIP3    H174854   6.659   5.514   3.703  0.1222  2.7095  2.4945
17813TIP3    H274855   6.598   5.620   3.614  1.5816  3.4378  2.3295
17814TIP3   OH274856   6.651   5.980   4.831  0.5429 -0.2370  0.0703
17814TIP3    H174857   6.717   5.917   4.805  1.4589  1.5701 -2.3435
17814TIP3    H274858   6.668   6.057   4.776 -1.9550  1.2533  1.2079
17815TIP3   OH274859   4.955   4.027   5.065  0.5807 -0.4010 -0.1037
17815TIP3    H174860   4.922   4.022   5.155  1.8936 -0.9252  0.3774
17815TIP3    H274861   4.971   4.120   5.051  0.7350 -0.3564  0.3486
17816TIP3   OH274862   0.667   5.831   5.313 -0.1229 -0.4092 -0.7021
17816TIP3    H174863   0.624   5.912   5.284  1.0445  0.6380  0.3069
17816TIP3    H274864   0.748   5.828   5.262  0.0064 -0.7453 -0.4742
17817TIP3   OH274865   5.648   5.402  15.519  0.0503 -0.1377  0.0529
17817TIP3    H174866   5.634   5.339  15.449  0.7775  1.4316 -1.5744
17817TIP3    H274867   5.707   5.468  15.481  1.4205  0.1827  2.4976
17818TIP3   OH274868   6.339   5.688   5.198  0.1487  0.1073 -0.1998
17818TIP3    H174869   6.414   5.722   5.148  0.1556 -1.1444 -1.1130
17818TIP3    H274870   6.367   5.691   5.289  0.3528  1.9425 -0.2893
17819TIP3   OH274871   5.492   1.699   4.786  0.0012  0.2043  0.2595
17819TIP3    H174872   5.492   1.738   4.699  1.9728 -1.2155 -0.4628
17819TIP3    H274873   5.569   1.735   4.829  0.1297 -0.5394  0.6805
17820TIP3   OH274874   1.775   0.350   0.658  0.1589  0.3009  0.1864
17820TIP3    H174875   1.801   0.266   0.695  0.5159  0.5506  0.5077
17820TIP3    H274876   1.783   0.412   0.730 -1.2557  0.4099  0.2769
17821TIP3   OH274877   5.497   1.045   3.634 -0.2165 -0.6419  0.2476
17821TIP3    H174878   5.571   1.104   3.650 -0.2711 -0.3899 -0.3984
17821TIP3    H274879   5.422   1.091   3.673 -0.5353  0.4555 -1.5501
17822TIP3   OH274880   3.551   2.091  11.425 -0.2489 -0.0652 -0.2965
17822TIP3    H174881   3.528   2.005  11.461 -1.8352  0.5310  0.2084
17822TIP3    H274882   3.647   2.092  11.424 -0.1734 -1.0302  1.7148
17823TIP3   OH274883   3.321   6.495   1.307  0.6753  0.0999  0.5113
17823TIP3    H174884   3.382   6.491   1.234  0.1492  0.1589  0.0609
17823TIP3    H274885   3.375   6.480   1.384  1.1088 -0.7720  0.0541
17824TIP3   OH274886   0.942   1.352   3.253  0.0228 -0.3564  0.0108
17824TIP3    H174887   0.960   1.366   3.346  0.4047  0.4259 -0.1679
17824TIP3    H274888   0.857   1.394   3.238 -0.0634 -0.5282  0.0193
17825TIP3   OH274889   1.494   0.861  17.233  0.4625 -0.1041 -0.6433
17825TIP3    H174890   1.429   0.821  17.290  1.4011 -1.3006 -0.3741
17825TIP3    H274891   1.504   0.951  17.266 -0.6255 -0.0861 -0.3437
17826TIP3   OH274892   5.408   5.639  16.141 -0.4775  0.2703  0.4825
17826TIP3    H174893   5.337   5.591  16.183  0.0703 -1.0535 -0.0696
17826TIP3    H274894   5.459   5.675  16.214 -1.2656  0.5872  0.8897
17827TIP3   OH274895   5.815   3.843   3.909  0.2873  0.0492 -0.3159
17827TIP3    H174896   5.772   3.852   3.824  1.8334 -1.5540 -1.3279
17827TIP3    H274897   5.834   3.750   3.917 -1.6952 -0.2323  2.8042
17828TIP3   OH274898   5.860   5.571  14.170  0.0540  0.2826  0.5681
17828TIP3    H174899   5.784   5.523  14.204  0.6561 -0.1840  1.2826
17828TIP3    H274900   5.934   5.515  14.190  0.4160 -0.2697 -2.0049
17829TIP3   OH274901   5.733   4.107  12.480 -0.2307 -0.1258  0.5391
17829TIP3    H174902   5.714   4.200  12.463  0.8582  0.1402  0.7103
17829TIP3    H274903   5.658   4.077  12.532 -0.5238  0.6981  0.6181
17830TIP3   OH274904   5.679   4.434   4.738 -0.0682 -0.3302 -0.3902
17830TIP3    H174905   5.695   4.381   4.660 -3.2814 -0.6332 -0.9486
17830TIP3    H274906   5.613   4.498   4.711  0.7357  1.3808  1.3986
17831TIP3   OH274907   2.520   4.173  14.925 -0.0035  0.1867 -0.4034
17831TIP3    H174908   2.431   4.139  14.934  0.2220 -0.7758 -1.5325
17831TIP3    H274909   2.564   4.147  15.006  0.0917 -2.0842 -1.1226
17832TIP3   OH274910   3.116   4.362  14.371  0.5642 -0.1867 -0.2980
17832TIP3    H174911   3.136   4.297  14.439 -0.8406 -1.1247 -0.7456
17832TIP3    H274912   3.128   4.315  14.289  1.3489  0.6846 -0.7035
17833TIP3   OH274913   5.018   2.537  17.022  0.3104 -0.1611 -0.3013
17833TIP3    H174914   5.104   2.518  17.059 -0.5547 -3.7045  0.2518
17833TIP3    H274915   5.025   2.510  16.930  0.2237  1.1456 -0.7099
17834TIP3   OH274916   6.431   0.013   0.382 -0.3079  0.3347  0.2423
17834TIP3    H174917   6.416  -0.067   0.434  2.1535 -0.0605  0.4628
17834TIP3    H274918   6.526   0.021   0.379 -0.4886  2.4518 -1.0793
17835TIP3   OH274919   4.156   1.243   1.750  0.1677 -0.3700  0.4775
17835TIP3    H174920   4.090   1.256   1.818 -0.4684  1.0830 -0.3817
17835TIP3    H274921   4.116   1.277   1.670  2.4664  2.0140  0.1955
17836TIP3   OH274922   5.652   4.447  14.862 -0.5270  0.1722 -0.6532
17836TIP3    H174923   5.700   4.419  14.940  0.0213 -1.0400 -1.3985
17836TIP3    H274924   5.565   4.408  14.872 -0.0724 -1.0159 -1.2171
17837TIP3   OH274925   6.691   0.877   0.995 -0.1280  0.0397 -0.3108
17837TIP3    H174926   6.751   0.820   0.946  0.3421  1.4391 -1.4230
17837TIP3    H274927   6.682   0.834   1.081  3.1468  0.1982  0.2382
17838TIP3   OH274928   2.203   1.218   0.115  0.5972  0.1729  0.2328
17838TIP3    H174929   2.215   1.137   0.165  0.7946  0.9370  1.4625
17838TIP3    H274930   2.174   1.189   0.029 -1.6715 -1.1333  1.3574
17839TIP3   OH274931   2.737   3.158   5.771  0.1911 -0.1869 -0.8918
17839TIP3    H174932   2.648   3.131   5.750 -0.1742  1.7333 -1.9796
17839TIP3    H274933   2.728   3.243   5.812  1.2912 -1.6698  2.8534
17840TIP3   OH274934   6.633   0.590   3.181 -0.1199  0.0547 -0.3757
17840TIP3    H174935   6.547   0.557   3.206 -0.6169  1.4132 -0.1901
17840TIP3    H274936   6.653   0.657   3.246  0.5558  0.5421 -1.0661
17841TIP3   OH274937   3.275   0.625  12.736  0.2459 -0.9122 -0.0681
17841TIP3    H174938   3.266   0.697  12.674  0.7499 -0.8100 -0.0255
17841TIP3    H274939   3.209   0.642  12.803 -0.4055 -1.1023 -0.6518
17842TIP3   OH274940   4.219   5.845  17.322 -0.4337 -0.2092  0.7614
17842TIP3    H174941   4.150   5.792  17.362  0.0741 -2.6545 -1.3752
17842TIP3    H274942   4.189   5.859  17.233 -0.1194  2.4753  1.0051
17843TIP3   OH274943   0.153   0.464  10.782 -0.3733 -0.2943 -0.4232
17843TIP3    H174944   0.152   0.378  10.739  0.5254  0.8785 -2.9662
17843TIP3    H274945   0.109   0.522  10.720 -2.6391  0.8361  2.0224
17844TIP3   OH274946   0.457   3.106  13.902  0.3672 -0.1703  0.0478
17844TIP3    H174947   0.373   3.095  13.858  0.7772  0.6224 -0.9546
17844TIP3    H274948   0.444   3.065  13.988 -0.5746 -1.3792 -0.6281
17845TIP3   OH274949   4.439   5.084  11.559  0.2475 -0.0449  0.5280
17845TIP3    H174950   4.506   5.113  11.497 -1.4558  2.6925 -0.2289
17845TIP3    H274951   4.364   5.062  11.505  0.6821 -4.1509  1.2752
17846TIP3   OH274952   4.089   1.804  13.036 -0.5582 -0.4823  0.2964
17846TIP3    H174953   4.147   1.782  13.109 -0.2873  0.5810  0.4221
17846TIP3    H274954   4.117   1.748  12.965  1.0998  0.4830  0.1466
17847TIP3   OH274955   0.527   3.232  13.088  0.1684 -0.5714  0.4097
17847TIP3    H174956   0.470   3.300  13.054 -0.1391 -1.7133 -1.5255
17847TIP3    H274957   0.567   3.270  13.167 -0.7161  1.4393 -0.0654
17848TIP3   OH274958   6.647   4.309   3.271 -0.0019  0.0325 -0.2587
17848TIP3    H174959   6.620   4.395   3.240 -1.1223 -0.3960 -0.5288
17848TIP3    H274960   6.568   4.255   3.265  0.4295 -0.7707  0.7940
17849TIP3   OH274961   4.535   4.107  16.122 -0.1494  0.5545 -0.2413
17849TIP3    H174962   4.468   4.121  16.188 -1.4187  0.8007 -1.5225
17849TIP3    H274963   4.486   4.083  16.043  1.3553 -0.6887 -0.8546
17850TIP3   OH274964   3.692   0.115   2.791  0.0653  0.6317 -0.1709
17850TIP3    H174965   3.663   0.183   2.730 -0.2623  1.8265  1.2466
17850TIP3    H274966   3.782   0.097   2.765  0.3867  2.0955 -0.2017
17851TIP3   OH274967   1.919   2.606   6.321 -0.3782 -0.2873 -0.0698
17851TIP3    H174968   1.843   2.550   6.304 -1.2191  0.7279  0.2595
17851TIP3    H274969   1.890   2.667   6.388  0.4905  0.6035 -0.4709
17852TIP3   OH274970   1.122   4.104  14.307  0.5800 -0.0154  0.2119
17852TIP3    H174971   1.152   4.013  14.300 -0.5840 -0.3922 -0.1228
17852TIP3    H274972   1.159   4.135  14.389  0.7725 -0.8913  0.4683
17853TIP3   OH274973   0.968   5.300  16.990  0.0499  0.3779 -0.2294
17853TIP3    H174974   1.006   5.374  17.036  0.1318  0.0853  0.1861
17853TIP3    H274975   0.926   5.338  16.913 -1.9165  1.1524  1.1500
17854TIP3   OH274976   1.965   5.524   0.694 -0.2425 -0.6142 -0.6096
17854TIP3    H174977   2.012   5.606   0.686 -0.0040 -0.2897  2.6640
17854TIP3    H274978   2.025   5.458   0.659  0.7863  0.2870 -0.5993
17855TIP3   OH274979   4.906   4.635   5.774  0.1947 -0.1096  0.0992
17855TIP3    H174980   4.825   4.612   5.728 -0.3432  0.5197  0.7122
17855TIP3    H274981   4.930   4.555   5.820 -0.3178 -0.1832  0.2509
17856TIP3   OH274982   3.237   3.178  14.332  0.2640  0.0704 -0.5399
17856TIP3    H174983   3.310   3.144  14.281  1.0089  0.9214 -0.0605
17856TIP3    H274984   3.267   3.175  14.423 -0.6831 -0.5149 -0.2247
17857TIP3   OH274985   3.039   2.914   1.285 -0.2782 -0.0843  0.3042
17857TIP3    H174986   3.094   2.910   1.363  0.5934  1.1317 -0.2255
17857TIP3    H274987   3.035   2.823   1.254  0.8292 -0.3051  0.7586
17858TIP3   OH274988   3.491   0.770   1.619 -0.0859 -0.0606 -0.1310
17858TIP3    H174989   3.525   0.683   1.598 -1.2478 -0.4163 -0.6280
17858TIP3    H274990   3.404   0.772   1.579  0.5059  1.8852 -1.4607
17859TIP3   OH274991   6.663   3.651   3.897 -0.0779  0.2482 -0.7081
17859TIP3    H174992   6.717   3.720   3.860 -0.6912  0.5608 -1.0503
17859TIP3    H274993   6.709   3.623   3.976 -0.2897  1.7139 -0.0278
17860TIP3   OH274994   5.352   1.279   5.109 -0.2462 -0.0232  0.1425
17860TIP3    H174995   5.267   1.266   5.067  0.8976 -3.0607 -1.5549
17860TIP3    H274996   5.412   1.299   5.037  0.4510  3.1438  1.4028
17861TIP3   OH274997   0.479   3.903   4.596 -0.1437 -0.3348  0.4547
17861TIP3    H174998   0.416   3.832   4.600  0.0127 -0.4310  1.7299
17861TIP3    H274999   0.436   3.976   4.640 -0.3196  0.4007 -0.8728
17862TIP3   OH275000   6.276   2.912  15.710 -0.0603 -0.0902 -0.6113
17862TIP3    H175001   6.257   2.897  15.617 -2.9563  0.7490 -0.2551
17862TIP3    H275002   6.200   2.960  15.743  0.7896 -0.4978  2.2616
17863TIP3   OH275003   2.021   6.301   1.462 -0.2035 -0.0101  1.2446
17863TIP3    H175004   2.065   6.374   1.505  1.0919 -0.2410  0.3534
17863TIP3    H275005   2.073   6.224   1.484  0.7696 -0.0802 -1.0017
17864TIP3   OH275006   5.014   0.600   2.233 -0.0721  0.4271 -0.2705
17864TIP3    H175007   4.936   0.638   2.273 -0.4434  0.1115 -0.6813
17864TIP3    H275008   5.007   0.506   2.251  1.0789  0.5752  1.1521
17865TIP3   OH275009   6.540   4.319   6.155  0.1518 -0.2846  0.1504
17865TIP3    H175010   6.609   4.303   6.219  0.3411 -1.2412 -0.2702
17865TIP3    H275011   6.526   4.414   6.158  2.2702  0.1124 -0.5261
17866TIP3   OH275012   4.693   2.840   1.200 -0.3397 -0.2105  0.5118
17866TIP3    H175013   4.705   2.785   1.122 -1.6041  0.8809 -0.4900
17866TIP3    H275014   4.742   2.920   1.181  2.6329 -1.3516  2.5197
17867TIP3   OH275015   5.983   0.787   0.267  0.4312 -0.9723  0.7500
17867TIP3    H175016   6.014   0.700   0.241 -0.0755 -0.9449  0.0079
17867TIP3    H275017   5.897   0.771   0.307 -0.0989 -0.7371 -0.2558
17868TIP3   OH275018   6.275   1.929   2.371  0.0055 -0.8875 -0.1335
17868TIP3    H175019   6.336   1.983   2.321 -0.1058 -0.7337 -0.1019
17868TIP3    H275020   6.237   1.870   2.306  0.0667 -0.8749 -0.1812
17869TIP3   OH275021   2.189   0.569   5.515 -0.0427  0.0799  0.0440
17869TIP3    H175022   2.102   0.596   5.484 -0.2569 -0.4539  0.1616
17869TIP3    H275023   2.209   0.629   5.586 -0.4606  0.0098  0.2262
17870TIP3   OH275024   3.354   2.142   1.134 -0.3360  0.1523 -0.4689
17870TIP3    H175025   3.352   2.052   1.102  0.1994 -0.0963  0.1639
17870TIP3    H275026   3.386   2.135   1.224 -0.2447  0.9831 -0.4238
17871TIP3   OH275027   6.463   0.788  13.071  0.1848 -0.7133  0.0188
17871TIP3    H175028   6.385   0.841  13.086 -0.5182 -1.9039  0.7760
17871TIP3    H275029   6.533   0.834  13.116 -0.4642 -0.5782  0.9142
17872TIP3   OH275030   4.551   0.803   2.108 -0.7836  0.0114  0.2933
17872TIP3    H175031   4.588   0.748   2.039  0.8054  1.5052 -0.1279
17872TIP3    H275032   4.504   0.872   2.062  1.6949  1.9962  0.5304
17873TIP3   OH275033   4.245   1.760   5.136  0.3540 -0.4598  0.0503
17873TIP3    H175034   4.166   1.796   5.176  0.6218  0.6780 -0.3901
17873TIP3    H275035   4.256   1.674   5.176  0.2555  0.3577  1.9295
17874TIP3   OH275036   2.833   2.389   2.696  0.1181  0.5202 -0.5578
17874TIP3    H175037   2.832   2.344   2.780  0.3102  0.0409 -0.8087
17874TIP3    H275038   2.763   2.454   2.703  0.5733  0.9446  0.2163
17875TIP3   OH275039   3.757   6.454   5.480  0.3658  0.2575  0.4167
17875TIP3    H175040   3.806   6.461   5.562  1.8146 -1.5229 -0.2165
17875TIP3    H275041   3.672   6.420   5.505  1.2258 -1.4864  1.0967
17876TIP3   OH275042   1.021   1.604   4.255  0.0969 -0.4161 -0.4898
17876TIP3    H175043   1.056   1.693   4.244  1.7110 -0.7304  1.5867
17876TIP3    H275044   0.949   1.599   4.192 -0.2660  2.4713 -0.4296
17877TIP3   OH275045   1.513   6.092   1.101  0.0807  0.0133 -0.1359
17877TIP3    H175046   1.422   6.120   1.105  0.0096 -0.3325  1.0031
17877TIP3    H275047   1.509   5.997   1.118  0.8934  0.5036  3.7045
17878TIP3   OH275048   1.700   2.919   1.958 -0.0447 -0.0439 -0.0605
17878TIP3    H175049   1.639   2.848   1.978 -0.3266  0.6993  2.0187
17878TIP3    H275050   1.775   2.877   1.916 -0.6647 -1.4153  0.1814
17879TIP3   OH275051   1.976   5.110  15.997 -0.2011  0.8477  0.0901
17879TIP3    H175052   1.952   5.164  16.072 -1.3395  1.6933 -0.8396
17879TIP3    H275053   2.067   5.085  16.013 -0.3800  1.1052  1.6771
17880TIP3   OH275054   2.894   5.800  11.253 -0.2573 -0.3869  0.2456
17880TIP3    H175055   2.901   5.877  11.310 -1.1840  0.6371 -0.9737
17880TIP3    H275056   2.955   5.818  11.181 -1.2522 -0.2824 -0.5894
17881TIP3   OH275057   4.994   5.905  16.539  0.1826  0.1609  0.0802
17881TIP3    H175058   5.048   5.833  16.505  1.7727  0.8519  1.0584
17881TIP3    H275059   4.972   5.956  16.461 -0.3956 -0.9843 -0.5372
17882TIP3   OH275060   1.032   3.530   2.524  0.0555 -0.3931 -0.4060
17882TIP3    H175061   1.105   3.547   2.466 -0.2091 -0.4220 -0.7546
17882TIP3    H275062   1.068   3.474   2.592  0.7121  0.8140  0.2660
17883TIP3   OH275063   6.310   4.015   5.213 -0.2307 -0.5756 -0.0373
17883TIP3    H175064   6.222   3.980   5.224 -0.1823 -0.6018  0.2899
17883TIP3    H275065   6.297   4.104   5.182 -0.4113 -0.1594  1.1714
17884TIP3   OH275066   1.325   0.475  11.291 -0.4570  0.0177 -0.5211
17884TIP3    H175067   1.385   0.547  11.269  2.2584 -1.8645  0.2152
17884TIP3    H275068   1.324   0.421  11.212  1.1357 -1.4243  0.4034
17885TIP3   OH275069   1.490   2.073   4.292  0.4342 -0.0978  0.1368
17885TIP3    H175070   1.527   2.048   4.208  0.0533  1.8421 -0.6579
17885TIP3    H275071   1.396   2.081   4.276  0.5433  1.9182  0.2674
17886TIP3   OH275072   0.868   3.353  12.927  0.5134 -0.3033 -0.4865
17886TIP3    H175073   0.902   3.369  12.839 -0.2117 -0.6049 -0.8293
17886TIP3    H275074   0.839   3.439  12.957  0.9317 -0.1669 -0.4677
17887TIP3   OH275075   2.676   2.852  14.107 -0.6260  0.1822 -0.2589
17887TIP3    H175076   2.624   2.846  14.187  0.8486  0.7654  0.8001
17887TIP3    H275077   2.652   2.936  14.069  0.2841  0.9583  0.8092
17888TIP3   OH275078   6.230   6.150   5.538  0.0920  0.0088 -0.0416
17888TIP3    H175079   6.205   6.182   5.451  1.5072 -1.0439 -0.8715
17888TIP3    H275080   6.149   6.113   5.574 -1.1991  2.8167  0.2650
17889TIP3   OH275081   1.153   5.736   4.116  0.8183  0.7390  0.3913
17889TIP3    H175082   1.160   5.641   4.114  1.4398  0.7770 -1.0022
17889TIP3    H275083   1.061   5.753   4.098  0.8954  0.3817 -0.4393
17890TIP3   OH275084   3.531   1.641  13.457 -0.5153 -0.3330  0.1295
17890TIP3    H175085   3.579   1.560  13.472  0.4387 -0.3290 -2.4222
17890TIP3    H275086   3.447   1.613  13.419 -0.1364 -0.1475 -0.8679
17891TIP3   OH275087   4.460   3.775  12.292 -0.1237 -0.0380  0.3074
17891TIP3    H175088   4.533   3.837  12.293 -0.5645  0.5343 -0.5463
17891TIP3    H275089   4.401   3.807  12.361  0.8289 -1.0412  1.6244
17892TIP3   OH275090   5.871   3.568  14.895  0.3350  0.9232  0.2540
17892TIP3    H175091   5.928   3.515  14.839 -0.8555 -0.3149  0.1501
17892TIP3    H275092   5.905   3.554  14.984  0.9634  1.2308  0.0682
17893TIP3   OH275093   1.363   4.785   3.727 -0.5322 -0.2525 -0.1855
17893TIP3    H175094   1.326   4.746   3.647 -1.7496  0.8765 -0.2060
17893TIP3    H275095   1.351   4.879   3.715 -1.4292 -0.1016  1.6373
17894TIP3   OH275096   3.196   3.273  10.736 -0.4702 -0.0713 -0.4721
17894TIP3    H175097   3.162   3.290  10.648 -1.0123  4.0383  0.3295
17894TIP3    H275098   3.285   3.239  10.722  1.2972  4.6326 -2.8862
17895TIP3   OH275099   3.377   6.091   4.673  0.0259  0.2872  0.1146
17895TIP3    H175100   3.400   6.000   4.691 -0.7682  0.2950  1.2753
17895TIP3    H275101   3.397   6.138   4.753 -0.3824  0.9823 -0.1791
17896TIP3   OH275102   0.921   1.450  12.253 -0.3187  0.1993 -0.2035
17896TIP3    H175103   0.986   1.386  12.224 -0.0260 -0.0804  1.0245
17896TIP3    H275104   0.930   1.522  12.191  1.4315  0.3262  0.1423
17897TIP3   OH275105   3.911   3.945  16.780  0.3049 -0.1944 -0.6747
17897TIP3    H175106   3.819   3.945  16.754  0.4218 -1.0861 -1.1328
17897TIP3    H275107   3.912   3.987  16.866 -0.6449 -0.9185 -0.2918
17898TIP3   OH275108   1.614   0.876  12.852  0.0837  0.0937 -0.2017
17898TIP3    H175109   1.604   0.966  12.822 -1.3658 -0.1278 -0.4554
17898TIP3    H275110   1.596   0.880  12.946 -0.2065  0.0389 -0.2542
17899TIP3   OH275111   1.086   0.632   0.006  0.0757 -0.3191  0.0531
17899TIP3    H175112   1.040   0.713  -0.019  1.3653  0.7951  1.1512
17899TIP3    H275113   1.016   0.572   0.031 -0.9032  0.5034 -0.6129
17900TIP3   OH275114   6.291   3.794  16.653  0.7629 -0.1921  0.1899
17900TIP3    H175115   6.377   3.753  16.664  1.1645  0.4261 -0.5646
17900TIP3    H275116   6.295   3.834  16.566  0.0240  0.5864  0.5033
17901TIP3   OH275117   3.066   6.704   1.848 -0.2222  0.3055 -0.1931
17901TIP3    H175118   3.136   6.760   1.882 -0.4121 -0.4271  1.5294
17901TIP3    H275119   3.106   6.618   1.840 -1.4473 -0.7670  3.3200
17902TIP3   OH275120   2.333   5.295   1.483  0.4098  0.1090 -0.2358
17902TIP3    H175121   2.237   5.289   1.482  0.3326  1.2659 -1.3837
17902TIP3    H275122   2.352   5.366   1.544  0.6872 -1.6679  1.8701
17903TIP3   OH275123   6.465   5.443   0.828 -0.0260  0.2975 -0.0319
17903TIP3    H175124   6.411   5.398   0.763  1.1785 -0.4698 -0.5450
17903TIP3    H275125   6.540   5.385   0.840  0.7331  1.3754  0.5696
17904TIP3   OH275126   1.444   5.125  14.435  0.0421 -0.3706  0.2779
17904TIP3    H175127   1.466   5.034  14.412 -1.6416 -0.0457 -3.3625
17904TIP3    H275128   1.516   5.176  14.398 -0.0501 -0.1084  0.4607
17905TIP3   OH275129   3.330   0.267   4.435  0.3043  0.1118  0.2502
17905TIP3    H175130   3.390   0.298   4.503 -0.4014  0.9581  0.5075
17905TIP3    H275131   3.277   0.200   4.478  2.0906 -1.8218 -0.4108
17906TIP3   OH275132   3.692   2.203   5.626  0.6773  0.3536 -0.3034
17906TIP3    H175133   3.607   2.198   5.669  0.4461  0.1520 -0.7819
17906TIP3    H275134   3.702   2.119   5.583  0.1053  1.1816 -2.1441
17907TIP3   OH275135   4.645   4.462  16.869  0.2208  1.3891  0.4331
17907TIP3    H175136   4.645   4.459  16.773 -0.9549 -0.1519  0.4375
17907TIP3    H275137   4.678   4.549  16.891  1.9927  1.2247 -1.3319
17908TIP3   OH275138   2.187   2.403  12.333  0.2975 -0.0017  0.3539
17908TIP3    H175139   2.185   2.372  12.423 -0.5721  1.4053  0.8506
17908TIP3    H275140   2.278   2.394  12.306  0.8084  0.6287  1.7783
17909TIP3   OH275141   4.145   6.273   2.431  0.4107 -0.0387 -0.0116
17909TIP3    H175142   4.137   6.348   2.371  5.0611  1.9742  1.4584
17909TIP3    H275143   4.067   6.279   2.486 -2.4633 -0.1339 -3.7002
17910TIP3   OH275144   2.061   1.294  16.682 -0.4850 -0.1551 -0.0366
17910TIP3    H175145   2.076   1.283  16.588  0.0900  0.0587  0.0215
17910TIP3    H275146   2.002   1.223  16.706  1.4976 -1.9432 -0.0610
17911TIP3   OH275147   1.333   0.395  16.280  0.3227  0.6075  0.1739
17911TIP3    H175148   1.351   0.481  16.243  0.2797  0.1177 -1.0205
17911TIP3    H275149   1.238   0.393  16.293  0.4148  1.0375  1.0113
17912TIP3   OH275150   2.418   3.620  14.944  0.7684  0.4982  0.3953
17912TIP3    H175151   2.340   3.614  14.999  0.8862 -1.2913  0.4002
17912TIP3    H275152   2.392   3.680  14.873 -0.3444  0.5348  0.8081
17913TIP3   OH275153   2.161   0.540   1.132  0.5987  0.8212 -0.2529
17913TIP3    H175154   2.102   0.608   1.165 -1.2171 -0.4834 -0.6557
17913TIP3    H275155   2.102   0.469   1.105  2.4374 -1.0845  0.5191
17914TIP3   OH275156   2.605   5.580   1.074  0.0020 -0.0554  0.2065
17914TIP3    H175157   2.524   5.596   1.123 -1.1488  1.6986 -2.0606
17914TIP3    H275158   2.675   5.593   1.138 -1.4345  0.9801  1.6479
17915TIP3   OH275159   4.112   2.470  15.289 -0.3563 -0.0824 -0.1345
17915TIP3    H175160   4.184   2.454  15.228 -0.7587  0.9473 -0.9066
17915TIP3    H275161   4.071   2.384  15.300  0.4324 -0.4995 -0.3984
17916TIP3   OH275162   2.755   3.327  10.806  0.1849 -0.3113  0.5504
17916TIP3    H175163   2.791   3.338  10.718  2.4351 -0.9726  1.3328
17916TIP3    H275164   2.718   3.239  10.806 -1.2438  0.2494 -0.1533
17917TIP3   OH275165   5.954   6.238  12.651 -0.3138  0.0133  0.1107
17917TIP3    H175166   5.891   6.241  12.722  0.0381  1.0199  0.3958
17917TIP3    H275167   5.961   6.145  12.629 -1.6131 -0.1555  0.3114
17918TIP3   OH275168   2.257   5.625  10.785  0.2832 -0.2799  0.4649
17918TIP3    H175169   2.175   5.578  10.765  1.7671 -1.8836 -2.5115
17918TIP3    H275170   2.257   5.700  10.725  0.2641  0.6784  1.6363
17919TIP3   OH275171   4.826   5.462  12.664 -1.0080  0.4886 -0.0030
17919TIP3    H175172   4.824   5.464  12.760  0.4483  0.9320  0.0356
17919TIP3    H275173   4.869   5.380  12.642  1.2889  1.6679 -0.1817
17920TIP3   OH275174   3.269   3.699   3.604 -0.0168 -0.0829 -0.2520
17920TIP3    H175175   3.296   3.658   3.686  1.4398  1.6559  0.2054
17920TIP3    H275176   3.175   3.716   3.615 -0.1106 -1.0325  0.5060
17921TIP3   OH275177   3.351   2.029  13.303 -0.3852 -0.0353 -0.5343
17921TIP3    H175178   3.294   2.103  13.281 -0.8807 -0.4998 -0.8278
17921TIP3    H275179   3.410   2.064  13.370 -1.9240  0.0743  0.8148
17922TIP3   OH275180   5.618   3.487  12.581 -0.3313  0.2036 -0.5247
17922TIP3    H175181   5.539   3.434  12.581  0.4169 -0.9557  0.2305
17922TIP3    H275182   5.689   3.424  12.594  0.5379  1.4606  1.1700
17923TIP3   OH275183   5.119   4.248  16.327  0.4119  0.4160 -0.9209
17923TIP3    H175184   5.048   4.187  16.349  0.9621  0.9863  3.1917
17923TIP3    H275185   5.198   4.193  16.324  0.3455  0.3476 -1.5104
17924TIP3   OH275186   2.303   4.563  14.468 -0.1590 -0.6181 -0.1236
17924TIP3    H175187   2.296   4.622  14.543 -0.5596 -2.7629  1.6002
17924TIP3    H275188   2.384   4.514  14.483 -0.8839 -1.9407 -0.4389
17925TIP3   OH275189   2.333   0.769  14.417 -0.3333  0.0285  0.3494
17925TIP3    H175190   2.407   0.820  14.386 -0.3020  0.8750  1.7317
17925TIP3    H275191   2.327   0.789  14.510 -1.6764 -0.8110  0.4770
17926TIP3   OH275192   3.592   6.716   0.642 -0.1214 -0.0225  0.3925
17926TIP3    H175193   3.678   6.697   0.604 -0.9352 -1.2653 -0.9655
17926TIP3    H275194   3.557   6.786   0.586 -0.1365  0.2380  0.7275
17927TIP3   OH275195   5.672   5.055   0.469 -0.2318  0.5015 -0.0919
17927TIP3    H175196   5.755   5.010   0.482  1.0625  2.4046 -1.3094
17927TIP3    H275197   5.623   4.998   0.410 -0.5054 -1.3826  1.8074
17928TIP3   OH275198   1.440   1.287   2.074 -0.3654  0.0937  0.4203
17928TIP3    H175199   1.408   1.333   2.151 -1.0451 -2.5797  1.8665
17928TIP3    H275200   1.505   1.225   2.108 -0.8649 -1.3396 -1.0797
17929TIP3   OH275201   1.365   0.847   4.696  0.1028  0.1941  0.2812
17929TIP3    H175202   1.336   0.774   4.641 -1.8645  0.7639  0.4949
17929TIP3    H275203   1.387   0.806   4.780 -1.5180 -0.1198  0.5739
17930TIP3   OH275204   4.167   2.021   1.559 -0.7734 -0.6268  0.4354
17930TIP3    H175205   4.215   2.063   1.487  0.7078 -0.4688  1.4641
17930TIP3    H275206   4.171   2.085   1.630 -2.2332 -0.7709  0.6634
17931TIP3   OH275207   1.526   5.184  11.761  0.4457  0.6334 -0.0699
17931TIP3    H175208   1.466   5.200  11.834  0.2819  1.1637 -0.3145
17931TIP3    H275209   1.476   5.134  11.698  1.0739 -1.2560  0.8596
17932TIP3   OH275210   2.853   5.927  15.366 -0.1953  0.2254 -0.2558
17932TIP3    H175211   2.908   5.985  15.418 -2.2522  0.4456  1.8208
17932TIP3    H275212   2.776   5.980  15.344  0.0456 -0.2628 -2.5321
17933TIP3   OH275213   6.446   5.276  12.520  0.3758 -0.6022 -0.1415
17933TIP3    H175214   6.425   5.183  12.535  1.2479 -0.9090 -0.7393
17933TIP3    H275215   6.418   5.292  12.430  3.2754 -1.2343 -1.2443
17934TIP3   OH275216   3.702   0.269  12.852  0.2570 -0.4143 -0.3541
17934TIP3    H175217   3.653   0.198  12.809 -0.6360  0.0632 -0.1539
17934TIP3    H275218   3.634   0.330  12.880  0.9990  0.3485 -0.2132
17935TIP3   OH275219   6.157   4.081   0.111 -0.3924 -0.0192 -0.4093
17935TIP3    H175220   6.236   4.096   0.059 -0.1902  1.2320  0.2232
17935TIP3    H275221   6.086   4.088   0.048 -0.0469 -0.6672 -0.8942
17936TIP3   OH275222   6.202   2.235  17.226 -0.3133  0.1047 -0.1957
17936TIP3    H175223   6.235   2.316  17.187  2.4256 -0.5970  0.4764
17936TIP3    H275224   6.196   2.174  17.152 -0.7808  0.4336 -0.4331
17937TIP3   OH275225   5.414   3.693   1.728 -0.0786 -0.8346  0.1037
17937TIP3    H175226   5.471   3.703   1.652  0.0847  0.2870  0.3545
17937TIP3    H275227   5.470   3.708   1.803 -0.5856 -0.2439  0.3734
17938TIP3   OH275228   6.155   2.156  11.497 -0.1349 -0.3485 -0.2713
17938TIP3    H175229   6.101   2.197  11.429 -0.8627 -2.6405 -1.1944
17938TIP3    H275230   6.237   2.136  11.453  0.4701  0.6785  0.3614
17939TIP3   OH275231   6.528   6.699  13.562 -0.1021 -0.1576  0.1177
17939TIP3    H175232   6.595   6.640  13.526  0.0784 -0.0860  0.3311
17939TIP3    H275233   6.492   6.651  13.636 -1.4393 -0.8870 -0.9635
17940TIP3   OH275234   0.335   4.249  12.789  0.5516  0.5071 -0.6732
17940TIP3    H175235   0.297   4.216  12.870  1.4954  0.8883 -0.0530
17940TIP3    H275236   0.395   4.319  12.817  2.4202 -0.6857 -1.4976
17941TIP3   OH275237   1.766   2.353  17.018 -0.3129 -1.1938  0.1487
17941TIP3    H175238   1.853   2.393  17.016 -0.0921 -1.6657  0.1228
17941TIP3    H275239   1.775   2.281  17.081 -0.0791 -2.6066 -1.4387
17942TIP3   OH275240   0.155   2.356   5.288 -0.6036 -0.4166  0.1546
17942TIP3    H175241   0.065   2.324   5.298 -0.0558 -1.5076  2.0597
17942TIP3    H275242   0.171   2.407   5.367  0.4467 -0.1848 -0.1978
17943TIP3   OH275243   4.673   1.805   2.485 -0.7456 -0.4493 -0.2529
17943TIP3    H175244   4.675   1.837   2.395  0.1235  0.1771 -0.0198
17943TIP3    H275245   4.683   1.710   2.476  3.3871 -0.1410 -0.7106
17944TIP3   OH275246   1.355   3.047  13.510 -0.0609  0.0580  0.5478
17944TIP3    H175247   1.359   3.138  13.479  2.0123  0.1686  0.9418
17944TIP3    H275248   1.292   3.048  13.582 -1.3632  0.7935 -0.5620
17945TIP3   OH275249   0.549   0.687  12.121  0.1848 -0.6186  0.3693
17945TIP3    H175250   0.561   0.781  12.109 -0.1294 -0.5138  0.8584
17945TIP3    H275251   0.536   0.676  12.215 -0.1513 -1.1103  0.2704
17946TIP3   OH275252   1.570   1.849  11.170  0.0757 -0.0688  0.4861
17946TIP3    H175253   1.643   1.867  11.230 -0.5151  1.8380  0.6890
17946TIP3    H275254   1.580   1.913  11.100 -0.3720 -1.0057 -0.4657
17947TIP3   OH275255   5.207   0.591  14.758 -0.1407  0.3998 -0.0525
17947TIP3    H175256   5.125   0.627  14.724  0.8054  2.2571 -0.5208
17947TIP3    H275257   5.259   0.668  14.781  2.0854 -0.6415 -1.2657
17948TIP3   OH275258   4.922   2.672   1.322  0.1304 -0.0745 -0.6535
17948TIP3    H175259   4.983   2.659   1.248 -0.7874 -0.5419 -1.3478
17948TIP3    H275260   4.851   2.724   1.285 -0.4144 -0.4513 -0.1382
17949TIP3   OH275261   5.825   3.323   4.239 -0.3810  0.3512  0.3801
17949TIP3    H175262   5.792   3.282   4.159  0.3465  0.1349  0.1880
17949TIP3    H275263   5.866   3.252   4.287  1.2940  0.9129 -0.1621
17950TIP3   OH275264   2.466   0.396   5.947  0.2015  0.4885 -0.7374
17950TIP3    H175265   2.493   0.310   5.978  1.7411  1.3289  0.4324
17950TIP3    H275266   2.517   0.458   6.000  0.7855  2.0841 -2.9573
17951TIP3   OH275267   2.979   1.502   6.030  0.0269  0.1362  0.3756
17951TIP3    H175268   2.994   1.438   5.960 -0.1518 -0.2508  0.6904
17951TIP3    H275269   3.033   1.472   6.103  1.2196  1.2505 -0.0085
17952TIP3   OH275270   5.506   4.905   4.448 -0.1653  0.3268 -0.2344
17952TIP3    H175271   5.484   4.989   4.490 -0.4863 -0.2905  0.8883
17952TIP3    H275272   5.498   4.922   4.355 -1.8611  1.1374  0.0131
17953TIP3   OH275273   2.948   2.503  10.490 -0.1876  0.1556 -0.8458
17953TIP3    H175274   3.025   2.541  10.534 -0.4216 -0.7942  0.4254
17953TIP3    H275275   2.914   2.439  10.552 -0.5611 -1.2206 -2.4101
17954TIP3   OH275276   5.168   0.841  11.742  0.2491  0.1802 -0.8878
17954TIP3    H175277   5.191   0.893  11.665 -0.3799 -1.0303 -1.9408
17954TIP3    H275278   5.236   0.775  11.748  0.0086 -0.0554 -0.7165
17955TIP3   OH275279   3.094   3.732   5.755 -0.4322 -0.1681  0.1538
17955TIP3    H175280   3.160   3.800   5.771 -0.0841 -0.6779  0.9114
17955TIP3    H275281   3.138   3.650   5.777 -1.0237 -0.5943 -0.2419
17956TIP3   OH275282   2.890   2.634   5.011 -0.3236  0.2730  0.3343
17956TIP3    H175283   2.829   2.632   4.937 -0.3134 -0.5057  0.3434
17956TIP3    H275284   2.839   2.670   5.084 -1.5606 -2.6375  1.0309
17957TIP3   OH275285   5.033   2.159  12.820  0.5418 -0.0834  0.2352
17957TIP3    H175286   5.058   2.119  12.737  2.2006  1.0192  0.1477
17957TIP3    H275287   4.999   2.245  12.795  2.6311  0.9530  0.7339
17958TIP3   OH275288   3.293   1.957  10.930  0.3645 -1.0246 -0.2252
17958TIP3    H175289   3.309   1.995  11.016 -0.4441 -2.4914  0.6159
17958TIP3    H275290   3.361   1.889  10.921  2.3062  1.0174 -2.0489
17959TIP3   OH275291   3.296   3.489   2.104  0.7997 -0.3708 -0.5041
17959TIP3    H175292   3.308   3.451   2.017  0.7441 -0.8536 -0.3039
17959TIP3    H275293   3.355   3.439   2.160  0.2432 -0.6017 -0.1159
17960TIP3   OH275294   4.209   5.497   5.527  0.6462 -0.0701 -0.3876
17960TIP3    H175295   4.114   5.501   5.527  0.2201 -2.8984  4.0250
17960TIP3    H275296   4.237   5.587   5.540 -1.4829  0.6600 -0.4856
17961TIP3   OH275297   0.415   3.418  15.526 -0.2026 -0.1142 -0.1729
17961TIP3    H175298   0.367   3.467  15.460 -1.0265 -0.2417  0.3211
17961TIP3    H275299   0.352   3.354  15.559  0.7702 -1.3259 -0.6042
17962TIP3   OH275300   3.717   1.018  13.813 -0.4726 -0.2474 -1.0041
17962TIP3    H175301   3.702   0.954  13.743 -1.6590  0.3898 -1.3564
17962TIP3    H275302   3.673   1.097  13.782 -0.5123  0.2174  0.2159
17963TIP3   OH275303   0.790   3.738   1.375  0.0943 -0.0569  0.2376
17963TIP3    H175304   0.702   3.768   1.399 -0.1227 -0.5893  0.1129
17963TIP3    H275305   0.775   3.665   1.315  0.6269  0.9395 -1.1586
17964TIP3   OH275306   0.213   6.443  16.407  0.8434 -0.4366 -0.1953
17964TIP3    H175307   0.131   6.394  16.416 -0.6022  1.4248 -2.1495
17964TIP3    H275308   0.256   6.403  16.331 -0.3167  1.1797 -1.7644
17965TIP3   OH275309   4.484   2.404   4.938 -0.1479  0.2985 -0.0236
17965TIP3    H175310   4.552   2.442   4.992 -0.5661 -0.7543  1.3144
17965TIP3    H275311   4.403   2.418   4.988 -0.6503 -0.0653 -0.7172
17966TIP3   OH275312   1.296   2.435  16.476  0.0178  0.0515  0.0031
17966TIP3    H175313   1.355   2.492  16.526  0.5852 -0.3711 -0.1727
17966TIP3    H275314   1.272   2.366  16.537  1.1584 -0.7765 -0.4540
17967TIP3   OH275315   1.061   0.203   4.058  0.0762 -0.0831 -0.5632
17967TIP3    H175316   1.010   0.189   3.978 -0.1754  0.6918 -0.5517
17967TIP3    H275317   1.151   0.209   4.028  0.2235 -1.7462 -0.5545
17968TIP3   OH275318   4.637   1.633  13.717  0.1703 -0.1916  0.1666
17968TIP3    H175319   4.707   1.592  13.666  1.8094  2.0603  0.4740
17968TIP3    H275320   4.566   1.568  13.715  2.2657 -2.6673  0.0049
17969TIP3   OH275321   2.711   6.124   3.246  0.1338  0.1081  0.2637
17969TIP3    H175322   2.627   6.091   3.213 -0.0731 -0.6052  1.4463
17969TIP3    H275323   2.775   6.089   3.185 -0.3533 -0.0722 -0.1582
17970TIP3   OH275324   5.158   5.201  15.081 -0.1477  0.2378  0.0966
17970TIP3    H175325   5.159   5.273  15.019  0.4196 -0.6491 -0.9647
17970TIP3    H275326   5.178   5.123  15.028  0.8262 -0.4810  1.4467
17971TIP3   OH275327   1.541   5.389  13.097  0.1139  0.3304  0.8011
17971TIP3    H175328   1.605   5.458  13.116 -1.1231  1.9323 -0.5285
17971TIP3    H275329   1.489   5.424  13.025 -1.0023 -1.7582  0.5103
17972TIP3   OH275330   0.952   5.463   4.093 -0.0885 -0.2613  0.3930
17972TIP3    H175331   0.889   5.440   4.162 -0.2729  0.3342  0.4357
17972TIP3    H275332   0.924   5.550   4.065 -0.6945 -0.9375 -1.2177
17973TIP3   OH275333   5.045   5.678  12.335 -0.1633  0.1007 -0.0167
17973TIP3    H175334   5.096   5.757  12.355  0.3238 -0.0515 -0.6267
17973TIP3    H275335   5.063   5.619  12.409  0.0384  0.2923  0.0883
17974TIP3   OH275336   5.706   5.749  15.893  0.4558  0.2851 -0.1249
17974TIP3    H175337   5.739   5.775  15.807  2.1342 -0.6016  0.2036
17974TIP3    H275338   5.757   5.802  15.955 -2.2526  2.5527  0.3624
17975TIP3   OH275339   5.634   2.699  12.358  0.4855  0.4611  0.1640
17975TIP3    H175340   5.579   2.656  12.292 -0.5814  1.5902  0.2743
17975TIP3    H275341   5.671   2.775  12.314  1.4839  0.0573  0.2783
17976TIP3   OH275342   2.821   3.100  11.019 -0.2557 -0.2223 -0.2649
17976TIP3    H175343   2.766   3.091  10.941  1.3462 -2.1654 -1.2726
17976TIP3    H275344   2.762   3.081  11.092 -1.2663 -0.7450 -1.1830
17977TIP3   OH275345   6.310   5.007  12.365  0.0212 -0.1312  0.3387
17977TIP3    H175346   6.292   4.934  12.425  0.1442 -0.0945  0.4202
17977TIP3    H275347   6.227   5.056  12.362 -0.1947 -0.5114 -0.0489
17978TIP3   OH275348   0.340   6.075   5.951 -0.4177 -0.3077  0.1152
17978TIP3    H175349   0.275   6.138   5.980 -0.3054 -0.1765  0.0851
17978TIP3    H275350   0.380   6.042   6.031 -2.0337 -2.0313  0.2678
17979TIP3   OH275351   2.786   2.562  16.542  0.4360  0.4527 -0.0488
17979TIP3    H175352   2.842   2.529  16.612  0.7968  0.6795 -0.2257
17979TIP3    H275353   2.789   2.494  16.475  0.2413  0.3191  0.0805
17980TIP3   OH275354   0.044   3.540  17.026  0.4950  0.3381  0.4549
17980TIP3    H175355   0.113   3.479  17.052  0.1393  0.0928  0.8367
17980TIP3    H275356  -0.025   3.528  17.092  0.2683  0.8848  0.3209
17981TIP3   OH275357   6.590   3.060   5.793  0.5946 -0.6716 -0.2925
17981TIP3    H175358   6.515   3.002   5.790 -0.6628  0.7884  0.9946
17981TIP3    H275359   6.599   3.093   5.704 -0.8321 -0.2739 -0.3182
17982TIP3   OH275360   0.497   6.439   3.692 -0.7050  0.1557 -0.5559
17982TIP3    H175361   0.427   6.505   3.688 -0.4939  0.3962 -0.3208
17982TIP3    H275362   0.477   6.387   3.770 -0.0600  0.8717  0.1117
17983TIP3   OH275363   3.196   5.583   1.274 -0.1079  0.1914  0.0596
17983TIP3    H175364   3.242   5.500   1.288 -0.3843 -0.1341 -0.8605
17983TIP3    H275365   3.133   5.563   1.205 -0.6957  0.9814  0.3581
17984TIP3   OH275366   2.226   0.191  15.973  0.1163 -0.2864  0.2145
17984TIP3    H175367   2.236   0.218  16.064 -0.5155 -1.8419  0.7833
17984TIP3    H275368   2.153   0.244  15.940 -1.3160 -1.4041  1.3975
17985TIP3   OH275369   3.641   1.947   4.311 -0.2692  0.9447 -0.2283
17985TIP3    H175370   3.633   1.928   4.217  1.1436  3.0280 -0.8370
17985TIP3    H275371   3.618   2.039   4.320 -0.6004  0.7303  1.5285
17986TIP3   OH275372   5.243   6.309   5.362 -0.0044  0.4767 -0.0711
17986TIP3    H175373   5.162   6.269   5.331 -0.0524  1.7424 -1.7439
17986TIP3    H275374   5.265   6.374   5.294  1.6036  1.2026  1.0805
17987TIP3   OH275375   2.121   0.482   1.914 -0.4310 -0.3647  0.1881
17987TIP3    H175376   2.081   0.441   1.837 -0.4216 -0.5782  0.2966
17987TIP3    H275377   2.068   0.452   1.988  0.4298 -1.3460  0.4322
17988TIP3   OH275378   2.233   2.782  12.997 -0.7338  0.1525 -0.0057
17988TIP3    H175379   2.156   2.754  12.948  0.7186 -3.4796 -0.5761
17988TIP3    H275380   2.264   2.861  12.953 -2.4994  0.0244 -1.5568
17989TIP3   OH275381   0.521   2.194  10.618  0.4596 -0.4244 -0.6118
17989TIP3    H175382   0.605   2.240  10.614  0.6158 -0.5883  0.5593
17989TIP3    H275383   0.456   2.264  10.630  0.5373 -0.3799 -0.4452
17990TIP3   OH275384   1.235   1.683   3.561 -0.9198 -0.3339  0.2792
17990TIP3    H175385   1.303   1.627   3.525 -0.7701 -0.0122  0.0522
17990TIP3    H275386   1.243   1.765   3.511 -0.2738  0.3696  1.4755
17991TIP3   OH275387   2.359   1.732   6.393 -0.4588 -0.0838  0.1831
17991TIP3    H175388   2.294   1.685   6.446 -0.3537  0.9302  1.2607
17991TIP3    H275389   2.384   1.807   6.447 -0.1378  0.8460 -1.2078
17992TIP3   OH275390   4.102   1.443  13.520 -0.6195  0.3436 -0.5633
17992TIP3    H175391   4.090   1.360  13.566 -1.1653 -0.3046 -1.8224
17992TIP3    H275392   4.025   1.494  13.543 -0.0088  0.7399  0.6632
17993TIP3   OH275393   3.611   5.232  15.313 -0.4573  0.1943 -0.3223
17993TIP3    H175394   3.606   5.203  15.222 -1.0660  0.3556 -0.3422
17993TIP3    H275395   3.575   5.159  15.363 -0.2825  0.1748 -0.2252
17994TIP3   OH275396   4.752   1.074   2.205  0.0480  0.0843  0.7087
17994TIP3    H175397   4.789   1.160   2.186 -0.6996  0.2976  0.1673
17994TIP3    H275398   4.657   1.087   2.199 -0.0581 -0.8568  0.2827
17995TIP3   OH275399   2.437   0.427  13.905 -0.3913  0.1002  0.3399
17995TIP3    H175400   2.460   0.374  13.981 -1.2754  0.7293  1.0740
17995TIP3    H275401   2.507   0.412  13.842 -0.0847 -1.1012  0.9448
17996TIP3   OH275402   5.950   3.544   2.711 -0.6295  0.0007 -0.4825
17996TIP3    H175403   5.875   3.599   2.689  0.8167  2.5377  0.4096
17996TIP3    H275404   5.915   3.456   2.718 -3.2226  0.8580 -1.4669
17997TIP3   OH275405   4.525   1.701   5.731  0.0285  0.0399  0.1898
17997TIP3    H175406   4.537   1.664   5.818  1.1679  2.6584  1.2694
17997TIP3    H275407   4.576   1.644   5.673  0.8816 -0.6515  1.5747
17998TIP3   OH275408   2.197   0.816  10.582 -0.0207  0.0819  0.2989
17998TIP3    H175409   2.235   0.805  10.495 -0.1093 -1.1201  0.3919
17998TIP3    H275410   2.240   0.749  10.635 -1.8285 -0.9497  0.5495
17999TIP3   OH275411   3.556   2.991   0.949  0.1105  0.2674  0.3420
17999TIP3    H175412   3.569   3.069   1.002  0.3319  0.2692  0.2888
17999TIP3    H275413   3.464   2.967   0.962  0.2207  0.1391  0.8939
18000TIP3   OH275414   1.120   3.960   0.070 -0.4546  0.3065 -0.2304
18000TIP3    H175415   1.155   3.994  -0.012  0.9502 -1.1072 -0.2615
18000TIP3    H275416   1.196   3.953   0.128 -1.3158  0.6828  0.9927
18001TIP3   OH275417   6.218   3.471   0.327 -0.4540 -0.5215  0.5285
18001TIP3    H175418   6.178   3.417   0.259 -1.5771  1.7649 -0.7268
18001TIP3    H275419   6.260   3.543   0.280  0.7645 -0.0956  2.1532
18002TIP3   OH275420   0.649   6.319  11.751  0.4015 -0.4015 -0.1285
18002TIP3    H175421   0.576   6.378  11.731 -0.2684 -0.8734  0.8677
18002TIP3    H275422   0.608   6.235  11.769  1.1296 -0.5473  0.9496
18003TIP3   OH275423   6.270   3.456  17.208 -0.1479 -0.4241  0.5921
18003TIP3    H175424   6.239   3.379  17.254 -0.6781  0.0181  0.9892
18003TIP3    H275425   6.207   3.525  17.231  1.7637  0.8103  2.3594
18004TIP3   OH275426   3.157   6.303   1.428  0.4933  0.5625  0.4993
18004TIP3    H175427   3.232   6.338   1.379 -0.0791  1.5015  0.2706
18004TIP3    H275428   3.192   6.226   1.472  1.8653  1.5567  1.2271
18005TIP3   OH275429   0.349   2.825   0.812 -0.5475  0.2553  0.3882
18005TIP3    H175430   0.320   2.816   0.721 -1.2151 -1.7218  0.7505
18005TIP3    H275431   0.431   2.874   0.807 -0.6455  0.2905 -1.2607
18006TIP3   OH275432   6.528   6.525  16.960 -0.2056  0.0324  0.0029
18006TIP3    H175433   6.450   6.527  17.016  0.1781 -0.0009  0.5482
18006TIP3    H275434   6.569   6.441  16.980  0.5831  0.5342  0.5811
18007TIP3   OH275435   1.360   2.666  14.754  0.3300 -0.6381 -0.1324
18007TIP3    H175436   1.409   2.600  14.704  0.5609 -0.4958 -0.0974
18007TIP3    H275437   1.296   2.701  14.692  1.6825  0.7011 -0.8337
18008TIP3   OH275438   5.837   2.742  15.684  0.2010  0.2291  0.0532
18008TIP3    H175439   5.863   2.663  15.732 -1.4339 -0.4916 -0.1627
18008TIP3    H275440   5.881   2.734  15.600 -0.9455 -1.1632 -0.4586
18009TIP3   OH275441   0.013   2.784   4.303 -0.5895  0.4611 -0.2603
18009TIP3    H175442  -0.023   2.696   4.309  0.1510  0.1599 -0.2073
18009TIP3    H275443  -0.040   2.835   4.365  0.2321 -0.3781  1.2024
18010TIP3   OH275444   6.474   2.060  14.328 -0.3280 -0.2594 -0.0203
18010TIP3    H175445   6.541   2.002  14.364 -0.8578 -0.3126  0.9056
18010TIP3    H275446   6.499   2.147  14.357  0.3310 -0.0180 -1.2084
18011TIP3   OH275447   6.047   0.035   1.193 -0.5565  0.6176 -0.1584
18011TIP3    H175448   6.046  -0.001   1.104  0.8546 -1.1782  0.4862
18011TIP3    H275449   5.956   0.026   1.223 -0.6757 -0.4906 -0.7869
18012TIP3   OH275450   4.079   4.724   0.494  0.0106  0.4135  0.2563
18012TIP3    H175451   4.056   4.687   0.409 -1.1278 -0.5813  0.9739
18012TIP3    H275452   4.174   4.711   0.500  0.2842  1.3728 -1.2392
18013TIP3   OH275453   3.391   0.926  11.234  0.2688  0.2076 -0.1177
18013TIP3    H175454   3.320   0.948  11.174  0.8036  0.7579 -0.5595
18013TIP3    H275455   3.437   0.853  11.192 -1.1932 -1.4955  1.1006
18014TIP3   OH275456   5.626   2.470  17.076 -0.1600 -0.0318  0.2750
18014TIP3    H175457   5.562   2.507  17.015 -1.1624  1.3845  2.0829
18014TIP3    H275458   5.700   2.531  17.073  0.4318 -0.7484 -0.5353
18015TIP3   OH275459   6.001   4.532  11.083  0.1138 -0.0628 -0.3485
18015TIP3    H175460   6.014   4.490  10.998  0.7097 -0.2451 -0.1686
18015TIP3    H275461   5.923   4.587  11.071  0.4950  0.3040 -1.1592
18016TIP3   OH275462   5.562   4.035   5.007 -0.3011  0.3109  0.5821
18016TIP3    H175463   5.656   4.023   5.020  0.0382  1.2226 -0.8316
18016TIP3    H275464   5.553   4.057   4.914 -2.1193 -1.5857  0.2432
18017TIP3   OH275465   4.652   4.219  13.833  0.3697  0.0045 -0.0540
18017TIP3    H175466   4.680   4.257  13.750  0.7766 -0.1694  0.0012
18017TIP3    H275467   4.720   4.154  13.854 -1.0387 -1.8250 -0.8878
18018TIP3   OH275468   4.826   3.245   0.247 -0.0394  0.0470 -0.2929
18018TIP3    H175469   4.888   3.180   0.282  0.5447  0.3527 -0.7463
18018TIP3    H275470   4.756   3.192   0.209 -0.4438 -0.2945  0.9000
18019TIP3   OH275471   2.701   6.315  12.597 -0.1175 -0.0478 -0.0506
18019TIP3    H175472   2.732   6.270  12.676 -1.0459 -1.6944 -0.5797
18019TIP3    H275473   2.609   6.335  12.616 -0.0947  0.3892 -0.3781
18020TIP3   OH275474   3.398   5.845  13.075  0.3100 -0.1531  0.5553
18020TIP3    H175475   3.414   5.882  13.162  0.3515  0.5834  0.2412
18020TIP3    H275476   3.434   5.756  13.080  0.3318 -0.1105  1.2791
18021TIP3   OH275477   1.329   1.783   5.325 -0.7280  0.5486 -0.4257
18021TIP3    H175478   1.388   1.799   5.399 -0.1022  2.5230 -1.2826
18021TIP3    H275479   1.387   1.780   5.249 -1.3134 -1.8648 -0.8748
18022TIP3   OH275480   6.343   1.476   5.127 -0.2022 -0.7321  0.4131
18022TIP3    H175481   6.291   1.524   5.191 -1.1520  1.2610 -1.7251
18022TIP3    H275482   6.428   1.520   5.127 -0.8176  0.5340 -0.9805
18023TIP3   OH275483   1.788   2.821   3.525 -0.0133 -0.0643 -0.5011
18023TIP3    H175484   1.803   2.915   3.516  0.2761 -0.1830 -1.3489
18023TIP3    H275485   1.829   2.798   3.608  0.2048  0.5046 -0.4489
18024TIP3   OH275486   5.194   1.073   1.030 -0.3701 -0.4645 -0.1975
18024TIP3    H175487   5.263   1.070   1.097 -1.0269 -0.9562  0.4754
18024TIP3    H275488   5.237   1.046   0.949  0.3895 -0.0598  0.0595
18025TIP3   OH275489   6.096   1.862   4.113 -0.2221  0.4564  0.6618
18025TIP3    H175490   6.069   1.803   4.042 -0.9605  1.3481  0.1817
18025TIP3    H275491   6.091   1.949   4.075  2.7531  0.7844  0.7214
18026TIP3   OH275492   6.134   5.905   4.635  0.0608 -0.3194  0.1135
18026TIP3    H175493   6.216   5.927   4.591 -0.0943  0.0910  0.0174
18026TIP3    H275494   6.160   5.872   4.720  0.2759  1.8999  0.9769
18027TIP3   OH275495   2.853   0.339   5.551 -0.1049  0.1421  0.2516
18027TIP3    H175496   2.801   0.383   5.483 -0.0455 -0.6318 -0.2984
18027TIP3    H275497   2.874   0.409   5.613  1.0606  1.1846 -1.2573
18028TIP3   OH275498   6.082   0.391  11.737 -0.1448 -0.4698 -0.4990
18028TIP3    H175499   6.017   0.327  11.767 -1.1565  0.6158 -0.3187
18028TIP3    H275500   6.118   0.353  11.657  0.0558 -1.7591  0.1777
18029TIP3   OH275501   5.518   2.076   3.784  0.0072  0.4634  0.0415
18029TIP3    H175502   5.502   2.169   3.769 -1.7477  0.1668 -0.1331
18029TIP3    H275503   5.605   2.072   3.825 -0.6254  2.3276  1.6987
18030TIP3   OH275504   1.098   1.008   4.232  0.3538  0.0919  0.4212
18030TIP3    H175505   1.166   1.057   4.187  0.1147 -0.4207 -0.5497
18030TIP3    H275506   1.064   1.068   4.299  1.3120  0.5682  0.4900
18031TIP3   OH275507   4.520   4.382  11.211 -0.3009  0.4347 -0.0189
18031TIP3    H175508   4.557   4.445  11.149  2.3190 -2.3003 -1.5141
18031TIP3    H275509   4.468   4.323  11.157  0.0900 -0.6339  0.7379
18032TIP3   OH275510   2.268   3.712   0.776  0.7441  0.2074  0.2469
18032TIP3    H175511   2.322   3.788   0.796  1.2415 -0.2912  0.8250
18032TIP3    H275512   2.326   3.654   0.726  1.5003 -1.3083  2.7037
18033TIP3   OH275513   5.670   3.256   1.546 -0.0902  0.4866 -0.1398
18033TIP3    H175514   5.610   3.182   1.539  0.1512  0.3227 -0.4633
18033TIP3    H275515   5.726   3.250   1.469  1.2759 -0.1760  0.8618
18034TIP3   OH275516   1.164   0.540  11.508  0.0539  0.4191 -0.0999
18034TIP3    H175517   1.218   0.543  11.588 -1.0516  1.2006  0.6379
18034TIP3    H275518   1.228   0.545  11.437  1.0130  0.6767  0.7416
18035TIP3   OH275519   6.641   1.439  13.068  0.6607 -0.0861  0.2944
18035TIP3    H175520   6.630   1.348  13.095 -2.5018  0.0285 -0.2426
18035TIP3    H275521   6.735   1.456  13.077  1.1294 -2.9443  1.7452
18036TIP3   OH275522   2.039   3.854   3.169  0.2580  0.0447 -0.3139
18036TIP3    H175523   2.017   3.778   3.221 -0.3392  0.8224  0.6034
18036TIP3    H275524   2.052   3.820   3.080  0.4403 -1.1653  0.1630
18037TIP3   OH275525   3.997   4.344  16.045 -0.8061  0.2055  0.4711
18037TIP3    H175526   3.950   4.411  16.095 -0.6151 -1.6975  3.4234
18037TIP3    H275527   4.064   4.312  16.105  1.2147 -0.4517 -1.9873
18038TIP3   OH275528   0.048   4.756  12.836 -0.1982 -0.0513  0.2227
18038TIP3    H175529  -0.027   4.710  12.798 -0.3603  0.0328  0.4404
18038TIP3    H275530   0.010   4.833  12.879  0.0790  0.3132 -0.1811
18039TIP3   OH275531   3.861   5.374  14.973 -0.6239 -0.6649  0.0097
18039TIP3    H175532   3.950   5.340  14.983  0.2530  0.5929 -2.6121
18039TIP3    H275533   3.845   5.424  15.052  1.0644 -0.8199  0.4949
18040TIP3   OH275534   3.859   1.330  14.851  0.0376  0.0864  0.7549
18040TIP3    H175535   3.811   1.392  14.796  2.2820  0.6178 -0.7165
18040TIP3    H275536   3.949   1.332  14.818  1.3603 -0.1730  3.9336
18041TIP3   OH275537   2.066   1.843   5.416  0.3606  0.0222  0.0737
18041TIP3    H175538   2.049   1.891   5.497 -3.1547  0.1723 -0.5672
18041TIP3    H275539   2.057   1.751   5.440  0.0617  0.0328  0.0078
18042TIP3   OH275540   1.315   5.514  16.865  0.3242 -0.5016  0.5946
18042TIP3    H175541   1.252   5.586  16.872  0.6059  0.1946 -2.7499
18042TIP3    H275542   1.309   5.470  16.950 -0.4979  2.8782  2.4774
18043TIP3   OH275543   5.221   6.534  16.082 -0.0127  0.4117 -0.2997
18043TIP3    H175544   5.229   6.615  16.031  2.2163 -0.0080 -0.7075
18043TIP3    H275545   5.297   6.534  16.140 -0.7671 -0.7105  0.7553
18044TIP3   OH275546   5.349   5.276  10.200  0.0084  0.6501 -0.3845
18044TIP3    H175547   5.355   5.335  10.275  0.3170 -0.6054  0.6289
18044TIP3    H275548   5.438   5.272  10.165 -0.1650  1.3448 -0.9096
18045TIP3   OH275549   1.718   5.274   2.860  0.2142 -0.4109 -0.3796
18045TIP3    H175550   1.679   5.197   2.819  0.3226  0.5823 -2.4840
18045TIP3    H275551   1.658   5.297   2.930  0.1000 -2.2895  0.2130
18046TIP3   OH275552   0.516   5.644   3.106 -0.9164 -0.4481  0.4271
18046TIP3    H175553   0.592   5.633   3.163 -1.1637 -0.5691  0.7400
18046TIP3    H275554   0.484   5.555   3.092 -0.2579 -0.5261 -0.7435
18047TIP3   OH275555   4.285   4.096  11.235  0.0607 -0.0091  0.7726
18047TIP3    H175556   4.329   4.162  11.182  0.0419  0.1819  0.9901
18047TIP3    H275557   4.260   4.027  11.174  1.1232 -0.3605  0.7243
18048TIP3   OH275558   3.110   3.126  15.033  0.3686 -0.0413  0.5274
18048TIP3    H175559   3.079   3.039  15.007  0.2229 -0.3655  1.7168
18048TIP3    H275560   3.205   3.121  15.023  0.1766  1.2090 -3.9040
18049TIP3   OH275561   6.110   5.513   1.088 -0.2340 -0.0222  0.0992
18049TIP3    H175562   6.074   5.502   1.000 -1.0944 -0.8508  0.5380
18049TIP3    H275563   6.200   5.543   1.073  0.0220 -1.2647 -1.0877
18050TIP3   OH275564   0.944   4.067   0.403 -0.0618 -1.0054 -0.5662
18050TIP3    H175565   0.882   4.092   0.472  0.5019  1.1947 -0.7710
18050TIP3    H275566   1.027   4.054   0.448 -0.0586 -1.1911 -0.6255
18051TIP3   OH275567   4.931   0.372  12.820  0.6076  0.0317  0.3227
18051TIP3    H175568   4.893   0.287  12.841  0.4162 -0.0339 -0.2696
18051TIP3    H275569   4.985   0.394  12.896 -0.2045 -0.1082  0.9459
18052TIP3   OH275570   0.778   6.466   0.601  0.2092  0.2289 -0.0392
18052TIP3    H175571   0.742   6.481   0.688  0.3582  0.4841 -0.0197
18052TIP3    H275572   0.716   6.405   0.560  1.0682 -1.2799  0.8429
18053TIP3   OH275573   4.809   1.369  12.297 -0.0837  0.2233 -0.1769
18053TIP3    H175574   4.760   1.323  12.365 -0.9398 -1.6056 -1.9463
18053TIP3    H275575   4.874   1.420  12.345 -1.8584  0.5037  2.0986
18054TIP3   OH275576   3.734   4.798   4.644  0.1418 -0.6399 -0.7227
18054TIP3    H175577   3.726   4.708   4.674 -1.9048 -0.8110 -1.6466
18054TIP3    H275578   3.760   4.791   4.552  0.9248 -0.2546 -0.5370
18055TIP3   OH275579   3.444   3.204  10.705 -0.1915  0.5877 -0.0485
18055TIP3    H175580   3.480   3.168  10.786 -1.7752  1.9722  1.3513
18055TIP3    H275581   3.501   3.277  10.683 -1.2634  1.9536  1.4348
18056TIP3   OH275582   0.122   4.691  15.062  0.0143 -0.5508 -0.6634
18056TIP3    H175583   0.033   4.701  15.028  0.1069  0.4369 -0.6597
18056TIP3    H275584   0.110   4.667  15.154 -0.2794  0.7389 -0.3378
18057TIP3   OH275585   2.375   4.082  13.448  0.4535 -0.0067 -0.3080
18057TIP3    H175586   2.457   4.060  13.493  0.5278  0.2153 -0.3374
18057TIP3    H275587   2.324   4.131  13.513  0.3548 -0.1184 -0.3003
18058TIP3   OH275588   3.816   6.052   5.844 -0.1845 -0.0297  0.4290
18058TIP3    H175589   3.727   6.019   5.833  0.1101 -0.8456  0.4319
18058TIP3    H275590   3.866   5.977   5.876  0.8242 -0.0285 -1.0035
18059TIP3   OH275591   6.698   0.900  12.253  0.1105  0.5299 -0.0221
18059TIP3    H175592   6.718   0.922  12.344  0.0491  0.2657  0.0558
18059TIP3    H275593   6.779   0.919  12.205  0.7198 -0.9303  0.3541
18060TIP3   OH275594   6.535   3.212   1.112  0.0821 -0.3571  0.1320
18060TIP3    H175595   6.627   3.238   1.107  0.5656 -1.8720  0.6545
18060TIP3    H275596   6.492   3.287   1.153  1.1187  0.2737  0.1276
18061TIP3   OH275597   0.030   4.175   2.604  0.4482  0.3645  0.3895
18061TIP3    H175598   0.110   4.149   2.650  1.0706  0.6690 -0.5063
18061TIP3    H275599   0.007   4.260   2.642  1.7210  1.2641 -0.7729
18062TIP3   OH275600   0.886   2.523  15.272  0.1522  0.4107 -0.0565
18062TIP3    H175601   0.956   2.490  15.328  0.6351  1.6688  0.1084
18062TIP3    H275602   0.843   2.444  15.239  0.5250 -0.3620  1.2286
18063TIP3   OH275603   3.079   4.668   4.802 -0.3349 -0.1367 -0.8802
18063TIP3    H175604   3.163   4.709   4.782  0.1837  0.0514  1.4755
18063TIP3    H275605   3.028   4.736   4.845 -0.5147 -1.0905  0.4898
18064TIP3   OH275606   2.037   0.422  12.482  0.0560  0.6166  0.1736
18064TIP3    H175607   1.977   0.442  12.410 -0.6019 -1.3986  0.0716
18064TIP3    H275608   2.019   0.330  12.502  0.3557  1.0514  2.8019
18065TIP3   OH275609   1.086   4.342  15.489  0.8284 -0.6789  0.2188
18065TIP3    H175610   1.172   4.378  15.509  0.7990 -0.7050  0.4001
18065TIP3    H275611   1.056   4.306  15.572 -1.0598  2.7968  1.2554
18066TIP3   OH275612   5.860   4.567   2.711 -0.1437 -0.1213 -0.4537
18066TIP3    H175613   5.913   4.536   2.638 -0.1461 -1.6401  0.1565
18066TIP3    H275614   5.901   4.649   2.737 -0.3531  0.6408 -2.3663
18067TIP3   OH275615   0.924   4.064  14.930 -0.0776  0.1286 -0.4231
18067TIP3    H175616   0.899   4.068  15.022  0.6643 -0.9498 -0.1626
18067TIP3    H275617   0.863   4.002  14.891  0.9198 -1.0325 -0.1928
18068TIP3   OH275618   1.672   2.340   0.647 -0.3935  0.0700 -0.1097
18068TIP3    H175619   1.701   2.316   0.735  0.1501  2.8527  0.5609
18068TIP3    H275620   1.578   2.355   0.656 -0.4392 -0.2113 -0.1302
18069TIP3   OH275621   3.852   5.532  16.366  0.2903 -0.6547 -0.3599
18069TIP3    H175622   3.938   5.572  16.351 -0.3121  1.6105  1.6534
18069TIP3    H275623   3.791   5.605  16.362 -1.5321 -2.1584 -1.2329
18070TIP3   OH275624   0.427   4.681   1.219  0.3368 -0.1252  0.2457
18070TIP3    H175625   0.486   4.750   1.189 -1.6869  1.7746  0.3418
18070TIP3    H275626   0.483   4.605   1.231  2.3963  0.9944 -1.5561
18071TIP3   OH275627   2.406   5.267  11.598  0.0340 -0.1018 -0.5485
18071TIP3    H175628   2.393   5.335  11.665  1.8254 -0.3993  0.1463
18071TIP3    H275629   2.447   5.194  11.645 -0.7005 -1.1901 -1.5442
18072TIP3   OH275630   2.005   4.500  12.431 -0.4816  0.2114  0.6172
18072TIP3    H175631   2.044   4.434  12.374  0.8358  2.3166 -1.0923
18072TIP3    H275632   2.006   4.460  12.518 -0.6324 -2.3317 -0.4569
18073TIP3   OH275633   0.720   0.702  14.385 -0.1704 -0.1534  0.0621
18073TIP3    H175634   0.727   0.609  14.405  1.3460 -0.0970 -0.0522
18073TIP3    H275635   0.790   0.717  14.321 -0.4941  1.0308 -0.0290
18074TIP3   OH275636   1.982   3.047   0.095  0.0162 -0.7058 -0.3720
18074TIP3    H175637   1.887   3.057   0.094  0.1501  0.8319  0.0057
18074TIP3    H275638   1.997   2.955   0.075 -1.4748 -0.4702 -3.0056
18075TIP3   OH275639   0.209   6.574  12.465 -0.1986  0.0100 -0.0629
18075TIP3    H175640   0.279   6.513  12.491  0.0808  0.1883 -0.3824
18075TIP3    H275641   0.245   6.661  12.485 -1.4204  0.0304  2.4415
18076TIP3   OH275642   2.502   5.358  11.823 -0.1149 -0.0049 -0.1370
18076TIP3    H175643   2.507   5.452  11.807  0.2764 -0.3019 -2.0524
18076TIP3    H275644   2.518   5.348  11.917 -1.5467  1.9150  0.3506
18077TIP3   OH275645   2.270   3.670  15.341 -0.3172 -0.1150  0.0285
18077TIP3    H175646   2.334   3.724  15.295  0.1081  0.9478  1.7889
18077TIP3    H275647   2.186   3.697  15.305  0.0724 -0.0638 -0.8608
18078TIP3   OH275648   2.404   6.299   2.416 -0.3756  0.1505 -0.0909
18078TIP3    H175649   2.462   6.368   2.386  0.4559 -0.2323  0.6007
18078TIP3    H275650   2.331   6.300   2.353  0.5406  0.3997 -1.1836
18079TIP3   OH275651   6.717   2.940  13.856  0.1515  0.3245  0.0005
18079TIP3    H175652   6.777   2.963  13.785  2.3168  0.6746  1.8439
18079TIP3    H275653   6.646   3.005  13.849  1.4209  1.7189 -0.5616
18080TIP3   OH275654   5.507   3.633  16.587  0.2521  0.1198  0.0266
18080TIP3    H175655   5.472   3.561  16.640 -1.2296  0.1554 -0.8595
18080TIP3    H275656   5.572   3.592  16.530 -2.1220 -1.0283 -2.0464
18081TIP3   OH275657   1.052   0.599   4.816 -0.3161 -0.1072 -1.1057
18081TIP3    H175658   1.095   0.604   4.730  1.4073  0.5155 -0.2436
18081TIP3    H275659   1.047   0.689   4.846  0.2951 -0.4325  0.0104
18082TIP3   OH275660   4.170   1.561   1.688 -0.2219  0.3743  0.0611
18082TIP3    H175661   4.133   1.513   1.614 -0.8784  1.1456 -0.1369
18082TIP3    H275662   4.209   1.639   1.648 -0.0927  0.5178  0.4660
18083TIP3   OH275663   5.584   1.536  14.014 -0.0396 -0.3067 -0.5943
18083TIP3    H175664   5.566   1.445  14.035  2.9398 -1.4110 -2.2187
18083TIP3    H275665   5.595   1.537  13.919  3.4523  0.9266 -0.3256
18084TIP3   OH275666   2.367   4.107  17.206  0.2954  0.2497  0.5814
18084TIP3    H175667   2.432   4.134  17.141 -0.5121  0.5307 -0.1246
18084TIP3    H275668   2.337   4.189  17.245  0.2394  0.1344  0.7830
18085TIP3   OH275669   2.310   0.477  14.274  0.4978 -0.4030  0.0697
18085TIP3    H175670   2.403   0.467  14.257  0.3003  0.4614 -1.7154
18085TIP3    H275671   2.298   0.570  14.292 -0.0214 -0.5179  0.3561
18086TIP3   OH275672   6.391   1.704  13.630  0.3454 -0.4157 -0.2781
18086TIP3    H175673   6.377   1.798  13.621  2.7563 -0.1133 -1.8909
18086TIP3    H275674   6.397   1.672  13.539  3.6833 -1.3290  0.1311
18087TIP3   OH275675   5.806   1.854  16.515  0.2159  0.0886 -0.0362
18087TIP3    H175676   5.717   1.819  16.520  0.3365 -0.1238  0.8323
18087TIP3    H275677   5.851   1.799  16.451  0.0354 -0.5227  0.3594
18088TIP3   OH275678   3.825   2.438   0.355 -0.5176  0.6745 -0.7564
18088TIP3    H175679   3.886   2.405   0.288 -0.4020 -0.1520 -0.2527
18088TIP3    H275680   3.746   2.460   0.306 -0.2514  0.5768 -1.2404
18089TIP3   OH275681   0.824   1.651   2.617  0.0722 -1.0743 -0.1917
18089TIP3    H175682   0.827   1.578   2.555  0.5481  0.1395 -1.6560
18089TIP3    H275683   0.750   1.704   2.589  1.7710  0.8293 -1.3712
18090TIP3   OH275684   0.478   6.716  14.990  0.2586  0.5510  0.5473
18090TIP3    H175685   0.429   6.714  14.908  1.6457  2.9354 -0.4573
18090TIP3    H275686   0.523   6.632  14.994 -0.2043  0.2038 -0.8925
18091TIP3   OH275687   4.199   2.313  12.913  0.0921 -0.3941  0.4930
18091TIP3    H175688   4.127   2.330  12.851  2.6494  0.8167 -2.4223
18091TIP3    H275689   4.161   2.255  12.979 -3.5547  0.2819 -0.7886
18092TIP3   OH275690   5.129   3.580  15.343  0.5067  0.2539 -0.5219
18092TIP3    H175691   5.131   3.533  15.426  0.4184 -1.5184 -1.4760
18092TIP3    H275692   5.220   3.581  15.314  0.4274  0.2163 -0.7705
18093TIP3   OH275693   0.363   6.322   0.876  0.4375 -0.0512  0.4052
18093TIP3    H175694   0.335   6.232   0.891  1.2380 -0.1917  1.0838
18093TIP3    H275695   0.361   6.332   0.781 -0.5291 -0.4939  0.3668
18094TIP3   OH275696   0.952   1.837   2.216  0.1166 -0.2798 -0.4400
18094TIP3    H175697   0.996   1.892   2.151  1.0045 -0.4938 -0.0395
18094TIP3    H275698   0.971   1.747   2.188  1.7314 -0.3911  0.8776
18095TIP3   OH275699   2.207   2.437  11.944  0.3444  0.3349  0.2672
18095TIP3    H175700   2.283   2.433  12.002 -0.5613 -1.2124  1.4040
18095TIP3    H275701   2.194   2.347  11.915 -1.4823  0.4273  0.6848
18096TIP3   OH275702   1.534   2.421  13.519 -0.1398 -0.0237  0.3891
18096TIP3    H175703   1.541   2.452  13.609 -1.5739  0.1432  0.4647
18096TIP3    H275704   1.606   2.464  13.473  1.0780 -0.7232  1.6121
18097TIP3   OH275705   2.473   0.452   1.364  0.3549  0.1750 -0.7669
18097TIP3    H175706   2.404   0.387   1.351 -1.5439  1.8795  0.2031
18097TIP3    H275707   2.471   0.505   1.284  0.5170  0.2531 -0.7193
18098TIP3   OH275708   6.166   0.487  12.726 -0.7012  0.1680 -0.1288
18098TIP3    H175709   6.155   0.579  12.702  1.5482  0.2337 -1.0764
18098TIP3    H275710   6.220   0.488  12.805  1.2609 -0.3461 -1.3991
18099TIP3   OH275711   2.771   0.648   0.913 -0.2192 -0.0797 -0.2082
18099TIP3    H175712   2.771   0.711   0.985 -2.7689 -0.0190 -0.1679
18099TIP3    H275713   2.845   0.590   0.933 -1.6074 -0.9395  3.3421
18100TIP3   OH275714   3.726   4.976   0.365  0.5985  0.3788  0.1023
18100TIP3    H175715   3.799   5.037   0.372 -0.8380  2.6291 -2.4901
18100TIP3    H275716   3.733   4.940   0.277 -1.2947  0.5730 -0.1764
18101TIP3   OH275717   4.952   3.997   0.756 -0.4741  0.5040  0.2861
18101TIP3    H175718   4.868   3.997   0.803 -0.3618 -1.8310  0.6152
18101TIP3    H275719   5.016   3.968   0.821 -0.0685 -1.3400 -0.8582
18102TIP3   OH275720   3.722   6.561  12.253 -0.0535 -0.2960 -0.0032
18102TIP3    H175721   3.634   6.592  12.273 -0.0186 -0.7034  0.8026
18102TIP3    H275722   3.778   6.638  12.262 -0.6832  0.7044 -3.4359
18103TIP3   OH275723   2.376   2.590   0.123  0.7153 -0.1063 -0.3279
18103TIP3    H175724   2.372   2.496   0.109  1.8020 -0.1011 -0.7654
18103TIP3    H275725   2.331   2.604   0.207  1.1049 -1.0894  0.0562
18104TIP3   OH275726   6.105   2.159   4.069  0.3743  0.4302  0.0070
18104TIP3    H175727   6.136   2.221   4.004  0.2159  0.8661  0.3430
18104TIP3    H275728   6.164   2.170   4.143  2.8467 -2.5634 -1.2978
18105TIP3   OH275729   6.247   5.914   1.360 -0.1539  0.1021  0.4033
18105TIP3    H175730   6.306   5.990   1.359 -0.1017  0.0662  0.7092
18105TIP3    H275731   6.164   5.948   1.325  0.2870 -0.0525 -0.8616
18106TIP3   OH275732   1.191   4.980   5.551  0.1863 -0.2863  0.1845
18106TIP3    H175733   1.123   5.046   5.567 -0.8870 -0.7332 -2.0968
18106TIP3    H275734   1.266   5.031   5.520  0.4326  0.0889  1.3445
18107TIP3   OH275735   3.448   5.634  13.851  0.0426 -0.3285 -0.4099
18107TIP3    H175736   3.467   5.598  13.938 -2.3162  2.8923  1.7004
18107TIP3    H275737   3.353   5.636  13.847  0.0724 -1.2169 -3.5586
18108TIP3   OH275738   3.118   0.174   5.301 -0.2209  0.4035 -0.2256
18108TIP3    H175739   3.024   0.186   5.313 -0.5685  0.3725 -2.4223
18108TIP3    H275740   3.147   0.129   5.380 -2.2168 -0.3477  0.1480
18109TIP3   OH275741   2.379   2.897  12.321 -0.5496 -0.4291  0.2652
18109TIP3    H175742   2.313   2.835  12.291  0.6157 -1.6657  0.1724
18109TIP3    H275743   2.454   2.843  12.346  0.2495  0.8952  0.8779
18110TIP3   OH275744   0.208   0.981  15.040  0.3545  0.0202  0.3314
18110TIP3    H175745   0.189   1.075  15.042 -0.9737 -0.2303  1.6743
18110TIP3    H275746   0.262   0.966  15.117  0.6013 -0.3101  0.0949
18111TIP3   OH275747   3.200   2.500   0.691  0.0242 -0.1421  0.4328
18111TIP3    H175748   3.254   2.424   0.666 -0.5503 -0.3033 -0.3833
18111TIP3    H275749   3.224   2.567   0.627 -2.6537 -1.0777 -1.7382
18112TIP3   OH275750   5.118   4.748   4.655 -0.5307  0.1618  0.3838
18112TIP3    H175751   5.142   4.841   4.649 -2.2829  0.6471  0.2469
18112TIP3    H275752   5.095   4.735   4.747  0.1518 -0.2769  0.5020
18113TIP3   OH275753   2.868   4.340  15.533 -0.4498 -0.2999  0.5593
18113TIP3    H175754   2.801   4.398  15.497 -0.6358 -1.4756 -1.1184
18113TIP3    H275755   2.930   4.327  15.461  0.7161 -0.5060  1.5712
18114TIP3   OH275756   0.465   3.771  12.136 -0.6473  0.3587 -0.0319
18114TIP3    H175757   0.450   3.678  12.154 -0.5993  0.2183 -0.7124
18114TIP3    H275758   0.479   3.775  12.042  0.0966  0.9593  0.0979
18115TIP3   OH275759   3.571   4.435  16.287  0.0063 -0.5288 -0.5323
18115TIP3    H175760   3.518   4.361  16.318 -1.4852  0.2184 -1.2194
18115TIP3    H275761   3.514   4.511  16.295  1.7543  0.7145  0.8478
18116TIP3   OH275762   0.176   4.985   6.512  0.8691 -0.3982 -0.8294
18116TIP3    H175763   0.159   4.969   6.605  1.8232  1.5659 -0.2694
18116TIP3    H275764   0.090   4.981   6.471 -0.0482  1.7596  0.6715
18117TIP3   OH275765   6.081   3.274  11.683  0.2015 -0.1563  0.5073
18117TIP3    H175766   6.118   3.268  11.771  0.2749  1.1434  0.5920
18117TIP3    H275767   6.079   3.368  11.665 -0.7655 -0.3526 -0.4774
18118TIP3   OH275768   5.649   5.892   5.289  0.0403 -0.2901  0.0226
18118TIP3    H175769   5.732   5.939   5.281  0.4644 -1.0806 -0.3377
18118TIP3    H275770   5.625   5.899   5.381  0.9063 -0.7226  0.2803
18119TIP3   OH275771   2.674   2.689   5.721  0.1248 -0.2625  0.1002
18119TIP3    H175772   2.590   2.710   5.764 -0.2643 -1.3829 -0.0716
18119TIP3    H275773   2.738   2.692   5.792  0.0700  1.3399  0.0977
18120TIP3   OH275774   1.822   6.050   0.325 -0.2059  0.2702  0.2621
18120TIP3    H175775   1.808   6.050   0.230 -0.4856  0.1042  0.3029
18120TIP3    H275776   1.737   6.025   0.362  0.1614 -0.6534  0.5161
18121TIP3   OH275777   3.590   0.196   0.117  0.1251  0.0180 -0.1685
18121TIP3    H175778   3.503   0.233   0.101  0.0262 -1.2209 -2.9535
18121TIP3    H275779   3.599   0.126   0.052  2.9130 -0.4200  0.5736
18122TIP3   OH275780   4.028   0.700  16.027 -0.2336  0.2018 -0.3111
18122TIP3    H175781   3.964   0.631  16.043  0.1474  0.2396  1.6525
18122TIP3    H275782   4.113   0.655  16.031 -0.0227  0.6280  0.1640
18123TIP3   OH275783   6.000   3.828  14.744 -0.3997  0.9253 -0.2047
18123TIP3    H175784   6.018   3.753  14.800 -0.4597 -0.8795 -2.4494
18123TIP3    H275785   6.082   3.845  14.698 -1.1679  0.2790 -1.8761
18124TIP3   OH275786   0.779   3.752   4.920  0.3314 -0.1320  0.4758
18124TIP3    H175787   0.741   3.795   4.844  0.4206 -0.9002 -0.0090
18124TIP3    H275788   0.772   3.659   4.902  2.6807 -0.3153  0.2377
18125TIP3   OH275789   3.785   3.319  11.258 -0.1880 -0.4818  0.2877
18125TIP3    H175790   3.819   3.361  11.337 -2.3764 -0.2835  1.1885
18125TIP3    H275791   3.694   3.298  11.278 -0.4052 -1.7682 -1.6795
18126TIP3   OH275792   5.691   3.859   3.675  0.1946  0.0924  0.2707
18126TIP3    H175793   5.724   3.818   3.595 -0.5158  0.4251 -0.2090
18126TIP3    H275794   5.601   3.884   3.652  0.1245  0.5494  1.0496
18127TIP3   OH275795   4.588   6.698   0.286 -0.0036 -0.3811 -0.0806
18127TIP3    H175796   4.510   6.741   0.250 -1.0903  0.2292  2.7338
18127TIP3    H275797   4.639   6.673   0.209 -0.9561  2.9029 -2.0031
18128TIP3   OH275798   4.036   2.271   5.628  0.4981  0.2389 -0.2583
18128TIP3    H175799   4.068   2.344   5.681  1.3190 -0.2196 -0.1048
18128TIP3    H275800   3.941   2.272   5.640  0.2318  2.4722 -1.7561
18129TIP3   OH275801   1.555   6.586   5.474  0.8107 -0.0858 -0.3181
18129TIP3    H175802   1.643   6.557   5.450  0.9518 -0.2613  0.3712
18129TIP3    H275803   1.513   6.609   5.391  0.3927 -3.0743 -1.0731
18130TIP3   OH275804   2.637   6.752   4.268  0.3192 -0.4999 -0.8603
18130TIP3    H175805   2.731   6.769   4.268  0.1516  0.5249 -0.8470
18130TIP3    H275806   2.629   6.660   4.241  1.2624 -0.2021 -2.2839
18131TIP3   OH275807   3.360   6.087   6.059  0.1758  0.2762 -0.4130
18131TIP3    H175808   3.327   6.166   6.018  0.4575  0.0227 -1.1509
18131TIP3    H275809   3.368   6.109   6.151  1.8196  1.6684 -0.8399
18132TIP3   OH275810   5.706   5.000   2.623  0.4491  0.1629  0.0820
18132TIP3    H175811   5.773   5.014   2.556  1.3476  1.1712  1.1461
18132TIP3    H275812   5.728   5.062   2.693 -0.6265 -0.6411  1.1875
18133TIP3   OH275813   4.289   1.389   2.351  0.2089  0.0755  0.0878
18133TIP3    H175814   4.288   1.370   2.444  0.3470 -2.4544 -0.3386
18133TIP3    H275815   4.205   1.431   2.333 -0.0520  0.0672  1.2611
18134TIP3   OH275816   4.744   3.518   1.657 -0.0569  0.5613  0.1620
18134TIP3    H175817   4.821   3.573   1.666 -0.0663  0.8970 -1.4816
18134TIP3    H275818   4.741   3.467   1.738  0.8663  1.8036  1.0066
18135TIP3   OH275819   4.713   5.313   1.910  0.1849  0.4181  0.0917
18135TIP3    H175820   4.784   5.250   1.919  0.3476  0.6437  0.3836
18135TIP3    H275821   4.639   5.274   1.957  0.2509  0.3923  0.1723
18136TIP3   OH275822   4.591   5.191  15.307 -0.0729 -0.1223 -0.4473
18136TIP3    H175823   4.533   5.196  15.382 -0.6574 -1.2241 -0.8018
18136TIP3    H275824   4.628   5.103  15.311  0.0535 -0.1200 -1.3235
18137TIP3   OH275825   1.263   1.865  15.061 -0.2170 -0.2828 -0.2429
18137TIP3    H175826   1.307   1.904  15.136 -1.3690  1.3170 -0.3587
18137TIP3    H275827   1.215   1.791  15.098 -0.1652  0.0285  0.4686
18138TIP3   OH275828   1.788   6.461   4.099 -0.1544 -0.5038  0.0586
18138TIP3    H175829   1.776   6.378   4.055  0.6259 -0.1514 -0.8564
18138TIP3    H275830   1.805   6.524   4.028 -1.8083  0.6542  0.6268
18139TIP3   OH275831   3.230   3.386   3.156 -0.2714 -0.4897  0.2025
18139TIP3    H175832   3.310   3.384   3.105 -0.6422  0.0510 -0.4250
18139TIP3    H275833   3.235   3.468   3.205 -0.1375 -0.7768  0.6738
18140TIP3   OH275834   4.794   3.238  14.942  0.0281  0.1482 -0.3162
18140TIP3    H175835   4.723   3.283  14.988 -0.6400  1.0185 -2.1135
18140TIP3    H275836   4.847   3.309  14.906  2.7667 -0.4178  2.2103
18141TIP3   OH275837   2.922   3.218  16.960  0.0547  0.2499  0.2499
18141TIP3    H175838   2.925   3.124  16.975 -0.4393  0.1587 -0.2086
18141TIP3    H275839   2.867   3.229  16.883  1.0621  0.8440 -0.4131
18142TIP3   OH275840   5.971   4.008  15.443 -0.3950 -0.6510  0.7880
18142TIP3    H175841   5.909   4.024  15.372  1.4432  1.7785 -0.4066
18142TIP3    H275842   6.055   3.994  15.399  1.2720  3.0825  2.3776
18143TIP3   OH275843   2.213   1.130  12.556  0.4066 -0.0576 -0.0731
18143TIP3    H175844   2.287   1.188  12.536  0.2764  0.2575  0.3238
18143TIP3    H275845   2.244   1.076  12.629 -0.2424  1.1076  1.1247
18144TIP3   OH275846   5.202   5.357  14.858 -0.8322 -0.5286 -0.7896
18144TIP3    H175847   5.214   5.452  14.866 -0.6843 -0.5789 -0.3922
18144TIP3    H275848   5.290   5.321  14.862 -0.8039 -0.6220 -1.9214
18145TIP3   OH275849   4.505   2.007   4.561  0.3208 -0.0216 -0.4089
18145TIP3    H175850   4.453   1.928   4.570 -0.3384  0.4844  0.3856
18145TIP3    H275851   4.480   2.061   4.636  1.6681  0.4298 -0.2556
18146TIP3   OH275852   4.925   5.344  14.073 -0.3850 -0.3714  0.5081
18146TIP3    H175853   4.915   5.333  13.979 -2.0881 -0.7151  0.7127
18146TIP3    H275854   4.936   5.439  14.085  1.3228 -0.4503 -0.1296
18147TIP3   OH275855   5.465   6.272   1.197  0.8660  0.6747 -0.2581
18147TIP3    H175856   5.503   6.186   1.217 -1.3338 -0.4096 -0.3845
18147TIP3    H275857   5.481   6.283   1.103 -1.3491 -1.0670 -0.9504
18148TIP3   OH275858   3.638   2.611   5.296 -0.2595 -0.0132  0.4635
18148TIP3    H175859   3.577   2.672   5.337 -0.9012 -1.4660  1.7426
18148TIP3    H275860   3.606   2.524   5.320  0.3625 -0.9026 -1.6804
18149TIP3   OH275861   0.084   0.673   3.964 -0.0093 -0.1082  0.5465
18149TIP3    H175862   0.033   0.754   3.965  0.8555  0.4535  2.6690
18149TIP3    H275863   0.106   0.660   3.871 -2.0261  0.8408 -0.1255
18150TIP3   OH275864   5.402   4.641   3.327  0.1878 -0.4367  0.5732
18150TIP3    H175865   5.328   4.639   3.387 -1.6591  0.9768 -1.4822
18150TIP3    H275866   5.364   4.669   3.243  2.7452 -1.4905 -1.0635
18151TIP3   OH275867   4.122   0.235   1.667  0.4329  0.1896 -0.2719
18151TIP3    H175868   4.134   0.329   1.653  1.1294  0.0735 -0.4701
18151TIP3    H275869   4.118   0.198   1.579  0.4212 -0.0032 -0.1897
18152TIP3   OH275870   6.204   3.155   2.750  0.3877  0.3489  0.3886
18152TIP3    H175871   6.294   3.153   2.784 -0.0342 -0.0573  1.5314
18152TIP3    H275872   6.176   3.246   2.759  0.7136  0.4996 -0.0768
18153TIP3   OH275873   5.110   1.708  13.398  0.1086  0.2278  0.0847
18153TIP3    H175874   5.144   1.770  13.462  1.7507  0.0864 -0.5923
18153TIP3    H275875   5.057   1.647  13.449  2.7815 -0.9620  1.6850
18154TIP3   OH275876   6.746   3.023  14.435  0.6813  0.0132 -0.6912
18154TIP3    H175877   6.835   3.015  14.471  0.0275 -1.1106  0.7976
18154TIP3    H275878   6.695   2.960  14.485 -1.2898  1.7198 -0.4389
18155TIP3   OH275879   5.576   3.163  12.760  0.2081 -0.0575 -0.0517
18155TIP3    H175880   5.516   3.193  12.692 -1.1627  0.1964  1.2182
18155TIP3    H275881   5.612   3.243  12.798 -0.3833 -0.1320  0.6802
18156TIP3   OH275882   4.218   2.841  16.954  0.7958  0.2181  0.5770
18156TIP3    H175883   4.309   2.857  16.928  0.3539 -0.3191 -1.4492
18156TIP3    H275884   4.177   2.927  16.948  0.7473  0.1421 -0.4466
18157TIP3   OH275885   3.254   5.141   2.288 -0.6008  0.3808  0.0442
18157TIP3    H175886   3.334   5.135   2.340 -1.4106  2.4862  1.6631
18157TIP3    H275887   3.203   5.065   2.315 -0.3039  0.5472  1.1562
18158TIP3   OH275888   0.761   5.434   4.892 -0.8242  0.0350  0.2259
18158TIP3    H175889   0.798   5.412   4.807 -0.3846  2.0270 -0.1379
18158TIP3    H275890   0.837   5.445   4.950 -0.9878  1.0159  0.2683
18159TIP3   OH275891   4.474   4.079  12.182 -0.1231  0.3166  0.1081
18159TIP3    H175892   4.392   4.029  12.192  0.4298 -0.2943  2.1157
18159TIP3    H275893   4.445   4.168  12.161 -1.2542 -0.1172 -0.2788
18160TIP3   OH275894   4.902   2.592   2.184  0.4529 -0.2393 -0.3226
18160TIP3    H175895   4.878   2.624   2.272  1.6068 -0.0130 -0.0818
18160TIP3    H275896   4.820   2.597   2.134 -0.1884 -0.2258  0.6918
18161TIP3   OH275897   1.112   4.548  15.753 -0.2861 -0.3348  0.3571
18161TIP3    H175898   1.162   4.604  15.694  0.9045  1.9308  3.2235
18161TIP3    H275899   1.178   4.503  15.805 -1.2770 -2.0648  0.1840
18162TIP3   OH275900   0.480   5.086  16.469 -0.0635  1.0658  0.2873
18162TIP3    H175901   0.509   5.162  16.519  2.5532 -0.3817  1.1968
18162TIP3    H275902   0.560   5.053  16.428 -0.5389 -2.4592  1.8094
18163TIP3   OH275903   2.913   5.890  13.578  0.1035  0.1634 -0.0109
18163TIP3    H175904   2.861   5.966  13.602 -0.0697 -0.2402  0.9195
18163TIP3    H275905   2.882   5.820  13.635  0.3118 -0.5926 -0.7994
18164TIP3   OH275906   0.109   0.616  13.183 -0.3218  0.0504 -0.0751
18164TIP3    H175907   0.018   0.599  13.158 -0.1907  0.7958 -1.1223
18164TIP3    H275908   0.160   0.553  13.132 -0.2539 -0.6595  0.8308
18165TIP3   OH275909   2.490   1.580  13.152 -0.3946 -0.1071 -0.5654
18165TIP3    H175910   2.434   1.657  13.144 -0.8380 -0.2345  0.8648
18165TIP3    H275911   2.428   1.506  13.154 -0.2141 -0.2605  0.8692
18166TIP3   OH275912   3.169   3.034  13.007  0.0040  0.3926 -0.0903
18166TIP3    H175913   3.127   3.120  13.000  0.2212  0.6891  1.6909
18166TIP3    H275914   3.133   2.984  12.934 -0.8653  1.6868 -0.5933
18167TIP3   OH275915   4.011   2.339   6.095  0.0709  0.2555  0.0716
18167TIP3    H175916   4.057   2.313   6.015 -0.8404 -3.5448  0.6093
18167TIP3    H275917   4.072   2.319   6.165 -0.5054  0.0927  0.5266
18168TIP3   OH275918   6.542   3.751   0.170  0.0828  0.1678 -0.4916
18168TIP3    H175919   6.612   3.793   0.220 -0.2753  1.9328 -1.4011
18168TIP3    H275920   6.550   3.787   0.082 -1.3061 -0.3956 -0.8793
18169TIP3   OH275921   4.683   6.512   5.033 -0.3202  0.4632 -0.0725
18169TIP3    H175922   4.738   6.512   4.954 -0.2367  0.0039 -0.0124
18169TIP3    H275923   4.745   6.521   5.105 -0.0050 -2.9796  0.2151
18170TIP3   OH275924   2.065   4.927   1.459 -0.0012 -0.8361  0.5695
18170TIP3    H175925   2.096   4.872   1.388 -1.1897 -0.7554 -0.0449
18170TIP3    H275926   2.050   5.013   1.418  0.7922 -0.3477  1.2728
18171TIP3   OH275927   2.088   2.733  13.429 -0.1161  1.0777  0.2840
18171TIP3    H175928   2.138   2.681  13.492 -0.8041 -2.0330 -1.4705
18171TIP3    H275929   2.154   2.779  13.378  0.8008 -0.4461  0.0314
18172TIP3   OH275930   1.214   3.045  12.790 -0.2220 -0.3026  0.1822
18172TIP3    H175931   1.149   3.093  12.840 -0.5212 -0.6415  0.1226
18172TIP3    H275932   1.270   3.004  12.856 -1.8067 -2.4175  0.3378
18173TIP3   OH275933   1.060   6.679   2.955  0.1958  0.0248 -0.4881
18173TIP3    H175934   1.033   6.608   3.013 -2.0887  0.2740 -1.1287
18173TIP3    H275935   1.134   6.644   2.905  0.9614 -0.8484  1.1828
18174TIP3   OH275936   3.345   2.626   4.105 -0.9518 -0.2925 -0.0649
18174TIP3    H175937   3.359   2.567   4.031  0.2938 -0.5474  0.3625
18174TIP3    H275938   3.359   2.714   4.068 -0.3459 -0.4172 -0.1316
18175TIP3   OH275939   2.642   4.240  12.656 -0.4875 -0.0256 -0.1891
18175TIP3    H175940   2.615   4.294  12.730 -1.0120 -0.8485  0.2297
18175TIP3    H275941   2.647   4.152  12.691  3.1562  0.0663 -0.1216
18176TIP3   OH275942   1.321   4.219   6.648  0.3533 -0.4488  0.3690
18176TIP3    H175943   1.408   4.240   6.616 -0.4386  1.2729 -0.7777
18176TIP3    H275944   1.291   4.148   6.590 -0.3662  1.4294 -1.7166
18177TIP3   OH275945   2.930   0.459  13.723 -0.1868  0.1745 -0.0595
18177TIP3    H175946   2.840   0.488  13.735 -1.2466 -1.2118 -3.4655
18177TIP3    H275947   2.950   0.480  13.632  2.0637 -1.7217 -0.0941
18178TIP3   OH275948   6.698   5.399   1.027 -0.9255 -0.1551 -0.5966
18178TIP3    H175949   6.681   5.444   1.109 -0.8134 -0.3699 -0.4541
18178TIP3    H275950   6.643   5.321   1.029  0.1142 -0.8926 -0.0938
18179TIP3   OH275951   1.888   4.682   1.046  0.3686 -0.1694  0.6656
18179TIP3    H175952   1.799   4.671   1.077  0.6201  1.1870  1.9405
18179TIP3    H275953   1.885   4.656   0.954 -1.0140 -1.4847  1.0458
18180TIP3   OH275954   4.067   3.216  11.265 -0.1434 -0.4491  0.2376
18180TIP3    H175955   4.067   3.282  11.335  0.6657  0.1023 -0.2776
18180TIP3    H275956   3.974   3.203  11.246 -0.3141  1.2287 -0.2762
18181TIP3   OH275957   1.310   1.685  10.881  0.8793  0.6203 -0.4528
18181TIP3    H175958   1.273   1.630  10.950  0.7084  1.9920  0.5925
18181TIP3    H275959   1.235   1.729  10.842  1.2091  2.3962  0.7818
18182TIP3   OH275960   5.902   2.057  15.952 -0.1633  0.3087 -0.3324
18182TIP3    H175961   5.968   2.097  15.895 -0.3150  0.7336 -0.2115
18182TIP3    H275962   5.857   1.994  15.896  2.8578 -2.8812  0.4770
18183TIP3   OH275963   2.955   2.133   0.274  0.3622  0.9985  0.1035
18183TIP3    H175964   2.931   2.204   0.214  0.6669  1.3546  0.3997
18183TIP3    H275965   3.050   2.125   0.266  0.1485 -0.8475 -1.5560
18184TIP3   OH275966   5.234   5.102   1.955 -0.0138  0.3468  0.4444
18184TIP3    H175967   5.237   5.022   2.007 -0.4644  0.3969  0.5534
18184TIP3    H275968   5.285   5.082   1.877  0.0462  0.0216  0.5662
18185TIP3   OH275969   4.998   2.561  13.993  0.4341 -0.1298  0.1530
18185TIP3    H175970   5.043   2.478  14.010 -1.4572 -1.2508 -0.0282
18185TIP3    H275971   5.068   2.621  13.968  1.8003 -1.8135 -0.2868
18186TIP3   OH275972   5.597   2.973   0.755 -0.9238  0.0152 -0.4184
18186TIP3    H175973   5.678   3.002   0.713 -1.8737  1.6076 -1.2471
18186TIP3    H275974   5.601   2.878   0.751  1.0025  0.0469 -0.2224
18187TIP3   OH275975   1.356   1.603   1.869  0.1837  0.5270  0.4986
18187TIP3    H175976   1.313   1.579   1.787  2.5399 -1.7059 -0.2333
18187TIP3    H275977   1.446   1.572   1.858  0.6000  0.2038  3.8991
18188TIP3   OH275978   2.555   3.424   4.758 -0.1126  0.5612 -0.1052
18188TIP3    H175979   2.496   3.369   4.708  0.0964  0.1935  0.0501
18188TIP3    H275980   2.503   3.454   4.833 -0.0953  0.2200  0.0434
18189TIP3   OH275981   0.924   6.216  12.529 -0.3394  0.4762  0.1108
18189TIP3    H175982   0.865   6.169  12.470 -0.2299 -0.1280  0.4714
18189TIP3    H275983   0.911   6.175  12.614  0.1424  0.7528  0.3264
18190TIP3   OH275984   5.584   0.194   3.738  0.0254 -0.2670 -0.0526
18190TIP3    H175985   5.590   0.259   3.807  0.9185  0.0045 -0.3635
18190TIP3    H275986   5.536   0.237   3.668  0.4522  0.0048 -0.1845
18191TIP3   OH275987   5.404   6.359  16.689 -0.1321 -0.5204  0.4374
18191TIP3    H175988   5.327   6.404  16.723  1.0728  3.5681 -1.5947
18191TIP3    H275989   5.370   6.285  16.640 -2.7850  0.9694 -0.1324
18192TIP3   OH275990   2.343   5.147  15.588  0.1359 -0.0912  0.3215
18192TIP3    H175991   2.328   5.141  15.682 -0.1974 -0.5897  0.2359
18192TIP3    H275992   2.397   5.070  15.567  1.5030  0.8134  0.3557
18193TIP3   OH275993   4.542   5.940   4.263  0.4988 -0.1656  0.4799
18193TIP3    H175994   4.519   5.856   4.304  0.8145  0.1953  1.4154
18193TIP3    H275995   4.623   5.966   4.305  1.0192  0.0689 -0.6271
18194TIP3   OH275996   4.666   0.895  17.072 -0.2342 -0.5802 -0.3092
18194TIP3    H175997   4.733   0.885  17.004  1.2734  1.2936  0.7810
18194TIP3    H275998   4.615   0.971  17.045  0.8380  0.6373  0.9389
18195TIP3   OH275999   4.086   5.249  11.759  0.1304  0.0508  0.1036
18195TIP3    H176000   4.063   5.205  11.677 -0.7118 -0.1335  0.4283
18195TIP3    H276001   4.162   5.201  11.792 -2.2535 -2.9466  1.7536
18196TIP3   OH276002   1.498   0.694   3.165 -0.4135 -0.1174 -0.1498
18196TIP3    H176003   1.538   0.766   3.214 -1.5750 -0.0858  0.7885
18196TIP3    H276004   1.561   0.622   3.172  0.9061  0.8562 -1.3564
18197TIP3   OH276005   2.584   3.900   2.914 -0.3743  0.1974  0.0744
18197TIP3    H176006   2.641   3.825   2.899 -0.4560  0.0948  0.2712
18197TIP3    H276007   2.496   3.867   2.899 -0.2733  0.8870 -2.3930
18198TIP3   OH276008   1.234   2.117   4.183 -0.7972 -0.2021  1.0394
18198TIP3    H176009   1.228   2.208   4.211  1.0262  0.0225  0.8389
18198TIP3    H276010   1.188   2.115   4.099 -0.2259  0.7125  0.6836
18199TIP3   OH276011   0.398   3.996   5.854 -0.1773  0.0183  0.2361
18199TIP3    H176012   0.415   3.914   5.900  1.8275 -0.1651 -0.7346
18199TIP3    H276013   0.398   4.062   5.923 -0.3288 -0.6137  0.8540
18200TIP3   OH276014   3.590   4.894  16.728 -0.0636 -0.4493 -0.2497
18200TIP3    H176015   3.535   4.868  16.655 -3.6877 -0.1549  2.1495
18200TIP3    H276016   3.594   4.990  16.722  2.7207 -0.5418 -1.9289
18201TIP3   OH276017   3.085   6.681  16.218 -0.8277  0.3357  0.6794
18201TIP3    H176018   3.121   6.705  16.303 -0.4341 -1.1639  0.9547
18201TIP3    H276019   3.159   6.688  16.158 -0.7724  0.0547  0.7140
18202TIP3   OH276020   5.571   2.001  16.299 -0.1665  0.2983  0.4166
18202TIP3    H176021   5.589   1.952  16.219 -1.0054 -1.9251  1.4747
18202TIP3    H276022   5.490   2.049  16.280 -0.8221 -0.8689  0.1577
18203TIP3   OH276023   0.274   3.248  16.704  0.4360 -0.0658 -0.1075
18203TIP3    H176024   0.210   3.312  16.735  0.9848  0.9043 -0.9102
18203TIP3    H276025   0.230   3.164  16.712 -1.4591  0.6790 -1.8451
18204TIP3   OH276026   0.311   0.356  12.633  0.4744 -0.0078 -0.0065
18204TIP3    H176027   0.318   0.451  12.626 -0.2222 -0.0170 -0.9434
18204TIP3    H276028   0.398   0.328  12.663  0.5969  0.9375  0.5694
18205TIP3   OH276029   3.892   2.283  11.467  0.0812 -0.5049 -0.0555
18205TIP3    H176030   3.981   2.310  11.446 -0.2144  1.5156  0.9903
18205TIP3    H276031   3.848   2.278  11.382 -0.2450  4.2907 -0.4318
18206TIP3   OH276032   6.265   2.366  16.375  0.4333  0.5652 -0.3060
18206TIP3    H176033   6.175   2.401  16.378  0.4344  0.5181  1.0239
18206TIP3    H276034   6.262   2.298  16.308 -0.6484  0.2727  0.0183
18207TIP3   OH276035   3.134   4.827  16.443 -0.0510 -0.2431  0.3198
18207TIP3    H176036   3.223   4.861  16.449 -0.5943  1.2247  0.4261
18207TIP3    H276037   3.079   4.905  16.435 -1.4647 -1.0203  1.8400
18208TIP3   OH276038   0.614   0.192   3.955  0.4498 -0.7981  0.2392
18208TIP3    H176039   0.623   0.144   4.037 -1.1870  0.1308  1.0198
18208TIP3    H276040   0.613   0.284   3.981  1.3765 -0.4128 -0.9935
18209TIP3   OH276041   5.222   0.334   0.130 -0.3342  0.6224  0.3030
18209TIP3    H176042   5.284   0.307   0.198  1.9321  1.5912 -1.2623
18209TIP3    H276043   5.187   0.252   0.095 -0.9641  0.0957  2.0712
18210TIP3   OH276044   1.376   4.735  15.955 -0.1221 -0.2223 -0.2787
18210TIP3    H176045   1.361   4.642  15.936  1.1836 -0.2723 -1.2217
18210TIP3    H276046   1.426   4.766  15.880 -0.5436  1.2606  0.0307
18211TIP3   OH276047   1.967   5.833   3.103  0.4001  0.5592 -0.0125
18211TIP3    H176048   1.938   5.817   3.193  0.9216  0.7821  0.2024
18211TIP3    H276049   2.057   5.800   3.101  1.0160  2.1381  0.0593
18212TIP3   OH276050   4.014   5.301   4.429  1.4578 -0.0866 -0.2953
18212TIP3    H176051   3.970   5.372   4.382 -0.5374 -0.7626  0.4941
18212TIP3    H276052   4.088   5.344   4.472  0.6669  1.4074 -0.3608
18213TIP3   OH276053   6.335   2.050  12.600 -0.0471 -0.2096 -0.3480
18213TIP3    H176054   6.336   2.091  12.686 -0.6099 -1.1707  0.1257
18213TIP3    H276055   6.390   2.107  12.546  1.4818 -0.3441  0.9881
18214TIP3   OH276056   2.381   6.341   4.112 -0.1309  0.2000  0.5796
18214TIP3    H176057   2.356   6.343   4.204  1.3866  0.0260  1.0182
18214TIP3    H276058   2.317   6.397   4.068 -1.7712 -0.8838  1.4923
18215TIP3   OH276059   4.984   5.050  16.179 -0.0509  0.0720 -0.3471
18215TIP3    H176060   5.018   5.118  16.122 -0.1239  0.3267 -0.0886
18215TIP3    H276061   5.062   5.007  16.214  0.0191  0.8264  0.4527
18216TIP3   OH276062   1.648   6.132   5.102  0.0215 -0.1273 -0.0633
18216TIP3    H176063   1.610   6.144   5.189 -2.9390  0.7095 -1.3560
18216TIP3    H276064   1.658   6.220   5.067 -3.6159 -0.3927 -2.3417
18217TIP3   OH276065   2.403   4.823   5.998  0.6012  0.0905  0.2565
18217TIP3    H176066   2.473   4.886   6.013  0.9093 -0.1551 -0.1438
18217TIP3    H276067   2.323   4.871   6.017  0.7222  1.0910 -1.5623
18218TIP3   OH276068   4.294   5.259  12.298  0.2407  0.2467  0.1772
18218TIP3    H176069   4.201   5.281  12.303 -0.2627 -1.9028  1.5535
18218TIP3    H276070   4.326   5.308  12.222 -1.4848  2.7050  0.9016
18219TIP3   OH276071   2.779   4.475   2.989 -0.4280 -0.8029  0.2271
18219TIP3    H176072   2.866   4.507   3.014  0.4066 -1.6629 -1.4046
18219TIP3    H276073   2.756   4.413   3.058 -1.3633  1.9252  2.5693
18220TIP3   OH276074   3.688   2.346   0.137  0.1889  0.9689 -0.1100
18220TIP3    H176075   3.651   2.266   0.100  0.9989 -0.2026  1.5002
18220TIP3    H276076   3.781   2.340   0.116  0.1769  1.7816 -0.4372
18221TIP3   OH276077   4.443   1.687   1.294  0.1358 -0.5581  0.4729
18221TIP3    H176078   4.397   1.645   1.222 -0.8589  0.0351  0.7321
18221TIP3    H276079   4.507   1.745   1.252 -0.9702  0.3824  0.0186
18222TIP3   OH276080   0.485   6.218   1.128 -0.2864 -0.2622 -0.7176
18222TIP3    H176081   0.439   6.140   1.159 -1.1878  0.2663 -0.6815
18222TIP3    H276082   0.559   6.184   1.077 -1.2443 -1.1559 -1.5607
18223TIP3   OH276083   2.054   1.921  13.985 -0.2271 -0.0843  0.2361
18223TIP3    H176084   2.081   2.008  13.957 -2.1749  0.1530 -1.1043
18223TIP3    H276085   2.125   1.863  13.957  1.3813  1.0711  1.6863
18224TIP3   OH276086   6.627   5.935   4.154  0.2567 -1.0890 -0.2087
18224TIP3    H176087   6.673   6.004   4.107  1.7746 -0.1885  2.4210
18224TIP3    H276088   6.696   5.875   4.184 -0.4610 -1.0055  1.7873
18225TIP3   OH276089   2.880   3.023   4.901 -0.4189 -0.5908  0.1277
18225TIP3    H176090   2.934   2.974   4.964 -0.1181 -1.2512 -0.6272
18225TIP3    H276091   2.802   3.048   4.950 -0.4999 -1.6925  0.5715
18226TIP3   OH276092   3.540   5.207   0.382  0.9422  0.3148 -0.4429
18226TIP3    H176093   3.543   5.155   0.302 -1.1240  1.0958 -1.1025
18226TIP3    H276094   3.585   5.154   0.447  0.1896 -1.6620 -1.4352
18227TIP3   OH276095   1.501   0.381   2.487  0.4363  0.5127 -0.1862
18227TIP3    H176096   1.597   0.373   2.484  0.4724  0.9067 -0.1666
18227TIP3    H276097   1.475   0.331   2.564  0.4020 -1.5293 -1.4719
18228TIP3   OH276098   0.539   1.918   1.562  0.0111  0.2922  0.2239
18228TIP3    H176099   0.518   1.853   1.630 -1.5261 -0.3138 -0.7715
18228TIP3    H276100   0.629   1.897   1.536  0.1188 -0.3712  1.0742
18229TIP3   OH276101   1.709   3.684  11.842 -1.1477 -0.1513  0.2965
18229TIP3    H176102   1.715   3.623  11.915  1.0527  0.1377  0.4513
18229TIP3    H276103   1.741   3.767  11.878 -0.7655  0.1894 -0.7816
18230TIP3   OH276104   5.455   6.463  17.033 -0.2605  0.9443  0.1438
18230TIP3    H176105   5.388   6.481  16.967 -0.5392 -1.9618 -0.5074
18230TIP3    H276106   5.535   6.450  16.983  0.0575  1.0446  0.6205
18231TIP3   OH276107   1.610   2.684  12.322 -0.2049 -0.1670 -1.0367
18231TIP3    H176108   1.542   2.632  12.365  0.6547 -0.7503 -0.3445
18231TIP3    H276109   1.675   2.619  12.293  0.9959  0.5028  0.0465
18232TIP3   OH276110   4.282   2.208   5.458 -0.0744  0.4653 -0.2082
18232TIP3    H176111   4.207   2.266   5.473 -1.6352 -1.7469  1.1221
18232TIP3    H276112   4.266   2.170   5.371 -1.8337 -1.6803  0.9449
18233TIP3   OH276113   0.797   5.227  14.997 -0.0569 -0.6279 -0.2374
18233TIP3    H176114   0.810   5.307  14.946  0.9859 -0.6842 -0.0857
18233TIP3    H276115   0.885   5.194  15.012 -0.4051 -1.0830  0.8640
18234TIP3   OH276116   4.849   0.978   5.231  0.3823 -0.3068 -0.0949
18234TIP3    H176117   4.769   0.932   5.208  0.8613 -0.6225 -1.1691
18234TIP3    H276118   4.832   1.069   5.207  0.1163 -0.2466  0.3006
18235TIP3   OH276119   2.768   1.138   5.237  0.0807 -0.0559 -0.3661
18235TIP3    H176120   2.676   1.163   5.244  0.2381  0.6249 -0.7033
18235TIP3    H276121   2.766   1.047   5.206 -0.4713  0.0915 -0.7674
18236TIP3   OH276122   6.108   2.997  10.696 -0.3836  0.2736  0.0861
18236TIP3    H176123   6.129   2.918  10.746  0.4538 -0.0355 -0.7289
18236TIP3    H276124   6.192   3.028  10.663 -0.7147  1.4632  0.3094
18237TIP3   OH276125   2.000   3.845  14.046  0.6120  0.2278  0.1509
18237TIP3    H176126   1.977   3.879  13.959 -0.7369  1.0210  0.7671
18237TIP3    H276127   2.093   3.824  14.041  0.5683  0.3299 -1.4587
18238TIP3   OH276128   0.958   1.892   2.674  0.2939 -0.2681  0.0810
18238TIP3    H176129   0.934   1.932   2.590 -0.6874 -1.0133 -0.0093
18238TIP3    H276130   0.920   1.804   2.670  0.3682 -0.3632  1.2441
18239TIP3   OH276131   4.945   3.412   4.215 -0.2325  0.0946  0.1428
18239TIP3    H176132   4.940   3.384   4.306 -1.4277  1.6957  0.6213
18239TIP3    H276133   5.036   3.439   4.204  0.7321 -2.8694 -0.0837
18240TIP3   OH276134   3.718   6.433   6.100 -0.0835 -0.1592 -0.0985
18240TIP3    H176135   3.642   6.448   6.157 -1.5296 -0.9564 -1.7217
18240TIP3    H276136   3.705   6.493   6.026  0.9392 -0.2235 -0.3419
18241TIP3   OH276137   1.963   3.065   4.044 -0.4737  0.3593  0.0593
18241TIP3    H176138   1.893   3.069   4.109  0.3074 -0.0073  0.9302
18241TIP3    H276139   2.013   3.146   4.057  1.4784 -1.0472  2.0045
18242TIP3   OH276140   4.108   1.618   2.353 -0.1439 -0.1111  0.1559
18242TIP3    H176141   4.121   1.618   2.448 -1.7487  1.3986  0.4227
18242TIP3    H276142   4.039   1.682   2.338 -1.3588 -1.7544 -1.8512
18243TIP3   OH276143   1.768   1.702  12.480  0.6333 -0.4017 -0.6675
18243TIP3    H176144   1.696   1.723  12.539  1.3017 -0.5930  0.2325
18243TIP3    H276145   1.825   1.779  12.483 -0.2047  0.3496 -2.4680
18244TIP3   OH276146   1.547   0.556  10.766 -0.1930 -0.1747  0.2797
18244TIP3    H176147   1.491   0.590  10.696 -0.1093 -1.0781 -0.2403
18244TIP3    H276148   1.494   0.486  10.807  0.1236 -0.2838  0.5062
18245TIP3   OH276149   3.388   2.068  16.374  0.3247 -0.3232 -0.2876
18245TIP3    H176150   3.452   2.055  16.444 -0.0542 -1.0709 -0.0718
18245TIP3    H276151   3.326   2.132  16.410 -1.0519 -2.2330  0.8998
18246TIP3   OH276152   2.855   5.241  15.872  0.0563 -0.0565  0.1334
18246TIP3    H176153   2.824   5.171  15.929  1.1321 -0.4013  0.3167
18246TIP3    H276154   2.835   5.211  15.784  3.5847 -2.3230 -0.0992
18247TIP3   OH276155   0.236   5.639   6.475 -0.3556  0.6499 -0.7931
18247TIP3    H176156   0.281   5.707   6.424  0.4425 -0.3310 -1.4211
18247TIP3    H276157   0.231   5.564   6.416  0.0462 -0.3172  0.3845
18248TIP3   OH276158   5.345   1.885  13.393 -0.2159  0.1966  0.2925
18248TIP3    H176159   5.363   1.797  13.359 -0.7816 -0.0145  0.5213
18248TIP3    H276160   5.318   1.936  13.317  0.3443  0.2396  0.1191
18249TIP3   OH276161   0.486   3.222  16.505  0.2942 -0.0420  0.0375
18249TIP3    H176162   0.434   3.229  16.585  1.6803  2.3015  0.8318
18249TIP3    H276163   0.422   3.208  16.435 -1.2639  1.1246  1.1771
18250TIP3   OH276164   1.003   1.774  14.124 -0.6560  0.1805  0.5742
18250TIP3    H176165   1.098   1.758  14.121 -0.3540  1.8596 -0.8229
18250TIP3    H276166   0.964   1.690  14.101  0.6005 -0.0203 -1.0486
18251TIP3   OH276167   2.591   0.259  15.810  0.0906 -0.6823 -0.8030
18251TIP3    H176168   2.563   0.180  15.856  2.6103 -0.8463  0.5966
18251TIP3    H276169   2.510   0.307  15.795 -1.2135 -2.2127  0.8195
18252TIP3   OH276170   5.548   4.782   2.573  0.7628 -0.0509 -0.2516
18252TIP3    H176171   5.531   4.762   2.481 -0.5896 -0.1931  0.0122
18252TIP3    H276172   5.602   4.861   2.572 -0.4302  0.7866 -1.1515
18253TIP3   OH276173   1.303   2.398   4.096 -0.1111  0.6811  0.2864
18253TIP3    H176174   1.293   2.481   4.050  0.3229  0.0311 -1.0275
18253TIP3    H276175   1.337   2.338   4.030  2.9240  0.2897  2.0303
18254TIP3   OH276176   0.270   5.954   1.598  0.3421  0.9804  0.0841
18254TIP3    H176177   0.198   6.017   1.593  1.1718  1.8698 -1.2075
18254TIP3    H276178   0.280   5.922   1.509  1.0768  0.3049  0.3968
18255TIP3   OH276179   2.229   2.607   0.363 -0.5039 -0.1405  0.2191
18255TIP3    H176180   2.156   2.659   0.396 -1.9949 -0.5960 -2.1145
18255TIP3    H276181   2.211   2.518   0.393 -0.8253 -0.2201 -0.2025
18256TIP3   OH276182   5.723   1.441   2.892 -0.0368  0.0476  0.0805
18256TIP3    H176183   5.652   1.498   2.923 -0.6456 -0.5137 -0.2416
18256TIP3    H276184   5.755   1.398   2.971 -1.2182 -0.9757  0.0376
18257TIP3   OH276185   0.430   2.815   5.966  0.5964  0.6995 -0.4287
18257TIP3    H176186   0.405   2.764   5.889 -0.5343  2.6171 -1.4117
18257TIP3    H276187   0.357   2.805   6.027  0.8146  0.3829 -0.2154
18258TIP3   OH276188   5.011   6.149   6.244  0.1122  0.7771 -0.6982
18258TIP3    H176189   5.011   6.119   6.334  1.5431  2.0795 -0.2194
18258TIP3    H276190   5.060   6.082   6.196 -1.2256 -0.2604 -0.6802
18259TIP3   OH276191   5.993   3.789   0.358 -0.2614 -0.5238  0.9648
18259TIP3    H176192   5.988   3.695   0.339  0.4591 -0.0851 -1.8570
18259TIP3    H276193   5.917   3.826   0.314  2.6302  0.8263 -3.6820
18260TIP3   OH276194   3.509   3.743  13.252  0.0358  0.1796  0.0568
18260TIP3    H176195   3.484   3.835  13.261  1.1815  0.4772  0.2823
18260TIP3    H276196   3.425   3.697  13.242 -0.5141  1.5879 -3.7611
18261TIP3   OH276197   1.630   3.661   3.476 -0.3109 -0.1731  0.4125
18261TIP3    H176198   1.542   3.696   3.462  0.1438  0.4971 -1.0127
18261TIP3    H276199   1.671   3.724   3.536 -0.4446  0.1431  0.1788
18262TIP3   OH276200   5.864   1.104   2.402  0.6598  0.4837  0.0006
18262TIP3    H176201   5.947   1.147   2.422  0.3660  0.6786  0.9002
18262TIP3    H276202   5.799   1.175   2.408 -0.3636 -0.4712  5.0976
18263TIP3   OH276203   3.798   4.502   3.742  0.8204 -0.8463 -1.0208
18263TIP3    H176204   3.739   4.547   3.681 -0.6165  0.0014  0.8945
18263TIP3    H276205   3.842   4.573   3.789 -1.6487 -1.2382  2.2136
18264TIP3   OH276206   0.263   5.483  16.921 -0.5183 -0.2577 -0.2900
18264TIP3    H176207   0.258   5.527  16.836 -0.9677  0.6157  0.1679
18264TIP3    H276208   0.213   5.402  16.909 -0.9992  0.0905 -0.7247
18265TIP3   OH276209   4.813   2.799  11.326  0.1987  0.0298 -0.1796
18265TIP3    H176210   4.866   2.865  11.371  1.3923 -1.4423  0.6669
18265TIP3    H276211   4.871   2.763  11.259 -0.2145 -0.6043 -0.2069
18266TIP3   OH276212   3.681   4.212  11.677  0.1805  0.0324  0.3921
18266TIP3    H176213   3.684   4.123  11.643 -0.1288 -0.2145  0.9876
18266TIP3    H276214   3.699   4.203  11.771  0.9497  0.6842  0.3198
18267TIP3   OH276215   3.711   6.152   5.422 -0.4082  0.1407 -0.2485
18267TIP3    H176216   3.790   6.199   5.397  0.1862 -0.0249  1.1853
18267TIP3    H276217   3.659   6.216   5.470 -0.1171 -0.3120  0.7140
18268TIP3   OH276218   5.333   5.172   0.416  0.2434 -0.3991  0.2515
18268TIP3    H176219   5.288   5.111   0.474 -1.1744  0.1391 -0.2590
18268TIP3    H276220   5.369   5.117   0.346 -0.5982 -0.7038  0.0536
18269TIP3   OH276221   5.517   3.177  11.251  0.1951  0.1702 -0.1070
18269TIP3    H176222   5.466   3.117  11.305  0.5806 -0.1357 -0.0880
18269TIP3    H276223   5.456   3.202  11.180 -0.8427  1.7597  1.2574
18270TIP3   OH276224   0.737   1.985   3.855  0.5302 -0.1449  0.7059
18270TIP3    H176225   0.665   1.922   3.844  1.0882 -0.6041 -0.5486
18270TIP3    H276226   0.705   2.065   3.815  0.3547 -0.0625  1.0124
18271TIP3   OH276227   3.653   2.184   0.931  0.3988 -0.1346 -0.8145
18271TIP3    H176228   3.684   2.094   0.927 -0.5438 -0.4382 -1.8573
18271TIP3    H276229   3.674   2.213   1.020  1.5564 -1.0595 -0.7614
18272TIP3   OH276230   1.353   6.329   0.803 -0.2358  0.9245  0.5224
18272TIP3    H176231   1.272   6.378   0.788 -0.9642  0.1232  1.7140
18272TIP3    H276232   1.375   6.347   0.894 -1.2182 -1.8776  1.4042
18273TIP3   OH276233   4.552   3.374  11.257 -0.3199  0.4893 -0.3601
18273TIP3    H176234   4.496   3.379  11.180  0.9070 -2.3336 -1.5573
18273TIP3    H276235   4.641   3.375  11.223  0.4062  3.0335  1.3711
18274TIP3   OH276236   4.358   4.465  12.735  0.3592 -0.4144  0.4434
18274TIP3    H176237   4.452   4.476  12.722  0.3586 -0.3950  0.4558
18274TIP3    H276238   4.317   4.513  12.663  0.3022  1.8425  1.8691
18275TIP3   OH276239   2.706   2.276  11.150  0.1486 -0.1157 -0.2158
18275TIP3    H176240   2.630   2.221  11.165  1.7405 -2.4736 -0.2649
18275TIP3    H276241   2.715   2.280  11.055 -0.6028  1.2693 -0.2638
18276TIP3   OH276242   0.032   3.545  11.717 -0.1662 -0.5646 -0.3551
18276TIP3    H176243  -0.031   3.568  11.650  0.6737 -0.9639 -1.3057
18276TIP3    H276244   0.093   3.485  11.674  0.2612 -1.0182  0.8251
18277TIP3   OH276245   6.379   4.411   3.263 -0.6218 -0.4210 -0.1019
18277TIP3    H176246   6.356   4.321   3.285 -0.1288 -0.7992 -1.0800
18277TIP3    H276247   6.376   4.414   3.167 -1.0139  0.7065 -0.0751
18278TIP3   OH276248   5.478   6.613   0.510  0.6661  0.3359 -0.4277
18278TIP3    H176249   5.493   6.684   0.573  0.3708  0.0796 -0.0594
18278TIP3    H276250   5.488   6.533   0.562 -1.5377  0.1220 -0.2109
18279TIP3   OH276251   0.148   4.183  11.584  0.3371 -0.8006 -0.9807
18279TIP3    H176252   0.164   4.119  11.515  0.5455 -1.4190 -0.3727
18279TIP3    H276253   0.193   4.263  11.555 -0.1475 -0.8416 -1.8683
18280TIP3   OH276254   0.502   2.701   1.233  0.0536  0.0007  0.2159
18280TIP3    H176255   0.477   2.625   1.285  0.1707 -0.3156 -0.1882
18280TIP3    H276256   0.589   2.680   1.198 -0.1850  0.0370 -0.4280
18281TIP3   OH276257   4.976   0.548   3.520  0.1692 -0.2458 -0.2689
18281TIP3    H176258   4.985   0.592   3.605 -1.0078 -0.4024 -0.0472
18281TIP3    H276259   4.964   0.456   3.543  1.0183 -0.4687 -0.6703
18282TIP3   OH276260   3.406   5.630  16.407  0.1165  0.4511 -0.4981
18282TIP3    H176261   3.430   5.538  16.399 -0.3525  0.2310  0.4911
18282TIP3    H276262   3.316   5.629  16.439  0.5822  1.2296  0.9436
18283TIP3   OH276263   0.185   5.155   3.928 -0.1454 -0.5950 -0.0252
18283TIP3    H176264   0.187   5.125   4.019  2.9837 -2.3967 -0.5464
18283TIP3    H276265   0.098   5.129   3.896 -0.9570 -0.7427  2.1355
18284TIP3   OH276266   4.908   1.264  11.886  0.3398 -0.2479  0.0556
18284TIP3    H176267   4.915   1.192  11.824  1.9373  0.6659 -0.8660
18284TIP3    H276268   4.898   1.221  11.971  1.6929 -1.5753 -0.4222
18285TIP3   OH276269   3.778   3.368   5.861 -0.0459  0.4160  0.2863
18285TIP3    H176270   3.750   3.383   5.951  0.9940 -0.5512  0.8031
18285TIP3    H276271   3.701   3.331   5.817 -0.2980  0.0353  1.0305
18286TIP3   OH276272   1.821   4.022   0.566  0.0966  0.5519  0.1400
18286TIP3    H176273   1.823   4.070   0.484  0.8719  0.7006  0.2358
18286TIP3    H276274   1.733   4.035   0.599 -0.3262  0.2127 -0.8270
18287TIP3   OH276275   2.106   4.809   5.841  0.0154  0.7538  0.1342
18287TIP3    H176276   2.152   4.863   5.905 -0.7900  3.2823 -1.2826
18287TIP3    H276277   2.137   4.842   5.756 -2.0839  0.4322 -0.8142
18288TIP3   OH276278   0.638   0.807  12.944 -0.1653 -0.6836 -0.2792
18288TIP3    H176279   0.712   0.792  13.002 -2.1300  2.5289  3.5204
18288TIP3    H276280   0.657   0.890  12.901 -0.9281 -0.5341 -0.3493
18289TIP3   OH276281   5.453   1.092   3.309 -0.1252 -0.3785  0.0331
18289TIP3    H176282   5.418   1.019   3.360 -0.0502 -1.6334 -1.6749
18289TIP3    H276283   5.535   1.115   3.353 -0.8932 -0.2745  1.4841
18290TIP3   OH276284   2.237   0.625  16.534  0.0487 -0.2906 -0.2856
18290TIP3    H176285   2.278   0.699  16.490  0.5365  0.3259  1.1567
18290TIP3    H276286   2.284   0.548  16.501 -0.4958  0.0046 -1.8281
18291TIP3   OH276287   4.490   3.903   2.855  0.6252 -0.2654  0.0520
18291TIP3    H176288   4.466   3.877   2.766  1.4245  0.5379 -0.4180
18291TIP3    H276289   4.407   3.910   2.901  0.3003 -2.3733 -0.1368
18292TIP3   OH276290   3.967   0.795  14.412 -0.7919 -0.0973  0.1261
18292TIP3    H176291   4.024   0.828  14.343 -3.5541 -1.3606 -3.0306
18292TIP3    H276292   3.911   0.869  14.434 -0.0129  0.2601  0.9808
18293TIP3   OH276293   3.862   2.055  14.161  0.2752 -0.1302  0.2721
18293TIP3    H176294   3.844   2.067  14.255  0.3661  0.8730  0.1722
18293TIP3    H276295   3.957   2.061  14.154  0.1740  1.6203 -0.0936
18294TIP3   OH276296   1.124   3.076   5.978  0.5948  0.0538  0.4926
18294TIP3    H176297   1.116   3.120   6.063  0.7248  0.5098  0.2730
18294TIP3    H276298   1.100   2.985   5.996  0.1857  0.2427  0.9282
18295TIP3   OH276299   2.889   0.052   0.207 -0.3753  0.4281 -0.2669
18295TIP3    H176300   2.927  -0.006   0.273 -1.1851  0.2942  0.0920
18295TIP3    H276301   2.877  -0.005   0.130  0.7110  0.6215 -0.5996
18296TIP3   OH276302   1.267   5.354   3.605  0.7027  0.2459 -0.1773
18296TIP3    H176303   1.232   5.267   3.623  1.5879  0.1403  1.1657
18296TIP3    H276304   1.246   5.370   3.513 -0.9963 -0.6580  0.0237
18297TIP3   OH276305   0.103   6.701  17.103 -0.1914  0.0045  0.0789
18297TIP3    H176306   0.036   6.655  17.154 -0.6863 -0.8776 -1.3064
18297TIP3    H276307   0.071   6.791  17.098 -0.9923 -0.2762 -0.0697
18298TIP3   OH276308   0.540   2.538   0.930 -0.3677 -0.2195 -0.3770
18298TIP3    H176309   0.588   2.511   1.009  1.7007 -1.4197 -1.9343
18298TIP3    H276310   0.567   2.629   0.916 -0.1187 -0.2508 -0.1272
18299TIP3   OH276311   3.485   0.986   0.829  0.1699 -0.3672 -0.2805
18299TIP3    H176312   3.409   1.042   0.842  0.4961 -0.1126  0.6544
18299TIP3    H276313   3.524   1.016   0.747  0.6423  1.1593  0.4603
18300TIP3   OH276314   5.586   5.531   6.731  0.3411 -0.0938  0.6606
18300TIP3    H176315   5.681   5.519   6.732  0.3838 -0.3916 -1.6533
18300TIP3    H276316   5.568   5.572   6.647 -1.6163 -0.2228  0.9662
18301TIP3   OH276317   4.477   4.981   3.334  0.4373  0.1588 -0.3807
18301TIP3    H176318   4.412   4.918   3.304  0.7174  0.1095 -0.8940
18301TIP3    H276319   4.431   5.065   3.336  0.8974  0.5425 -2.8564
18302TIP3   OH276320   2.660   0.228  15.206  0.0798 -0.5449  0.1732
18302TIP3    H176321   2.634   0.307  15.158  0.1600 -0.3327  0.4755
18302TIP3    H276322   2.622   0.240  15.293 -0.5143 -1.1701  0.0105
18303TIP3   OH276323   5.945   2.487   3.976  0.4397 -0.1208  0.2261
18303TIP3    H176324   5.901   2.417   4.024 -0.6396  0.6036  0.3276
18303TIP3    H276325   5.923   2.470   3.884 -0.9579  0.8209  0.3590
18304TIP3   OH276326   2.989   4.035   3.450 -0.8004 -0.2518 -0.8895
18304TIP3    H176327   3.001   4.122   3.488 -1.7473 -0.8432  0.9040
18304TIP3    H276328   3.074   4.013   3.412  0.2839  0.3811  1.0293
18305TIP3   OH276329   2.092   0.343  16.479  0.2887  0.0586  0.4876
18305TIP3    H176330   2.000   0.366  16.468  0.1122  0.4561  2.3489
18305TIP3    H276331   2.094   0.247  16.474  0.0511  0.1164 -1.1363
18306TIP3   OH276332   3.273   1.880   5.344 -0.2629  0.6972  0.7698
18306TIP3    H176333   3.246   1.789   5.339 -2.6181  1.3726 -1.9959
18306TIP3    H276334   3.353   1.884   5.291 -0.0471  0.2038  1.0566
18307TIP3   OH276335   1.670   1.625   5.804  0.3924 -0.1760 -0.4091
18307TIP3    H176336   1.746   1.576   5.836 -1.1621 -1.6502  1.2567
18307TIP3    H276337   1.617   1.561   5.757  0.4510  0.9862 -2.1579
18308TIP3   OH276338   4.947   0.383   1.256  0.2791  0.2134 -0.5912
18308TIP3    H176339   4.903   0.421   1.180  0.2278  0.2333 -0.5522
18308TIP3    H276340   4.875   0.358   1.315  0.3337  0.6514 -0.3343
18309TIP3   OH276341   2.426   5.291  15.158  0.2361  0.7006 -0.2131
18309TIP3    H176342   2.450   5.274  15.249  1.6215 -0.1880 -0.7029
18309TIP3    H276343   2.333   5.314  15.161 -0.4091 -1.6753  1.1927
18310TIP3   OH276344   6.508   6.226  16.692 -0.0226  0.3906  0.1709
18310TIP3    H176345   6.552   6.250  16.773  1.0512 -1.2528  0.1120
18310TIP3    H276346   6.500   6.131  16.696  1.0687  0.1468 -2.1399
18311TIP3   OH276347   1.840   4.322   0.714  0.1105 -0.1202 -0.1167
18311TIP3    H176348   1.916   4.282   0.671  0.0123 -1.0016  0.5021
18311TIP3    H276349   1.769   4.311   0.651  0.3800  0.2648 -0.4933
18312TIP3   OH276350   3.086   0.916  11.378  0.5828  0.2427  0.6630
18312TIP3    H176351   3.142   0.858  11.429 -0.3325  0.6569  2.2050
18312TIP3    H276352   3.041   0.858  11.316 -0.1977 -0.7148  2.0630
18313TIP3   OH276353   1.367   3.965   2.208 -0.3115  0.4561 -0.2701
18313TIP3    H176354   1.427   3.900   2.246 -0.2577  0.5431 -0.2058
18313TIP3    H276355   1.386   4.046   2.256  0.0701  0.6807 -0.7906
18314TIP3   OH276356   2.371   4.032   5.763 -0.5992 -0.5019 -0.1292
18314TIP3    H176357   2.465   4.038   5.747 -0.6525  1.4130  0.0923
18314TIP3    H276358   2.364   4.006   5.854 -0.3196 -2.4061 -0.6060
18315TIP3   OH276359   6.203   3.729  14.253 -0.0509  0.8093  1.0003
18315TIP3    H176360   6.210   3.733  14.349 -1.5996 -3.8235  1.6013
18315TIP3    H276361   6.290   3.702  14.224 -0.0271  0.4460  1.3850
18316TIP3   OH276362   0.939   5.620   0.734  0.0860 -0.4601  0.0101
18316TIP3    H176363   1.017   5.636   0.788 -0.5282  2.0646  0.2903
18316TIP3    H276364   0.892   5.550   0.779  0.5311  0.2955  1.7105
18317TIP3   OH276365   6.657   4.468  16.047 -0.2365  0.1648  0.6942
18317TIP3    H176366   6.600   4.411  15.995  0.6033  0.6288 -0.7978
18317TIP3    H276367   6.604   4.493  16.123 -0.7644 -2.2926  1.2315
18318TIP3   OH276368   3.880   0.266  14.958 -0.0062  0.5043  0.0808
18318TIP3    H176369   3.933   0.234  14.885 -0.5019  2.1393 -1.0867
18318TIP3    H276370   3.943   0.298  15.022  0.4509  0.8629 -0.5351
18319TIP3   OH276371   4.468   0.137  11.279 -0.2849 -0.0821  0.8192
18319TIP3    H176372   4.435   0.058  11.322 -1.0874 -1.6317 -2.3310
18319TIP3    H276373   4.560   0.117  11.261 -0.5095 -0.3781 -0.0517
18320TIP3   OH276374   4.578   0.379  12.704  0.1963 -0.3537 -0.3257
18320TIP3    H176375   4.585   0.454  12.764  1.8354 -2.1025  1.8087
18320TIP3    H276376   4.501   0.331  12.734  0.4682 -0.7333 -0.2370
18321TIP3   OH276377   1.770   4.687   4.357 -0.7699  0.4305  1.1432
18321TIP3    H176378   1.858   4.656   4.332 -1.2489  0.7675 -1.2546
18321TIP3    H276379   1.774   4.696   4.452  2.2526  1.7608  1.0316
18322TIP3   OH276380   5.223   2.294   1.789  0.4974  0.0311  0.9280
18322TIP3    H176381   5.176   2.302   1.872  1.5281 -0.4169  1.5789
18322TIP3    H276382   5.230   2.199   1.775 -0.9418  0.0792 -0.4468
18323TIP3   OH276383   0.377   1.990  17.096  0.4591 -0.9984  0.0123
18323TIP3    H176384   0.463   2.031  17.105 -0.0633  0.0833  0.2307
18323TIP3    H276385   0.323   2.056  17.053 -0.8890 -0.7288  1.9879
18324TIP3   OH276386   1.248   0.748  16.607 -0.1586  0.3057 -0.2793
18324TIP3    H176387   1.198   0.674  16.641  0.3046  0.2478  0.2937
18324TIP3    H276388   1.328   0.749  16.660 -0.9869  2.3657  1.0430
18325TIP3   OH276389   0.616   3.139   3.592  0.0809  0.5000 -0.9861
18325TIP3    H176390   0.590   3.227   3.617 -3.4939 -0.7333  0.2816
18325TIP3    H276391   0.539   3.101   3.551  0.8109 -2.6285  0.2003
18326TIP3   OH276392   2.659   1.064  11.007 -0.4944 -0.0835  0.5378
18326TIP3    H176393   2.600   1.132  10.975  0.9453  0.8448 -0.2397
18326TIP3    H276394   2.716   1.046  10.932  0.4864 -0.6397  1.4091
18327TIP3   OH276395   1.623   2.379  14.088  0.1870 -0.5410 -0.8630
18327TIP3    H176396   1.640   2.316  14.018  1.5509  0.2484 -1.2746
18327TIP3    H276397   1.683   2.354  14.159 -0.8802 -1.0748 -0.1227
18328TIP3   OH276398   0.820   2.854   2.221 -0.4542 -0.1003 -0.2765
18328TIP3    H176399   0.851   2.929   2.273 -0.8227  1.4822 -2.2292
18328TIP3    H276400   0.733   2.880   2.192 -0.4498 -1.1537 -1.2687
18329TIP3   OH276401   5.467   3.041   2.283  0.4355 -0.2982 -0.0182
18329TIP3    H176402   5.412   3.096   2.340  0.7529 -0.3681  0.3615
18329TIP3    H276403   5.431   3.054   2.195 -0.8481 -1.1143  0.3467
18330TIP3   OH276404   4.344   2.497   1.192 -0.6665  0.5638  0.7028
18330TIP3    H176405   4.340   2.564   1.124 -2.5901 -0.6481 -0.4876
18330TIP3    H276406   4.427   2.452   1.177 -0.6168  0.9469 -0.2114
18331TIP3   OH276407   2.208   4.044  14.919  0.3727  0.2659  0.0553
18331TIP3    H176408   2.173   4.130  14.895  1.0318  0.1133 -1.5855
18331TIP3    H276409   2.184   4.033  15.011 -1.2453  1.4452 -0.1910
18332TIP3   OH276410   1.427   5.188  16.920  0.4915 -0.8058 -0.3581
18332TIP3    H176411   1.360   5.214  16.983  0.1535  1.0378 -1.3849
18332TIP3    H276412   1.500   5.155  16.973  0.1253  0.4652  0.9983
18333TIP3   OH276413   0.741   5.011  16.305  0.3016 -0.4272  0.1470
18333TIP3    H176414   0.720   4.953  16.232  1.5841 -1.4538  0.5571
18333TIP3    H276415   0.809   5.069  16.272 -0.1170  0.0391  0.1021
18334TIP3   OH276416   1.881   5.821  16.987 -0.1454 -0.0318 -0.0345
18334TIP3    H176417   1.927   5.774  17.056 -0.1314 -0.3470 -0.2536
18334TIP3    H276418   1.942   5.821  16.913 -0.2021  0.2082 -0.0823
18335TIP3   OH276419   1.345   0.271  14.589 -0.2285  0.1395 -0.0328
18335TIP3    H176420   1.407   0.241  14.524  0.5654  2.4778 -0.4638
18335TIP3    H276421   1.312   0.354  14.554 -2.6355 -0.3755  0.8020
18336TIP3   OH276422   2.475   1.764   2.903  0.1924  0.2539  0.1821
18336TIP3    H176423   2.549   1.750   2.962 -0.5400  1.6004  1.4658
18336TIP3    H276424   2.399   1.737   2.954 -0.5058  1.9422  0.0765
18337TIP3   OH276425   2.739   3.784  15.243 -0.0346  0.1715  0.2873
18337TIP3    H176426   2.775   3.771  15.331  0.1287  0.2410  0.2332
18337TIP3    H276427   2.766   3.874  15.221  0.8454 -0.2166 -0.2552
18338TIP3   OH276428   3.383   4.542  17.156  0.2956 -0.4421  0.0840
18338TIP3    H176429   3.300   4.585  17.172  0.7847  0.7476 -0.4245
18338TIP3    H276430   3.370   4.495  17.074  0.7509  1.5773 -1.2187
18339TIP3   OH276431   5.729   3.229  13.540  0.3436 -0.1932 -0.0420
18339TIP3    H176432   5.770   3.152  13.579  0.5401  0.5958  1.3991
18339TIP3    H276433   5.701   3.282  13.616  0.3330  1.2016 -0.9872
18340TIP3   OH276434   5.665   5.038   1.785  0.4473 -0.2155  0.4644
18340TIP3    H176435   5.673   5.053   1.691 -0.1587 -0.6032  0.3485
18340TIP3    H276436   5.749   5.066   1.821  0.0639  1.6005  0.0273
18341TIP3   OH276437   1.977   3.238   2.577  0.2545 -0.4817  0.3471
18341TIP3    H176438   1.930   3.234   2.660  0.6877 -2.4302  0.5499
18341TIP3    H276439   1.909   3.224   2.510  0.1113 -0.2310  0.4373
18342TIP3   OH276440   5.642   2.183   5.100  0.1860 -0.0747  0.0633
18342TIP3    H176441   5.578   2.201   5.031 -0.0020  0.6447  0.4050
18342TIP3    H276442   5.727   2.196   5.058  0.1359 -1.3757 -0.4840
18343TIP3   OH276443   6.523   0.004   4.569 -0.7494 -0.8100 -0.0277
18343TIP3    H176444   6.457  -0.023   4.505 -0.1519 -2.2943 -0.0633
18343TIP3    H276445   6.600   0.025   4.517 -0.8672 -0.0770  0.0844
18344TIP3   OH276446   0.999   6.149   4.002  0.1564  0.2258 -0.0247
18344TIP3    H176447   1.033   6.211   4.066  2.7758  0.3041 -1.3558
18344TIP3    H276448   0.975   6.072   4.053  1.6893  0.4743  1.1156
18345TIP3   OH276449   2.566   1.553   1.085 -0.2391  0.2178  0.0360
18345TIP3    H176450   2.623   1.508   1.146 -1.1272 -1.4596 -0.3065
18345TIP3    H276451   2.623   1.580   1.013  0.3705 -0.0943  0.4002
18346TIP3   OH276452   6.386   4.594  13.768 -0.1719 -0.8754 -0.0478
18346TIP3    H176453   6.446   4.630  13.833  0.1230  0.3159 -0.9624
18346TIP3    H276454   6.300   4.596  13.812 -0.2712  1.4555 -0.2179
18347TIP3   OH276455   2.854   2.427   3.845  0.1155 -0.0838  0.4828
18347TIP3    H176456   2.893   2.408   3.931  0.3953 -1.0821  0.1466
18347TIP3    H276457   2.911   2.493   3.807  0.4393 -0.1982  0.7574
18348TIP3   OH276458   6.286   2.502   3.526  0.3293 -0.7342  0.2451
18348TIP3    H176459   6.366   2.553   3.540  1.6316 -2.4935 -0.4213
18348TIP3    H276460   6.274   2.500   3.431 -0.1580 -0.9995  0.3036
18349TIP3   OH276461   3.939   5.156  13.040  0.1147  0.4724 -0.3463
18349TIP3    H176462   3.949   5.239  12.993  1.4148  1.7307  1.9602
18349TIP3    H276463   3.846   5.149  13.058 -0.0693  1.1770 -0.9767
18350TIP3   OH276464   3.141   1.101  13.016  0.4345  1.2990 -0.3163
18350TIP3    H176465   3.090   1.116  13.095  0.5775  0.8371 -0.1360
18350TIP3    H276466   3.224   1.064  13.047 -0.2262 -0.6858 -0.8075
18351TIP3   OH276467   4.090   6.262  16.341  0.1329  0.7593 -0.4542
18351TIP3    H176468   4.024   6.287  16.278  0.5544  0.3541 -1.0628
18351TIP3    H276469   4.161   6.325  16.328 -0.5728  1.9289  0.9900
18352TIP3   OH276470   5.805   3.065  13.880 -0.4394  0.0680 -0.0910
18352TIP3    H176471   5.824   3.122  13.955  0.3634 -0.7263  0.3310
18352TIP3    H276472   5.765   2.987  13.917  0.1593 -0.4262 -0.4539
18353TIP3   OH276473   3.311   3.518  10.829  0.3208 -0.1326 -0.0647
18353TIP3    H176474   3.260   3.441  10.802  0.0685  0.0467 -0.1005
18353TIP3    H276475   3.399   3.483  10.847  0.5978 -0.2061 -1.4591
18354TIP3   OH276476   1.336   0.233  12.612  0.9653 -1.4155 -0.8599
18354TIP3    H176477   1.386   0.299  12.659  0.0182 -0.4425 -1.1779
18354TIP3    H276478   1.245   0.258  12.625  0.5998 -2.4398 -1.3176
18355TIP3   OH276479   2.662   4.809  13.514  0.0928 -0.5848  0.3951
18355TIP3    H176480   2.585   4.860  13.491  0.2568 -0.4444  0.1551
18355TIP3    H276481   2.689   4.768  13.432 -0.4213 -1.5907  0.7074
18356TIP3   OH276482   0.250   1.713   4.296  0.4620  0.1755 -0.0121
18356TIP3    H176483   0.330   1.692   4.345 -0.0771 -0.3844  0.6516
18356TIP3    H276484   0.192   1.752   4.361  1.1523  3.1822 -1.0574
18357TIP3   OH276485   5.383   0.369  16.324 -0.0487 -0.2308  0.3059
18357TIP3    H176486   5.435   0.345  16.400  0.8167 -0.7896 -0.4377
18357TIP3    H276487   5.300   0.398  16.360  1.1226  1.7350  1.6054
18358TIP3   OH276488   5.565   2.447   2.515 -0.9533 -0.2848 -0.4743
18358TIP3    H176489   5.479   2.479   2.544 -1.2104 -2.2098  1.0767
18358TIP3    H276490   5.627   2.490   2.573 -1.0002 -0.1016 -0.5578
18359TIP3   OH276491   6.202   4.064   2.615 -0.1312  0.0921  0.4116
18359TIP3    H176492   6.222   4.063   2.709  1.2326 -0.7517  0.1434
18359TIP3    H276493   6.185   3.972   2.594  1.0031  0.0495 -0.4272
18360TIP3   OH276494   2.201   4.718  13.341  0.0799 -0.0053 -0.2741
18360TIP3    H176495   2.189   4.688  13.431  1.4560 -0.0744 -0.0973
18360TIP3    H276496   2.113   4.717  13.303 -0.6085  0.6127  1.2472
18361TIP3   OH276497   6.709   0.421  16.924  0.1827  0.2276  0.2107
18361TIP3    H176498   6.617   0.440  16.941  0.5403  0.3011  2.3490
18361TIP3    H276499   6.739   0.493  16.869 -0.4994  1.4344  1.3783
18362TIP3   OH276500   2.107   3.936   2.852  0.1200  0.5190  1.0034
18362TIP3    H176501   2.114   3.961   2.760 -2.9206 -0.6025  0.3306
18362TIP3    H276502   2.013   3.938   2.870  0.6068  0.4314  4.0429
18363TIP3   OH276503   6.377   1.351   2.732  0.1075 -0.2884  0.0734
18363TIP3    H176504   6.446   1.288   2.712 -0.4053 -0.9832  0.4760
18363TIP3    H276505   6.339   1.320   2.814 -2.5989 -1.6044 -1.5566
18364TIP3   OH276506   0.617   4.800  12.729 -0.0945  0.2492 -0.0605
18364TIP3    H176507   0.632   4.758  12.814  1.0644 -0.6569 -0.6846
18364TIP3    H276508   0.602   4.892  12.750 -0.1945 -0.0291  1.1518
18365TIP3   OH276509   2.838   4.709   2.598 -0.3304 -0.4446  0.5000
18365TIP3    H176510   2.830   4.769   2.523 -0.2306  0.3692  1.1281
18365TIP3    H276511   2.887   4.634   2.563 -0.8823 -0.3977 -0.4257
18366TIP3   OH276512   1.703   4.577   0.488  0.1794  0.0126 -0.1199
18366TIP3    H176513   1.640   4.639   0.526 -0.3912 -0.2914 -0.5549
18366TIP3    H276514   1.671   4.491   0.515  1.1924 -0.0957  0.8140
18367TIP3   OH276515   2.024   4.709  15.908 -0.3669 -0.0850  0.0366
18367TIP3    H176516   2.054   4.699  15.998  1.3454  2.8971 -0.1068
18367TIP3    H276517   2.096   4.677  15.855  0.0385  1.2738 -0.2624
18368TIP3   OH276518   2.156   2.159  16.986  0.4153  0.8416 -0.3388
18368TIP3    H176519   2.101   2.237  16.987  2.2692  2.2119 -0.7385
18368TIP3    H276520   2.228   2.179  17.046 -0.6906 -1.8589  2.0786
18369TIP3   OH276521   2.155   3.114  16.373 -0.4126  0.0107 -0.3387
18369TIP3    H176522   2.071   3.075  16.347 -0.3205 -0.9017  0.6614
18369TIP3    H276523   2.214   3.094  16.300 -0.3468 -1.8557  0.1767
18370TIP3   OH276524   4.432   5.062  13.161 -0.8727 -0.6388 -0.6251
18370TIP3    H176525   4.363   5.113  13.203 -0.7214 -0.0405 -1.0868
18370TIP3    H276526   4.430   4.977  13.206 -2.0557 -0.7183 -0.7797
18371TIP3   OH276527   1.463   2.488   1.184  0.0393 -0.1768 -0.2643
18371TIP3    H176528   1.398   2.536   1.133 -2.0396 -1.9487  0.5431
18371TIP3    H276529   1.455   2.523   1.273  1.4633  0.7673 -0.4723
18372TIP3   OH276530   4.616   3.833   0.094 -0.4259 -0.6955  0.4724
18372TIP3    H176531   4.556   3.906   0.076 -1.5171 -1.5625  0.4504
18372TIP3    H276532   4.606   3.775   0.018 -0.7653 -1.6149  1.1972
18373TIP3   OH276533   5.646   2.228   3.557  0.1156 -0.0130 -0.3185
18373TIP3    H176534   5.682   2.294   3.617  1.7709 -1.5607  0.5125
18373TIP3    H276535   5.695   2.239   3.476  0.7675 -0.5057 -0.0073
18374TIP3   OH276536   1.061   5.997   2.265  0.3891 -0.4005 -0.4678
18374TIP3    H176537   1.026   6.083   2.242  1.0215  0.1133  0.4022
18374TIP3    H276538   0.991   5.956   2.316  0.6678  0.2527  0.4765
18375TIP3   OH276539   4.397   6.304   1.863  0.5523  0.1321 -0.3656
18375TIP3    H176540   4.303   6.308   1.881  0.7723 -0.6702  1.1120
18375TIP3    H276541   4.421   6.214   1.881  1.4269  0.0576 -1.7904
18376TIP3   OH276542   0.168   1.252   3.528 -0.3895  0.6447 -0.7352
18376TIP3    H176543   0.108   1.226   3.457 -1.1389  2.9136 -1.0034
18376TIP3    H276544   0.131   1.333   3.562 -0.4214 -0.6863  2.7712
18377TIP3   OH276545   0.160   5.385   1.222 -0.9500  0.0854  0.3928
18377TIP3    H176546   0.092   5.451   1.213 -0.6787  0.4605  1.0154
18377TIP3    H276547   0.226   5.409   1.158  0.0247  1.5444  1.8499
18378TIP3   OH276548   6.700   6.681   0.370  0.4654  0.3988 -0.4341
18378TIP3    H176549   6.714   6.648   0.459 -0.6383  3.7040  1.1332
18378TIP3    H276550   6.771   6.743   0.356 -0.6818  1.6951 -0.8018
18379TIP3   OH276551   2.939   6.349  16.271 -0.6747  0.1606  0.6395
18379TIP3    H176552   2.885   6.423  16.243 -2.1213 -1.2155 -0.3928
18379TIP3    H276553   2.928   6.346  16.366 -1.6801  0.4638  0.5436
18380TIP3   OH276554   4.556   0.203  11.841 -0.0819 -0.5474  0.0751
18380TIP3    H176555   4.587   0.293  11.830  0.0791 -0.4535  1.1785
18380TIP3    H276556   4.516   0.181  11.757  3.3598 -0.8444 -1.6612
18381TIP3   OH276557   5.399   4.891  15.185 -0.1496  0.1392  0.1061
18381TIP3    H176558   5.392   4.854  15.273 -0.6010  0.4627  0.2070
18381TIP3    H276559   5.407   4.815  15.127  3.2273 -0.0963  0.6519
18382TIP3   OH276560   2.964   6.080  12.168  0.4922  0.0142 -0.1703
18382TIP3    H176561   2.960   6.036  12.083  0.6302 -1.3604  0.5029
18382TIP3    H276562   2.887   6.047  12.216 -0.7845  2.3394 -0.4373
18383TIP3   OH276563   3.515   4.123   5.898 -0.3722  0.2856  0.1833
18383TIP3    H176564   3.424   4.118   5.925 -0.3069 -0.3140  0.2905
18383TIP3    H276565   3.550   4.198   5.946 -0.4369 -0.3524  1.2390
18384TIP3   OH276566   4.734   2.410  12.914 -0.1153 -0.1513  0.6247
18384TIP3    H176567   4.736   2.454  12.830  1.4208 -1.5055 -0.1046
18384TIP3    H276568   4.641   2.399  12.933 -0.5319 -1.0347 -1.5941
18385TIP3   OH276569   0.194   0.760   0.155 -0.0709 -0.1982  0.0609
18385TIP3    H176570   0.264   0.772   0.219  1.5832 -0.7629 -1.5343
18385TIP3    H276571   0.236   0.710   0.084 -2.5622 -2.0906 -0.2074
18386TIP3   OH276572   1.446   2.604  13.722 -0.1075  0.0342 -0.4870
18386TIP3    H176573   1.437   2.698  13.738  0.2855 -0.2532  1.6963
18386TIP3    H276574   1.514   2.575  13.782  0.1626 -1.5700 -1.5016
18387TIP3   OH276575   4.292   5.597  14.041 -0.2776 -0.5816  0.1158
18387TIP3    H176576   4.229   5.669  14.036  0.2147 -0.0971  0.7687
18387TIP3    H276577   4.238   5.520  14.060 -0.9457 -0.6241 -1.7354
18388TIP3   OH276578   3.011   0.369  12.331  0.4629 -0.3347 -0.2187
18388TIP3    H176579   3.080   0.424  12.293  0.7368 -0.0932  0.6152
18388TIP3    H276580   3.024   0.376  12.425  1.4903 -3.0664 -0.0837
18389TIP3   OH276581   4.169   0.564  13.333  0.1624  0.4197 -0.3508
18389TIP3    H176582   4.219   0.563  13.415 -1.2351  1.5531  0.5612
18389TIP3    H276583   4.234   0.583  13.266  1.2197  0.2388  0.5816
18390TIP3   OH276584   4.163   3.933   5.606  0.6697  0.4109 -0.3223
18390TIP3    H176585   4.116   4.005   5.649 -0.6040 -1.6040  1.9634
18390TIP3    H276586   4.097   3.864   5.596  1.7268 -0.3605 -2.7964
18391TIP3   OH276587   3.155   1.352   4.916  0.0138  0.1751 -0.1849
18391TIP3    H176588   3.208   1.398   4.851  1.2794 -1.2307 -0.1779
18391TIP3    H276589   3.218   1.314   4.976 -1.0612 -0.4591  0.5713
18392TIP3   OH276590   0.254   3.520   1.559 -0.2238  0.7762  0.4223
18392TIP3    H176591   0.185   3.498   1.622  0.2162  0.2374  0.7227
18392TIP3    H276592   0.213   3.509   1.473  0.0430 -1.5627  0.5291
18393TIP3   OH276593   3.676   0.687  16.955 -0.1657 -0.2935  0.4423
18393TIP3    H176594   3.658   0.594  16.963  0.8701 -0.5429 -0.0030
18393TIP3    H276595   3.738   0.706  17.026 -1.3011  0.3297  1.3062
18394TIP3   OH276596   4.433   1.299  11.264 -0.1416  0.1586 -0.8074
18394TIP3    H176597   4.463   1.240  11.195  1.3328 -0.0234 -0.0561
18394TIP3    H276598   4.446   1.386  11.228  0.9595  0.0730 -0.6613
18395TIP3   OH276599   4.517   5.229   0.771  0.3491  0.0207  0.3151
18395TIP3    H176600   4.583   5.162   0.756  0.7577  0.3804  0.4788
18395TIP3    H276601   4.434   5.182   0.767  0.6469 -0.5812  0.9182
18396TIP3   OH276602   5.423   2.149  15.811  0.3614  0.0311  0.4919
18396TIP3    H176603   5.419   2.056  15.834  0.0673 -0.0785  0.0161
18396TIP3    H276604   5.434   2.194  15.894 -1.9634 -0.2507  1.0123
18397TIP3   OH276605   6.254   2.536   1.054 -0.3390 -0.4482 -0.3378
18397TIP3    H176606   6.292   2.582   1.129  0.1085 -1.2690 -0.0507
18397TIP3    H276607   6.254   2.444   1.080 -0.6264 -0.6899 -1.1637
18398TIP3   OH276608   3.167   1.745  16.439  0.5074 -0.0637  0.9223
18398TIP3    H176609   3.115   1.665  16.439  0.0844  0.2030  0.3282
18398TIP3    H276610   3.224   1.737  16.516 -0.6082 -0.2395  1.7644
18399TIP3   OH276611   2.624   3.067  13.213 -0.1026  0.3585 -0.0198
18399TIP3    H176612   2.672   3.141  13.177  1.4971  1.1421  3.3545
18399TIP3    H276613   2.532   3.090  13.201  0.3503  2.9927  1.0340
18400TIP3   OH276614   6.051   3.295   6.440 -0.8612 -0.3412 -0.1073
18400TIP3    H176615   6.036   3.216   6.493 -1.3313  0.5160  1.0858
18400TIP3    H276616   6.130   3.334   6.477 -0.9583  0.0523 -0.3057
18401TIP3   OH276617   1.011   6.149   4.873  0.1854 -0.0739  0.1269
18401TIP3    H176618   1.076   6.112   4.932  1.2421 -2.4594 -2.2960
18401TIP3    H276619   1.060   6.215   4.823  0.7263 -1.5359 -1.3694
18402TIP3   OH276620   4.245   5.130   4.711  0.0355 -0.3928 -0.5582
18402TIP3    H176621   4.188   5.086   4.648 -2.0355 -2.1443  2.2647
18402TIP3    H276622   4.256   5.066   4.781 -0.5170  2.4551  2.3515
18403TIP3   OH276623   5.990   5.683  13.953  0.1038 -0.0543  0.3374
18403TIP3    H176624   6.063   5.627  13.926  0.4452  0.7429 -0.4550
18403TIP3    H276625   5.943   5.631  14.018  0.4729 -1.2068 -0.2852
18404TIP3   OH276626   3.979   1.207  15.617  0.2240  0.5175 -0.3814
18404TIP3    H176627   4.040   1.231  15.548 -0.7918 -1.3813 -2.0461
18404TIP3    H276628   3.895   1.195  15.572 -0.3413 -1.3753  1.0386
18405TIP3   OH276629   0.161   2.911  15.894 -0.6537  0.0538  0.3524
18405TIP3    H176630   0.222   2.843  15.867  0.4863  1.3921 -0.5552
18405TIP3    H276631   0.076   2.868  15.894  0.1507 -1.6191  0.7936
18406TIP3   OH276632   3.575   0.059  15.965 -0.0044  0.1171  0.6809
18406TIP3    H176633   3.546   0.037  16.054 -1.4475 -1.3165 -0.0952
18406TIP3    H276634   3.512   0.123  15.933  0.3067  0.3630  0.5464
18407TIP3   OH276635   2.238   2.773   2.724  0.1337 -0.1313  0.1773
18407TIP3    H176636   2.300   2.701   2.731  0.7424  0.3718  0.0806
18407TIP3    H276637   2.153   2.731   2.712  0.3957 -0.8368  0.7204
18408TIP3   OH276638   0.755   4.255   1.431  0.9573  0.1295  0.3408
18408TIP3    H176639   0.787   4.291   1.514  0.6400 -1.1668  1.0472
18408TIP3    H276640   0.812   4.180   1.414 -0.9788 -1.6120  1.1071
18409TIP3   OH276641   0.914   3.030  13.704 -0.2738  0.4218  0.2613
18409TIP3    H176642   0.839   3.089  13.709 -0.1554  0.6738 -0.6880
18409TIP3    H276643   0.886   2.961  13.644  0.8422  1.4575 -1.5468
18410TIP3   OH276644   2.772   0.782  13.974 -0.3582 -0.6557  0.1913
18410TIP3    H176645   2.698   0.810  13.920  1.2039  0.6893 -1.3789
18410TIP3    H276646   2.766   0.836  14.053 -0.2468  0.5107 -0.5795
18411TIP3   OH276647   5.845   0.202   3.575 -0.4111 -0.2879  0.3324
18411TIP3    H176648   5.790   0.216   3.652 -0.5651 -0.9268  0.3476
18411TIP3    H276649   5.932   0.185   3.610 -0.4617 -0.4853  0.3665
18412TIP3   OH276650   5.461   2.399   0.482  0.7227 -0.1220 -0.0499
18412TIP3    H176651   5.510   2.343   0.422  1.0079  0.6123 -0.5155
18412TIP3    H276652   5.422   2.467   0.426 -0.6816 -0.5726  0.3228
18413TIP3   OH276653   4.538   4.388   3.132  0.1580  0.3659  0.1746
18413TIP3    H176654   4.594   4.388   3.210 -0.0080  0.1006  0.2948
18413TIP3    H276655   4.579   4.451   3.073  1.5424 -1.0379 -0.4371
18414TIP3   OH276656   3.744   4.415  14.632  0.4179  0.0078  0.4119
18414TIP3    H176657   3.657   4.376  14.641  1.2246 -1.8122  0.7047
18414TIP3    H276658   3.758   4.463  14.714  0.0419 -0.4384  0.7429
18415TIP3   OH276659   2.745   0.755   2.430 -0.8158 -0.5705 -0.0224
18415TIP3    H176660   2.828   0.802   2.431 -1.6160  0.8776  0.9141
18415TIP3    H276661   2.744   0.711   2.345  0.7693 -0.4038 -0.1627
18416TIP3   OH276662   4.507   5.998   6.706 -0.0488 -0.4448 -0.0016
18416TIP3    H176663   4.560   6.010   6.784 -0.1345  0.6896 -0.1072
18416TIP3    H276664   4.566   5.954   6.644  0.6356  0.4151  0.0261
18417TIP3   OH276665   2.957   4.981  13.964 -0.0258 -0.2186 -0.2726
18417TIP3    H176666   3.017   5.019  13.900  0.5021  0.1274  0.3975
18417TIP3    H276667   2.871   4.983  13.922  0.1235  1.0288 -0.5531
18418TIP3   OH276668   0.562   1.698   0.308 -0.3269 -0.3235 -0.3070
18418TIP3    H176669   0.620   1.623   0.320 -0.3362 -0.2213  0.4450
18418TIP3    H276670   0.496   1.668   0.245 -0.8457 -1.2541  0.6520
18419TIP3   OH276671   2.615   2.116  11.407  0.1603  0.0733 -0.4783
18419TIP3    H176672   2.675   2.190  11.407  0.1137  0.1678 -2.2258
18419TIP3    H276673   2.619   2.081  11.496 -0.5846  2.7599  0.7101
18420TIP3   OH276674   4.153   5.514   3.803 -0.4242 -0.2453 -0.8914
18420TIP3    H176675   4.141   5.449   3.872  1.7326 -1.1240 -1.2557
18420TIP3    H276676   4.067   5.522   3.762 -1.3626 -0.8943  0.8496
18421TIP3   OH276677   0.403   4.009  12.652  0.0137 -0.1024 -0.0183
18421TIP3    H176678   0.343   4.081  12.669 -1.3632 -0.6790 -2.0507
18421TIP3    H276679   0.481   4.030  12.704 -0.9026  2.0593  0.5990
18422TIP3   OH276680   2.854   5.138  12.198  0.1349  0.2983  0.1187
18422TIP3    H176681   2.885   5.169  12.283  0.5399 -0.5348  0.2806
18422TIP3    H276682   2.921   5.077  12.168 -0.9276 -0.9174  0.0977
18423TIP3   OH276683   4.260   0.718  13.073  0.2282  0.0216 -0.0376
18423TIP3    H176684   4.177   0.745  13.111 -0.3981 -1.4840 -0.2785
18423TIP3    H276685   4.298   0.799  13.038 -1.1504  0.7208  0.0314
18424TIP3   OH276686   4.511   6.036  12.567 -0.1809  0.1242 -0.1145
18424TIP3    H176687   4.494   6.083  12.649 -0.0695  0.2472 -0.1627
18424TIP3    H276688   4.568   5.963  12.592 -0.6032 -0.1642  0.0116
18425TIP3   OH276689   1.023   5.137   1.108 -0.1936  0.2826  0.4187
18425TIP3    H176690   1.012   5.055   1.157 -0.2079 -1.4625 -2.2998
18425TIP3    H276691   0.971   5.125   1.029  0.4177  2.6489 -0.4226
18426TIP3   OH276692   2.293   1.471   3.340  0.0971 -0.0127  0.1976
18426TIP3    H176693   2.352   1.499   3.410  1.1549 -0.1990 -0.5858
18426TIP3    H276694   2.281   1.378   3.354 -0.8579  0.2082  0.9518
18427TIP3   OH276695   2.251   1.352   5.607 -0.7425 -0.4316 -0.5223
18427TIP3    H176696   2.288   1.430   5.567 -1.4554  0.0178 -0.3186
18427TIP3    H276697   2.215   1.382   5.690 -2.3244 -0.6751 -1.0878
18428TIP3   OH276698   2.427   5.380   4.136 -0.3959 -0.5985 -0.2289
18428TIP3    H176699   2.350   5.383   4.079  0.1356 -0.2331 -0.9389
18428TIP3    H276700   2.501   5.384   4.076  0.1920 -1.6123  0.4053
18429TIP3   OH276701   2.385   1.120  15.918  0.4374 -0.2485 -0.1856
18429TIP3    H176702   2.388   1.036  15.871 -2.3814 -0.6203  0.1045
18429TIP3    H276703   2.322   1.105  15.989 -0.9627  2.3621 -0.7423
18430TIP3   OH276704   4.072   1.237  11.577 -0.0322 -0.1384  0.3803
18430TIP3    H176705   4.156   1.229  11.532  0.1256 -0.1597  0.6780
18430TIP3    H276706   4.052   1.331  11.573  0.8851  0.1473  1.8790
18431TIP3   OH276707   0.165   3.235   1.115  0.0304  0.2935 -0.4197
18431TIP3    H176708   0.224   3.309   1.097  2.2058 -1.1929  0.2835
18431TIP3    H276709   0.148   3.197   1.029 -1.3995  1.7281 -0.8396
18432TIP3   OH276710   2.268   1.181   1.427  0.1033  0.0140  0.0885
18432TIP3    H176711   2.337   1.116   1.437 -1.0598 -1.2179  0.4012
18432TIP3    H276712   2.294   1.233   1.351  1.6493 -0.0338  0.5631
18433TIP3   OH276713   0.805   1.353   6.639  0.2073  0.0871 -0.0767
18433TIP3    H176714   0.774   1.379   6.552  0.8986 -0.4302 -0.4864
18433TIP3    H276715   0.823   1.260   6.631 -0.1842 -0.0688  0.7704
18434TIP3   OH276716   1.261   6.236  13.640 -0.4724 -0.3547  0.0929
18434TIP3    H176717   1.209   6.301  13.593  0.8607  1.5126  1.0969
18434TIP3    H276718   1.351   6.255  13.615 -0.0857 -2.4228 -0.2615
18435TIP3   OH276719   3.732   6.638  12.585 -0.1482 -0.5597  0.9553
18435TIP3    H176720   3.784   6.603  12.657 -0.5804  0.5584  1.8416
18435TIP3    H276721   3.704   6.724  12.616  1.2107  0.7854 -1.2726
18436TIP3   OH276722   4.916   3.879   1.847  0.5921  0.1322 -0.7029
18436TIP3    H176723   4.858   3.896   1.772  0.0697  2.5116  0.1546
18436TIP3    H276724   4.884   3.937   1.916  2.2587 -0.5883  0.7566
18437TIP3   OH276725   3.730   2.471   3.905  0.1230 -0.6961  0.2331
18437TIP3    H176726   3.766   2.558   3.886  0.0097 -0.1239  2.4591
18437TIP3    H276727   3.661   2.459   3.839 -0.2647  1.1596  0.2590
18438TIP3   OH276728   5.790   4.839   4.495  0.2802  0.1755 -0.7426
18438TIP3    H176729   5.700   4.826   4.522  0.1965 -0.6256 -1.3524
18438TIP3    H276730   5.830   4.888   4.566  0.0328 -1.6892  0.7634
18439TIP3   OH276731   0.467   0.598  12.388 -0.3514 -0.3304 -0.1424
18439TIP3    H176732   0.472   0.531  12.456 -0.8522 -0.9945 -0.7386
18439TIP3    H276733   0.389   0.649  12.411 -0.1956 -0.1965  0.0935
18440TIP3   OH276734   4.774   2.598  12.105  0.9730 -0.0015 -0.0727
18440TIP3    H176735   4.824   2.674  12.077  1.5928 -0.1899  0.5273
18440TIP3    H276736   4.704   2.634  12.160  0.8803  0.1892 -0.3123
18441TIP3   OH276737   6.172   4.980   2.223  0.3398 -0.1245 -0.2100
18441TIP3    H176738   6.240   4.921   2.256  0.2909 -0.8711 -1.3513
18441TIP3    H276739   6.212   5.022   2.147 -0.1423  0.1817 -0.3012
18442TIP3   OH276740   6.191   3.277   2.044 -0.2295 -0.0088 -0.1250
18442TIP3    H176741   6.246   3.203   2.069  0.9224  0.9601  0.3276
18442TIP3    H276742   6.145   3.301   2.124  0.1715  0.3774 -0.0011
18443TIP3   OH276743   3.529   4.715  14.731  0.2187 -0.0289 -0.3830
18443TIP3    H176744   3.471   4.743  14.802  0.9664 -0.7310  0.5297
18443TIP3    H276745   3.589   4.653  14.772  3.0154  2.2050 -0.7845
18444TIP3   OH276746   3.092   5.979   0.212  0.0490 -0.0427 -0.5447
18444TIP3    H176747   3.160   5.939   0.158  0.8639 -0.7933  0.9703
18444TIP3    H276748   3.054   5.907   0.261 -0.7904  0.5955 -0.2250
18445TIP3   OH276749   1.101   3.118  14.280 -0.1914  0.2666 -0.5597
18445TIP3    H176750   1.107   3.024  14.265 -1.3737  0.3386 -1.6017
18445TIP3    H276751   1.010   3.132  14.306  0.4275  0.8997  1.3980
18446TIP3   OH276752   3.065   6.565   5.624 -0.2098  0.6081 -0.4416
18446TIP3    H176753   3.151   6.531   5.648  0.4482  2.4064 -0.1017
18446TIP3    H276754   3.054   6.539   5.532  1.9772  2.6949 -1.3962
18447TIP3   OH276755   4.698   5.952   1.371 -0.4315  0.0943 -0.3638
18447TIP3    H176756   4.663   5.967   1.459 -0.1102  0.6520 -0.3261
18447TIP3    H276757   4.719   5.858   1.369  0.2922  0.2218  0.4353
18448TIP3   OH276758   0.474   1.637  11.645  0.1483 -0.4697 -0.1886
18448TIP3    H176759   0.533   1.696  11.597  0.8884  0.4166  1.6991
18448TIP3    H276760   0.533   1.576  11.689 -0.2377  0.5792  1.9313
18449TIP3   OH276761   3.764   4.157  10.643  0.3533  0.3745  0.2644
18449TIP3    H176762   3.781   4.143  10.736 -1.6023  2.1482  0.9790
18449TIP3    H276763   3.710   4.083  10.616  2.1589 -0.9350  0.0987
18450TIP3   OH276764   6.440   5.120  16.091 -0.3566 -0.5058 -0.1558
18450TIP3    H176765   6.521   5.097  16.137  0.1070 -0.1272 -0.7737
18450TIP3    H276766   6.416   5.040  16.044  0.1994 -0.3241 -0.7577
18451TIP3   OH276767   1.725   6.545   0.713 -0.2064 -0.0058  0.5755
18451TIP3    H176768   1.711   6.579   0.802 -0.7761 -0.2032  0.5595
18451TIP3    H276769   1.783   6.470   0.726 -0.4430 -0.1528  0.8029
18452TIP3   OH276770   1.762   5.066  15.113  0.5692 -0.0576  0.9290
18452TIP3    H176771   1.856   5.055  15.103  0.4872  0.3778 -0.5368
18452TIP3    H276772   1.728   5.068  15.024 -0.9798 -1.3074  1.4506
18453TIP3   OH276773   4.949   2.214   3.156 -0.1772 -0.2401  0.1493
18453TIP3    H176774   5.001   2.276   3.105  0.8139 -2.0239 -1.1305
18453TIP3    H276775   4.994   2.209   3.241 -1.2177  1.9391  0.8901
18454TIP3   OH276776   6.614   0.437  11.678 -0.1926 -0.6707 -0.1523
18454TIP3    H176777   6.598   0.462  11.587  1.8935 -0.8344 -0.6042
18454TIP3    H276778   6.553   0.492  11.728 -0.9439 -0.1243 -1.5831
18455TIP3   OH276779   3.953   2.617  12.428 -0.3085  0.1626 -0.3422
18455TIP3    H176780   4.022   2.635  12.493  1.2094 -0.1139 -1.8016
18455TIP3    H276781   3.956   2.692  12.369  0.7903 -1.1742 -2.0816
18456TIP3   OH276782   1.393   5.657   4.697  0.2833  0.4711  0.2895
18456TIP3    H176783   1.459   5.724   4.713  0.5693  0.4285 -0.6575
18456TIP3    H276784   1.313   5.706   4.675  0.3043  0.5092  0.3001
18457TIP3   OH276785   5.257   0.286   1.489 -0.4181 -0.5944 -0.2752
18457TIP3    H176786   5.162   0.297   1.498 -0.3602 -1.1535  1.2492
18457TIP3    H276787   5.272   0.192   1.500  0.4550 -0.3113  1.2045
18458TIP3   OH276788   2.185   2.442  16.272  0.4760 -0.0747 -0.4855
18458TIP3    H176789   2.174   2.515  16.333  2.2835 -1.2190  1.3104
18458TIP3    H276790   2.274   2.452  16.238 -0.3932  0.3929 -2.8512
18459TIP3   OH276791   3.969   6.586  15.584 -0.0906 -0.4897 -0.2675
18459TIP3    H176792   4.049   6.583  15.635 -0.6982 -0.0255  0.7425
18459TIP3    H276793   3.904   6.540  15.638 -1.1224  1.2840  0.0939
18460TIP3   OH276794   2.713   2.725  15.810 -0.1664 -0.2385  0.1661
18460TIP3    H176795   2.707   2.817  15.784 -1.2879 -0.8496 -1.9712
18460TIP3    H276796   2.640   2.682  15.764  1.3450 -2.5101 -0.2819
18461TIP3   OH276797   1.845   0.731  13.186  0.3580  0.2673 -0.4822
18461TIP3    H176798   1.916   0.785  13.219  1.3755 -0.6962 -1.0325
18461TIP3    H276799   1.865   0.719  13.093  0.2593 -1.1820 -0.3437
18462TIP3   OH276800   1.684   6.699  11.971 -0.2938 -0.1115  0.4210
18462TIP3    H176801   1.701   6.774  11.914  0.1796  1.3766  2.3673
18462TIP3    H276802   1.753   6.636  11.949  0.6536  0.9621  0.1943
18463TIP3   OH276803   1.005   2.582  15.726  0.1795  0.2089 -0.2204
18463TIP3    H176804   0.910   2.594  15.726  0.2431  0.7215 -0.3459
18463TIP3    H276805   1.021   2.521  15.798  0.0679  2.7158  2.1109
18464TIP3   OH276806   4.576   5.075   6.266 -0.2587  0.2516 -0.1731
18464TIP3    H176807   4.638   5.112   6.203  0.6294  0.0492  0.5652
18464TIP3    H276808   4.578   4.981   6.250 -0.7529  0.2841 -0.4680
18465TIP3   OH276809   1.852   3.673   6.005 -0.0611  0.0038  0.5067
18465TIP3    H176810   1.815   3.598   6.051 -1.9842 -1.2213 -2.7198
18465TIP3    H276811   1.782   3.738   6.005  1.5213  1.9414  3.1159
18466TIP3   OH276812   4.267   1.221   6.017 -0.1269  0.4782  0.5116
18466TIP3    H176813   4.321   1.225   6.095  0.2088  0.4345  0.2813
18466TIP3    H276814   4.261   1.312   5.987 -1.4083  0.7029  1.3676
18467TIP3   OH276815   2.307   4.296   5.190 -0.4252 -0.2197 -0.3137
18467TIP3    H176816   2.230   4.280   5.244 -0.5463  1.5122  0.1016
18467TIP3    H276817   2.276   4.353   5.120  0.3202 -0.0953 -0.5529
18468TIP3   OH276818   5.998   1.361  16.379 -0.2012 -0.0277 -0.3695
18468TIP3    H176819   6.072   1.356  16.439 -0.5364  0.2843  0.0777
18468TIP3    H276820   5.989   1.273  16.344 -0.2042 -0.2868  0.2802
18469TIP3   OH276821   1.926   1.948  12.462 -0.4850  0.0128  0.0315
18469TIP3    H176822   2.013   1.937  12.423 -0.9944  1.0341 -1.5278
18469TIP3    H276823   1.936   2.022  12.521 -0.7868  1.8430 -2.0617
18470TIP3   OH276824   6.723   6.616   3.112 -0.2045  0.0139 -0.6720
18470TIP3    H176825   6.810   6.644   3.084  0.2957 -1.8301 -1.0573
18470TIP3    H276826   6.677   6.594   3.031  0.4496 -3.0719 -0.3318
18471TIP3   OH276827   1.164   1.161   1.070 -0.0487 -0.6558 -0.1604
18471TIP3    H176828   1.209   1.200   1.145 -0.5146  1.0188 -0.7143
18471TIP3    H276829   1.127   1.080   1.104  0.0278 -0.0884  1.3411
18472TIP3   OH276830   4.989   1.914  12.376  0.3094 -0.0911 -0.6030
18472TIP3    H176831   5.076   1.898  12.412 -0.0826 -0.3226  0.2678
18472TIP3    H276832   4.998   1.996  12.327  0.3419  1.5219  1.9110
18473TIP3   OH276833   6.385   2.093  15.628 -0.2712  0.0830 -0.3125
18473TIP3    H176834   6.325   2.123  15.560 -1.4249 -0.5820  0.3815
18473TIP3    H276835   6.395   2.168  15.687  1.0335  0.7879 -1.3729
18474TIP3   OH276836   5.139   2.877   3.227  0.0624 -0.5749  0.1549
18474TIP3    H176837   5.086   2.815   3.179 -0.2301  0.2503 -0.6240
18474TIP3    H276838   5.084   2.955   3.235  1.5002  0.7184 -1.6597
18475TIP3   OH276839   4.601   5.907   2.967  0.2451  0.1980 -0.1985
18475TIP3    H176840   4.581   5.923   2.875  0.6086 -1.6935 -0.6475
18475TIP3    H276841   4.518   5.879   3.005  0.1239  0.8568  0.0392
18476TIP3   OH276842   3.968   6.176  15.996  0.6581 -0.4931 -0.2140
18476TIP3    H176843   3.917   6.224  16.061 -2.3066 -0.7656 -2.1115
18476TIP3    H276844   3.965   6.085  16.026 -2.2550 -0.9289 -1.4025
18477TIP3   OH276845   4.451   3.107  13.401 -0.0453 -0.2580 -0.1826
18477TIP3    H176846   4.397   3.081  13.476  0.5734 -1.4536 -0.1401
18477TIP3    H276847   4.422   3.196  13.381 -0.3708  0.0007  1.3392
18478TIP3   OH276848   1.123   1.927   5.292  0.0407 -0.5170  0.4096
18478TIP3    H176849   1.199   1.887   5.333  0.2898 -0.1296  0.3218
18478TIP3    H276850   1.153   1.953   5.205 -0.1553 -0.2444  0.4215
18479TIP3   OH276851   5.679   3.847   4.166 -0.3754  0.3513  0.1465
18479TIP3    H176852   5.743   3.828   4.097 -0.7110 -0.9653  0.1768
18479TIP3    H276853   5.727   3.832   4.248 -0.8724 -1.2836  0.1693
18480TIP3   OH276854   4.050   6.355  12.160 -0.5161  0.4851 -0.9976
18480TIP3    H176855   4.065   6.336  12.067 -0.0100 -1.3855 -0.5792
18480TIP3    H276856   3.956   6.341  12.172 -0.5380  0.4679 -1.1850
18481TIP3   OH276857   1.024   0.962  13.522 -0.1702  0.5802 -0.0946
18481TIP3    H176858   1.103   0.951  13.575 -1.5841 -0.5686  1.8648
18481TIP3    H276859   1.056   0.953  13.431  1.7651 -1.0921  0.6681
18482TIP3   OH276860   4.125   6.213  17.129 -0.2598  0.0822  0.5197
18482TIP3    H176861   4.123   6.217  17.033  0.5729  1.2808  0.5287
18482TIP3    H276862   4.096   6.124  17.150  2.4977 -1.3274 -0.9860
18483TIP3   OH276863   1.084   3.782  14.616 -0.3100  0.2624  0.3049
18483TIP3    H176864   1.016   3.765  14.552 -2.4369  0.6174  2.3233
18483TIP3    H276865   1.164   3.744  14.578 -1.9213 -1.4940 -1.5107
18484TIP3   OH276866   3.985   1.755   3.249  0.0269  0.1086 -0.3524
18484TIP3    H176867   4.016   1.805   3.324  1.5427  0.9722 -1.4963
18484TIP3    H276868   3.932   1.817   3.198 -1.6118 -0.6724  0.3277
18485TIP3   OH276869   4.273   6.704   3.705 -0.0385  0.1173  0.4378
18485TIP3    H176870   4.342   6.718   3.640 -0.3127 -1.2872 -0.2082
18485TIP3    H276871   4.302   6.752   3.782  0.7173  1.1173 -0.4397
18486TIP3   OH276872   6.530   3.468   2.628  0.5504  0.6581  0.0867
18486TIP3    H176873   6.471   3.527   2.581 -1.7690 -0.4537  1.4238
18486TIP3    H276874   6.526   3.496   2.719  1.7181  0.2182  0.3039
18487TIP3   OH276875   2.049   2.400  15.951  0.4214 -0.5455 -0.1187
18487TIP3    H176876   2.053   2.431  16.041  1.3368 -1.8545  0.3225
18487TIP3    H276877   2.140   2.396  15.923  0.0990  1.4619 -1.7257
18488TIP3   OH276878   2.223   1.422  13.256  0.0076 -0.1355  0.0105
18488TIP3    H176879   2.153   1.374  13.303 -0.7165 -0.6331 -1.5236
18488TIP3    H276880   2.239   1.499  13.310 -1.2368 -0.3763  0.7695
18489TIP3   OH276881   4.459   5.583   4.094 -0.3823 -0.3442  0.1719
18489TIP3    H176882   4.409   5.635   4.032  0.9238  0.7065 -0.0369
18489TIP3    H276883   4.437   5.492   4.072 -1.6437  0.0620 -0.3481
18490TIP3   OH276884   5.093   2.265  15.909 -0.2027  0.9982 -0.2393
18490TIP3    H176885   5.133   2.337  15.861  0.2864  0.8994  0.0067
18490TIP3    H276886   5.076   2.300  15.996  2.0887  0.2212  0.6074
18491TIP3   OH276887   0.635   5.243  13.718  0.2422 -0.3592  0.4123
18491TIP3    H176888   0.691   5.197  13.780  1.0638 -1.9942 -1.4587
18491TIP3    H276889   0.563   5.276  13.772  1.1186 -1.3167  2.2895
18492TIP3   OH276890   6.148   1.418  13.761  0.1727 -0.3743 -0.0324
18492TIP3    H176891   6.145   1.506  13.800  0.5575  0.1148 -1.0647
18492TIP3    H276892   6.129   1.359  13.834  2.0998  0.4154  1.1908
18493TIP3   OH276893   0.466   4.608  12.581 -0.5896  0.0669  0.2513
18493TIP3    H176894   0.533   4.670  12.609 -0.0883 -1.4601  2.8450
18493TIP3    H276895   0.510   4.552  12.517 -0.1521  0.6047  0.0765
18494TIP3   OH276896   4.695   5.735  10.685 -0.3644 -0.1073 -0.4807
18494TIP3    H176897   4.663   5.645  10.689 -1.0275  0.1077 -0.7455
18494TIP3    H276898   4.642   5.776  10.616 -0.4870  0.6424  0.0441
18495TIP3   OH276899   5.715   1.672  17.206 -0.3013  0.4659 -0.2429
18495TIP3    H176900   5.762   1.593  17.179 -0.6456  0.2375 -0.1686
18495TIP3    H276901   5.702   1.721  17.125 -1.0837 -0.0847 -0.4611
18496TIP3   OH276902   1.373   3.198  13.130 -0.4529  0.1280  0.0040
18496TIP3    H176903   1.451   3.210  13.185 -1.6782  0.3773  1.7938
18496TIP3    H276904   1.397   3.128  13.069  1.6739  1.2497 -0.5312
18497TIP3   OH276905   1.296   0.327  10.448 -0.0500  0.2060  0.4371
18497TIP3    H176906   1.263   0.242  10.421 -0.1311  0.7605 -1.3761
18497TIP3    H276907   1.321   0.316  10.539 -1.1973 -1.4069  0.5902
18498TIP3   OH276908   6.019   0.285  13.559 -0.1963  0.1751 -0.5325
18498TIP3    H176909   5.955   0.320  13.497 -0.0552  0.7408 -0.3632
18498TIP3    H276910   6.065   0.362  13.592 -0.2233 -0.1205  0.2215
18499TIP3   OH276911   5.803   5.761   6.332 -0.0880  0.1953 -0.5053
18499TIP3    H176912   5.872   5.766   6.398 -0.4244 -0.4186 -0.0851
18499TIP3    H276913   5.827   5.687   6.277 -1.0050 -0.8033  0.3794
18500TIP3   OH276914   4.746   4.457  16.240  0.7921 -0.5346 -0.3653
18500TIP3    H176915   4.758   4.420  16.327  0.4727  2.2760  0.9807
18500TIP3    H276916   4.794   4.540  16.243 -0.0188  0.0716 -2.5643
18501TIP3   OH276917   5.001   5.226  15.308 -0.0081  0.3415  0.3373
18501TIP3    H176918   5.070   5.206  15.371  0.5007  1.3745  0.1348
18501TIP3    H276919   5.036   5.195  15.224  0.3073  1.0313  0.2040
18502TIP3   OH276920   0.055   2.595  14.226  0.1811 -0.0152  0.2421
18502TIP3    H176921   0.065   2.503  14.250  0.1694  0.2487  1.3154
18502TIP3    H276922   0.064   2.596  14.131  0.7942 -1.0495  0.2691
18503TIP3   OH276923   5.275   2.402  11.948 -0.6793 -0.2052  0.1020
18503TIP3    H176924   5.288   2.331  11.885  2.0953  0.9425 -0.7573
18503TIP3    H276925   5.271   2.358  12.033  0.5791 -1.4436 -0.4413
18504TIP3   OH276926   3.842   4.245  16.750 -0.1987 -0.7726  0.0902
18504TIP3    H176927   3.935   4.232  16.731  0.0001 -0.1574  0.6024
18504TIP3    H276928   3.828   4.199  16.833 -0.2294 -0.4462  0.2692
18505TIP3   OH276929   1.380   3.352  16.920 -0.1108  0.2827 -0.2172
18505TIP3    H176930   1.350   3.377  16.832  0.7752  0.0683 -0.5947
18505TIP3    H276931   1.362   3.258  16.925 -0.7055  0.4118  0.0571
18506TIP3   OH276932   1.269   5.907  13.680  0.0652  0.2902 -0.3061
18506TIP3    H176933   1.176   5.905  13.704  0.3151  1.7316  0.9513
18506TIP3    H276934   1.295   5.999  13.693  1.8685 -0.2469  0.2212
18507TIP3   OH276935   0.109   2.436   0.055 -0.5066  0.2752 -0.2332
18507TIP3    H176936   0.094   2.342   0.058  0.1778  0.1422 -0.8006
18507TIP3    H276937   0.149   2.456   0.140  0.1399 -0.0995 -0.4388
18508TIP3   OH276938   4.977   0.059  16.952 -0.1839 -0.1555  0.4678
18508TIP3    H176939   4.882   0.063  16.949 -0.1384  2.1717  0.1228
18508TIP3    H276940   5.001   0.128  17.014  1.3024  0.0223 -0.2702
18509TIP3   OH276941   5.274   1.479  13.264 -0.1157 -0.3676 -0.1156
18509TIP3    H176942   5.317   1.405  13.222  1.5646  0.4724  0.0518
18509TIP3    H276943   5.227   1.523  13.193 -0.2923 -0.9985 -0.3984
18510TIP3   OH276944   0.203   4.441   0.436  0.1574 -0.0018 -0.8415
18510TIP3    H176945   0.204   4.518   0.493  1.3103 -1.5604  1.3961
18510TIP3    H276946   0.254   4.467   0.359  0.3114  1.5278 -0.2553
18511TIP3   OH276947   3.345   3.217  14.591  0.1053  0.3090  0.0019
18511TIP3    H176948   3.303   3.280  14.649 -0.1685 -0.1210  0.2713
18511TIP3    H276949   3.354   3.138  14.643 -2.4054 -0.9240 -1.2487
18512TIP3   OH276950   4.115   6.540   4.220 -0.3115 -0.1378  0.2825
18512TIP3    H176951   4.156   6.470   4.168 -0.6736 -0.8821  0.9684
18512TIP3    H276952   4.043   6.570   4.165 -0.2364 -0.3970  0.0342
18513TIP3   OH276953   6.121   5.652  11.276  0.2415  0.0198  0.2398
18513TIP3    H176954   6.094   5.640  11.184  1.1534  0.4435 -0.0954
18513TIP3    H276955   6.180   5.578  11.293 -1.6039 -1.3106  1.1924
18514TIP3   OH276956   6.326   5.746   1.749 -0.2857 -0.2672 -0.2294
18514TIP3    H176957   6.390   5.712   1.686  0.1998  0.1419  0.0380
18514TIP3    H276958   6.243   5.711   1.719  0.0921 -1.0003 -0.4514
18515TIP3   OH276959   4.900   2.686  12.387  0.1533  0.1326 -0.0557
18515TIP3    H176960   4.957   2.616  12.419 -0.6214 -0.2112  0.6042
18515TIP3    H276961   4.960   2.759  12.369  0.6854  0.1961  1.7456
18516TIP3   OH276962   2.012   1.036   1.299 -0.5962 -0.2904 -0.0524
18516TIP3    H176963   2.003   1.017   1.206  0.0854 -1.2985  0.0691
18516TIP3    H276964   2.095   0.995   1.324  0.4909  2.0687  0.4804
18517TIP3   OH276965   1.979   6.722   2.356 -0.5728  0.0049  1.0388
18517TIP3    H176966   1.975   6.630   2.384  0.6839 -0.0445  1.1123
18517TIP3    H276967   2.045   6.761   2.413 -0.6328  0.8048  0.5705
18518TIP3   OH276968   6.742   3.309   0.489 -0.2897  0.0662 -0.3868
18518TIP3    H176969   6.818   3.356   0.454  0.5941  0.0135  1.3700
18518TIP3    H276970   6.760   3.301   0.583 -1.6301 -1.5373 -0.2299
18519TIP3   OH276971   6.231   0.481  14.954 -0.2419 -0.6206 -0.6184
18519TIP3    H176972   6.209   0.495  15.046 -0.9169  2.7269 -1.1546
18519TIP3    H276973   6.183   0.402  14.930 -1.6479 -0.4742  1.4240
18520TIP3   OH276974   6.548   0.257   1.017 -0.0099 -0.4119  0.6382
18520TIP3    H176975   6.518   0.185   1.073 -3.1778 -0.7161 -1.1598
18520TIP3    H276976   6.468   0.288   0.974  1.5037  3.0449 -0.0313
18521TIP3   OH276977   4.632   5.145  11.294 -0.6556 -0.1279  0.0648
18521TIP3    H176978   4.546   5.107  11.276 -1.0251 -0.0215  1.5343
18521TIP3    H276979   4.681   5.132  11.212 -1.5504 -1.5727 -0.2823
18522TIP3   OH276980   0.218   1.504   1.148  0.2241 -0.4942 -0.7948
18522TIP3    H176981   0.298   1.479   1.194  1.0358  0.2892 -1.7386
18522TIP3    H276982   0.247   1.565   1.080 -1.3600  1.2115 -0.0630
18523TIP3   OH276983   4.623   0.858   3.824  0.2687 -0.0380 -0.6098
18523TIP3    H176984   4.642   0.799   3.897  0.1570  0.2057 -0.3820
18523TIP3    H276985   4.606   0.800   3.750  1.2123 -0.2746 -0.6473
18524TIP3   OH276986   1.041   1.647  13.186 -0.0039  0.3108  0.3080
18524TIP3    H176987   0.948   1.643  13.205  0.2400  1.7576  2.1244
18524TIP3    H276988   1.084   1.631  13.270  1.2676  3.0792  0.2922
18525TIP3   OH276989   5.021   6.628  12.977  0.4487 -0.7689 -0.2444
18525TIP3    H176990   4.972   6.556  13.017  0.6994 -0.6808  0.2325
18525TIP3    H276991   5.031   6.691  13.048  0.8467 -0.5786 -0.4714
18526TIP3   OH276992   1.731   5.826   3.502 -0.5272  0.2667  0.3764
18526TIP3    H176993   1.824   5.808   3.493 -0.4603  0.8780 -0.2911
18526TIP3    H276994   1.692   5.742   3.527  0.1397 -0.0984  0.2054
18527TIP3   OH276995   1.228   1.771  12.640  0.4005  0.1359  0.2004
18527TIP3    H176996   1.135   1.751  12.656  0.2501 -0.2715 -1.0822
18527TIP3    H276997   1.228   1.860  12.605  0.1416 -0.8695 -2.6184
18528TIP3   OH276998   2.463   0.888  17.297 -0.0023  0.5894  0.3396
18528TIP3    H176999   2.487   0.937  17.219 -0.4906  0.0794 -0.1469
18528TIP3    H277000   2.484   0.946  17.370  2.1220  0.4115 -0.0556
18529TIP3   OH277001   1.741   3.010  15.351  0.6422  0.1725 -0.1077
18529TIP3    H177002   1.679   2.959  15.403  1.6990 -1.2382 -0.1541
18529TIP3    H277003   1.825   2.996  15.394  1.3407 -0.0448 -1.4754
18530TIP3   OH277004   6.135   5.611   4.166  0.5418 -0.4325 -0.6292
18530TIP3    H177005   6.179   5.578   4.088  0.6431  0.6425 -1.0475
18530TIP3    H277006   6.054   5.561   4.171  0.4973 -0.4595 -1.4737
18531TIP3   OH277007   2.660   4.900  14.978  0.1262 -0.0113 -0.1102
18531TIP3    H177008   2.726   4.967  14.962 -0.7863  1.2577  1.2893
18531TIP3    H277009   2.603   4.936  15.045 -1.8419 -1.1843 -1.0377
18532TIP3   OH277010   3.379   2.821   3.110 -0.0515 -0.2856 -0.1311
18532TIP3    H177011   3.381   2.726   3.095  0.6949 -0.0909 -1.4559
18532TIP3    H277012   3.288   2.845   3.098  0.0392 -0.5978 -1.6411
18533TIP3   OH277013   5.780   6.614   3.313  0.0257  0.3441  0.1954
18533TIP3    H177014   5.827   6.591   3.233 -0.8895 -0.2025 -0.2057
18533TIP3    H277015   5.831   6.573   3.383  0.2989  0.0031 -0.1993
18534TIP3   OH277016   4.380   1.487   1.104 -0.4712 -0.0195  0.0977
18534TIP3    H177017   4.427   1.404   1.109  0.0599  0.3520  1.8546
18534TIP3    H277018   4.293   1.463   1.072 -0.1752 -1.1766  0.0991
18535TIP3   OH277019   3.669   2.746  11.983 -0.2931  0.3095 -0.0018
18535TIP3    H177020   3.595   2.805  11.968  0.8914  1.6169 -0.8992
18535TIP3    H277021   3.672   2.735  12.078 -0.6160  1.6243  0.1771
18536TIP3   OH277022   6.750   4.356  10.568  0.2368 -0.7304 -0.2805
18536TIP3    H177023   6.846   4.364  10.564  0.1820  0.7589  0.7814
18536TIP3    H277024   6.728   4.378  10.658 -1.0135 -2.5398 -0.0973
18537TIP3   OH277025   1.213   6.652  15.373 -0.1610  0.5313 -0.1225
18537TIP3    H177026   1.135   6.601  15.396 -1.5729  2.0707 -1.2830
18537TIP3    H277027   1.241   6.692  15.455 -1.0737  0.5995  0.1615
18538TIP3   OH277028   3.728   6.371   2.430 -0.1784  0.5380  0.0650
18538TIP3    H177029   3.803   6.340   2.480 -1.1149 -3.1907 -0.4920
18538TIP3    H277030   3.660   6.387   2.496  0.5825  2.3898  0.4400
18539TIP3   OH277031   2.615   3.828  15.575  0.1453  0.2989 -0.1893
18539TIP3    H177032   2.635   3.738  15.549  1.5670  0.1312  1.2892
18539TIP3    H277033   2.696   3.859  15.616 -0.3188  2.2646 -0.6597
18540TIP3   OH277034   4.562   2.928   6.047 -0.5100 -0.2693 -0.1611
18540TIP3    H177035   4.630   2.991   6.024 -0.1066 -0.6256  0.0324
18540TIP3    H277036   4.521   2.904   5.964  0.1400 -0.6583 -0.3756
18541TIP3   OH277037   0.654   3.410  15.162 -0.0913  0.4811 -0.3726
18541TIP3    H177038   0.744   3.443  15.156  0.0450  0.1933  0.0232
18541TIP3    H277039   0.629   3.391  15.072  0.2563  0.5367 -0.4834
18542TIP3   OH277040   3.231   6.395   3.367 -0.0878  0.5970  0.2152
18542TIP3    H177041   3.136   6.406   3.373 -0.3002 -1.5470  2.7860
18542TIP3    H277042   3.265   6.450   3.438  0.5250  0.7956 -0.2281
18543TIP3   OH277043   5.187   0.591   1.632 -0.3614  0.2739  0.0039
18543TIP3    H177044   5.241   0.518   1.601 -1.7709 -1.1317  0.7011
18543TIP3    H277045   5.227   0.668   1.593  0.4389 -0.9808 -1.8044
18544TIP3   OH277046   1.469   1.073  14.459  0.4107  0.3993 -0.5258
18544TIP3    H177047   1.389   1.022  14.470  0.4816  0.3141 -0.4122
18544TIP3    H277048   1.489   1.106  14.546 -0.2078  1.4752 -0.7646
18545TIP3   OH277049   1.880   1.053  15.402  0.8103  0.3528  0.0689
18545TIP3    H177050   1.786   1.045  15.387  1.0292  2.0887 -3.1522
18545TIP3    H277051   1.887   1.099  15.486 -1.0626 -1.3354  1.2629
18546TIP3   OH277052   5.693   6.137  12.233 -0.2256  0.4850  0.0958
18546TIP3    H177053   5.749   6.143  12.156 -0.0828  1.8177  0.2716
18546TIP3    H277054   5.719   6.212  12.287 -1.5449  0.6044  0.5998
18547TIP3   OH277055   1.978   0.985  14.015 -0.1616  0.6031 -0.1737
18547TIP3    H177056   2.026   1.062  13.985  0.3880  0.2250 -0.2842
18547TIP3    H277057   2.032   0.949  14.086 -0.2679  0.1571 -0.3157
18548TIP3   OH277058   2.884   1.624  11.852  0.7823 -0.5937  0.6385
18548TIP3    H177059   2.814   1.579  11.805 -1.0605 -0.0382  2.7013
18548TIP3    H277060   2.957   1.562  11.850 -0.0033 -1.5555 -0.8412
18549TIP3   OH277061   5.092   2.524  13.366 -0.3977 -0.0043 -0.1880
18549TIP3    H177062   5.075   2.508  13.273 -1.0826 -0.1401 -0.0397
18549TIP3    H277063   5.185   2.500  13.376 -0.9459 -2.5086 -0.3168
18550TIP3   OH277064   1.073   2.818  11.967  0.5655 -0.3366 -0.3190
18550TIP3    H177065   1.092   2.893  12.023  1.8050 -0.7411 -0.1675
18550TIP3    H277066   1.153   2.806  11.915 -0.0375 -0.8529 -1.1535
18551TIP3   OH277067   5.973   5.252   4.831 -0.3874 -0.0483  0.5303
18551TIP3    H177068   5.977   5.311   4.907  0.3844  2.5726 -1.4196
18551TIP3    H277069   6.040   5.186   4.849 -0.0793  0.6284  2.0371
18552TIP3   OH277070   3.221   3.202  16.921 -0.7910 -0.1594  0.3556
18552TIP3    H177071   3.167   3.144  16.868 -3.0385  1.3636  0.8347
18552TIP3    H277072   3.200   3.290  16.889  2.5202  0.5195 -0.3798
18553TIP3   OH277073   3.992   1.144   0.609 -0.4811  0.2203 -0.1917
18553TIP3    H177074   3.949   1.198   0.675 -0.6963 -0.8738  0.5822
18553TIP3    H277075   3.954   1.174   0.526 -1.4272  0.4839  0.3259
18554TIP3   OH277076   5.197   3.155   2.450  0.0021  0.5852 -0.0735
18554TIP3    H177077   5.223   3.237   2.407 -0.7090  0.9356  0.1339
18554TIP3    H277078   5.153   3.184   2.530  1.7751 -0.0568  1.1905
18555TIP3   OH277079   3.558   4.649  14.062  0.3463  0.2697  0.4526
18555TIP3    H177080   3.652   4.629  14.058  0.3240  0.0268  0.9525
18555TIP3    H277081   3.554   4.742  14.084  0.4568  0.7303 -1.3614
18556TIP3   OH277082   6.137   4.345   2.005 -0.4161 -0.3088  0.4097
18556TIP3    H177083   6.077   4.284   1.963 -0.3657 -0.0529 -0.0452
18556TIP3    H277084   6.081   4.399   2.061 -0.4998 -0.5828  0.5899
18557TIP3   OH277085   5.801   1.414  16.901  0.3603  0.1304  0.8153
18557TIP3    H177086   5.775   1.418  16.809 -0.0338 -1.4179  0.8432
18557TIP3    H277087   5.897   1.412  16.899  0.3378 -2.2334  0.2918
18558TIP3   OH277088   5.733   4.327  13.413  0.3364  0.0679 -0.4359
18558TIP3    H177089   5.638   4.340  13.412  0.2726 -0.3151  0.4457
18558TIP3    H277090   5.748   4.257  13.476  1.3510  1.3494  0.8075
18559TIP3   OH277091   6.731   0.294  15.016  0.1310 -0.9688 -0.6071
18559TIP3    H177092   6.687   0.212  15.039 -0.6933 -0.3616  0.0476
18559TIP3    H277093   6.780   0.317  15.095 -1.6912  0.4684  0.1854
18560TIP3   OH277094   2.592   4.461  15.944 -0.2849  0.6877 -0.0039
18560TIP3    H177095   2.579   4.371  15.915  1.4568  0.3638  0.1112
18560TIP3    H277096   2.542   4.514  15.882  1.4628 -0.1324 -2.2328
18561TIP3   OH277097   5.925   2.012   5.818  0.1216 -0.8190 -0.4280
18561TIP3    H177098   5.948   2.071   5.747 -1.1602 -0.4435 -0.5630
18561TIP3    H277099   5.940   1.924   5.783 -0.8134 -0.6470 -1.2832
18562TIP3   OH277100   0.831   5.476  14.873 -0.1992  0.5865 -0.0869
18562TIP3    H177101   0.902   5.517  14.923 -0.9265  0.2931  1.2600
18562TIP3    H277102   0.758   5.538  14.882 -0.3778  0.4636 -0.6909
18563TIP3   OH277103   0.163   4.291   1.018  0.2589 -0.0854 -0.5729
18563TIP3    H177104   0.198   4.202   1.022 -1.1329 -0.6231  0.2272
18563TIP3    H277105   0.110   4.292   0.938  1.4464  0.5190 -1.4019
18564TIP3   OH277106   6.306   3.389   5.151  0.8950 -0.2682  0.1047
18564TIP3    H177107   6.398   3.406   5.133  0.8100 -1.3380 -1.5939
18564TIP3    H277108   6.307   3.332   5.228  1.6721 -0.3935  0.0135
18565TIP3   OH277109   3.915   1.425   3.700 -0.0320  0.0520 -0.4391
18565TIP3    H177110   3.886   1.487   3.633  0.2902  0.5485 -0.1241
18565TIP3    H277111   3.893   1.466   3.783  2.2484  0.8551 -0.1471
18566TIP3   OH277112   2.270   2.390   1.681  0.2365  0.2911 -0.1183
18566TIP3    H177113   2.288   2.422   1.593  0.6223  1.1342  0.2537
18566TIP3    H277114   2.179   2.415   1.697  0.1985  0.2307 -0.2399
18567TIP3   OH277115   1.276   6.625   0.771  0.0778  0.1044 -0.0042
18567TIP3    H177116   1.287   6.570   0.694 -2.2293  0.1530 -0.4312
18567TIP3    H277117   1.346   6.690   0.764  1.1201 -1.0729 -0.9753
18568TIP3   OH277118   0.977   1.013  14.771 -0.5900 -0.1150  0.1402
18568TIP3    H177119   1.004   1.062  14.693  0.5520 -0.4680  0.2967
18568TIP3    H277120   0.893   0.973  14.747  0.4896 -1.5316 -1.5023
18569TIP3   OH277121   4.217   3.953  14.124 -0.2987  0.4822  0.1298
18569TIP3    H177122   4.192   3.861  14.113 -2.3306  0.9137  0.6213
18569TIP3    H277123   4.168   4.000  14.057  1.7641  1.1034 -0.9999
18570TIP3   OH277124   6.182   0.779  14.507  0.0577 -0.1359  0.0238
18570TIP3    H177125   6.103   0.781  14.561 -0.5904 -3.0739 -0.6241
18570TIP3    H277126   6.242   0.723  14.555  1.1331  0.7190 -0.2948
18571TIP3   OH277127   0.462   4.986   2.071  0.0066  0.9256 -0.2444
18571TIP3    H177128   0.402   4.917   2.097  0.2268  0.2773 -1.3796
18571TIP3    H277129   0.549   4.950   2.088  0.1187  0.9782 -0.6822
18572TIP3   OH277130   5.657   5.567   3.850 -0.0655  0.2323 -0.8011
18572TIP3    H177131   5.739   5.597   3.890  1.0878 -2.3896 -1.0058
18572TIP3    H277132   5.596   5.560   3.924 -0.0225  1.8226 -0.5833
18573TIP3   OH277133   4.270   5.224   2.625  0.5004 -0.4137  0.1147
18573TIP3    H177134   4.248   5.137   2.660 -2.7110  0.6131  0.9747
18573TIP3    H277135   4.289   5.209   2.533 -0.6702 -1.9720  0.0891
18574TIP3   OH277136   4.003   5.446   0.905  0.2931  0.2313  0.1644
18574TIP3    H177137   3.937   5.516   0.897  1.6377  1.4130 -1.0824
18574TIP3    H277138   4.074   5.486   0.955  1.1419 -0.2112 -0.6810
18575TIP3   OH277139   6.684   6.117   1.352  0.0883 -0.2343  0.2598
18575TIP3    H177140   6.697   6.181   1.282  1.3205  1.3236  1.8388
18575TIP3    H277141   6.759   6.130   1.411 -0.9818 -1.3978  1.9599
18576TIP3   OH277142   0.196   2.138  16.962  0.4102  0.1915  0.1562
18576TIP3    H177143   0.126   2.192  17.000 -0.4046 -1.3047  0.8700
18576TIP3    H277144   0.224   2.185  16.884 -3.7012 -0.7139 -2.1019
18577TIP3   OH277145   3.734   2.487   1.829 -0.8202  0.0057 -0.1159
18577TIP3    H177146   3.813   2.539   1.816 -0.0303 -0.9963  0.5956
18577TIP3    H277147   3.698   2.518   1.911 -1.0030  0.2504 -0.2875
18578TIP3   OH277148   1.219   1.031   5.138  0.3716  0.1431  0.1489
18578TIP3    H177149   1.243   1.109   5.187 -1.4794  0.4897  0.5793
18578TIP3    H277150   1.167   0.979   5.199  1.1494 -1.2096 -0.2907
18579TIP3   OH277151   5.009   6.163   6.910  0.2687  0.4861  0.2284
18579TIP3    H177152   4.976   6.188   6.823 -0.0408 -0.3341  0.0950
18579TIP3    H277153   4.932   6.131   6.957  0.9424 -2.6476 -0.5170
18580TIP3   OH277154   2.360   0.977   2.797 -0.0355 -0.7627  0.5683
18580TIP3    H177155   2.399   1.058   2.762  2.6102 -2.0848  0.1922
18580TIP3    H277156   2.393   0.972   2.886 -1.4060 -0.7324  1.1019
18581TIP3   OH277157   6.701   2.492   0.949 -0.5273 -0.5772  0.0347
18581TIP3    H177158   6.794   2.507   0.935 -0.3351 -0.3846  1.3834
18581TIP3    H277159   6.697   2.411   1.001 -1.0422 -0.1232  0.7342
18582TIP3   OH277160   2.462   1.651  15.490  0.0877 -0.3786 -0.0011
18582TIP3    H177161   2.520   1.716  15.529  0.0776  0.4006 -1.2056
18582TIP3    H277162   2.495   1.567  15.521  0.2649  0.1728  1.3813
18583TIP3   OH277163   3.045   4.203  13.216 -0.3805  0.7291  0.3704
18583TIP3    H177164   2.955   4.179  13.237 -0.4156 -0.2625 -0.8341
18583TIP3    H277165   3.099   4.144  13.268 -0.4475  0.2114 -0.1390
18584TIP3   OH277166   6.578   4.288   5.222 -0.3812 -0.6286 -0.0328
18584TIP3    H177167   6.507   4.224   5.211 -0.3523 -0.3864 -1.8145
18584TIP3    H277168   6.543   4.369   5.186  0.9313 -0.6065 -1.3461
18585TIP3   OH277169   0.695   1.183   4.107  0.4880  0.6487  0.4159
18585TIP3    H177170   0.702   1.137   4.190 -1.4284 -0.2256  0.1625
18585TIP3    H277171   0.664   1.116   4.046  0.0313  1.7076 -0.5530
18586TIP3   OH277172   5.647   1.419   4.890 -0.2377 -0.0045  0.6714
18586TIP3    H177173   5.728   1.468   4.882 -0.0713 -0.2133  1.0096
18586TIP3    H277174   5.675   1.332   4.921 -0.4462 -0.5809 -0.6798
18587TIP3   OH277175   6.484   3.161   2.810 -0.1469  0.1233  0.4450
18587TIP3    H177176   6.484   3.239   2.866  1.4424 -1.6601  3.1812
18587TIP3    H277177   6.569   3.163   2.766 -0.3815  0.2686 -0.0029
18588TIP3   OH277178   0.485   4.822  14.566  0.2443  0.8668 -0.0559
18588TIP3    H177179   0.425   4.776  14.507  1.2970  0.2732 -0.7136
18588TIP3    H277180   0.517   4.896  14.515  0.4647  0.8753  0.0927
18589TIP3   OH277181   2.077   6.092   3.749 -0.2535 -0.7960 -0.2130
18589TIP3    H177182   2.001   6.102   3.691 -0.1140 -0.7129 -0.3854
18589TIP3    H277183   2.142   6.153   3.714  0.8229 -2.6279 -1.6257
18590TIP3   OH277184   2.303   2.052   5.737 -0.2159 -0.6294 -0.6569
18590TIP3    H177185   2.314   1.988   5.807  2.0602 -0.7120 -1.0069
18590TIP3    H277186   2.389   2.055   5.694 -1.2932  0.0504 -2.8931
18591TIP3   OH277187   0.063   0.866  13.424 -0.3236  0.6166  0.0289
18591TIP3    H177188   0.127   0.810  13.379 -1.0297 -1.4578  1.4531
18591TIP3    H277189   0.111   0.900  13.500 -0.2173  1.0288 -0.2228
18592TIP3   OH277190   2.598   1.818   5.749  0.7387  0.4617 -0.1141
18592TIP3    H177191   2.580   1.905   5.715 -1.4462  0.4814  0.9210
18592TIP3    H277192   2.600   1.761   5.672 -0.8240  0.9935 -0.5713
18593TIP3   OH277193   6.528   0.337   4.745 -0.1957 -0.6591  0.3337
18593TIP3    H177194   6.447   0.368   4.704 -0.3611 -0.9369  0.4435
18593TIP3    H277195   6.593   0.339   4.675 -0.3060 -0.4678  0.2363
18594TIP3   OH277196   5.262   0.685  14.239 -0.7746 -0.7270 -0.0768
18594TIP3    H177197   5.257   0.598  14.278  0.1112 -1.1301 -0.8427
18594TIP3    H277198   5.303   0.672  14.154  1.3715  0.6812  0.6616
18595TIP3   OH277199   6.612   5.764  11.749 -0.0869 -0.4453 -0.6824
18595TIP3    H177200   6.558   5.718  11.684 -0.3673 -1.2214  0.0811
18595TIP3    H277201   6.634   5.697  11.814  0.6534  0.1884 -0.2614
18596TIP3   OH277202   4.612   4.223   5.342  0.2234 -0.5696 -0.0248
18596TIP3    H177203   4.653   4.244   5.258  0.3673 -0.2763  0.1175
18596TIP3    H277204   4.663   4.272   5.407  0.3883 -1.1471  0.2832
18597TIP3   OH277205   0.138   5.225   2.004 -0.3935 -0.5946  0.5488
18597TIP3    H177206   0.103   5.297   2.056  0.2889 -0.2434  0.5415
18597TIP3    H277207   0.182   5.169   2.067 -0.8467 -0.9644  0.5419
18598TIP3   OH277208   1.779   0.843  14.655  0.0855 -0.1278  0.5315
18598TIP3    H177209   1.863   0.806  14.628  1.4580  2.6194  0.6288
18598TIP3    H277210   1.775   0.928  14.611 -1.0296  1.3175  3.1439
18599TIP3   OH277211   4.370   1.090  11.937 -0.2706 -0.0710  0.2897
18599TIP3    H177212   4.286   1.137  11.934  0.4162  1.1727  0.1102
18599TIP3    H277213   4.372   1.038  11.856 -0.9152 -0.2193  0.3631
18600TIP3   OH277214   0.565   4.360   3.012 -0.6739 -0.3078  0.2514
18600TIP3    H177215   0.569   4.326   2.923  2.1450 -2.2223  0.9558
18600TIP3    H277216   0.636   4.425   3.016 -1.2070  0.2484  0.9170
18601TIP3   OH277217   6.501   0.736  16.967 -0.1935  0.0812 -0.3070
18601TIP3    H177218   6.512   0.784  16.885  0.0501  1.0429  0.2680
18601TIP3    H277219   6.407   0.743  16.986 -0.2570 -0.1778 -0.5256
18602TIP3   OH277220   4.621   4.361   0.554 -0.0893 -0.5613 -0.4394
18602TIP3    H177221   4.526   4.371   0.565 -0.3136 -2.9286  0.5682
18602TIP3    H277222   4.646   4.300   0.624  1.6438 -2.2904 -2.4233
18603TIP3   OH277223   5.211   0.012  16.825  0.4132 -0.2611  0.3809
18603TIP3    H177224   5.183  -0.069  16.781 -1.0808  0.1549  0.5044
18603TIP3    H277225   5.129   0.053  16.853  1.2352  0.5487  1.6682
18604TIP3   OH277226   0.202   1.539   2.828  0.6161 -0.2717 -0.0661
18604TIP3    H177227   0.168   1.595   2.897  0.6729  0.2101 -0.4216
18604TIP3    H277228   0.199   1.451   2.864  0.6793 -0.0182  0.5579
18605TIP3   OH277229   4.351   2.083   5.683 -0.2950  0.1062 -0.7159
18605TIP3    H177230   4.307   2.125   5.609  0.2598  3.0568  0.5004
18605TIP3    H277231   4.440   2.067   5.652 -0.4251  0.0807 -1.0878
18606TIP3   OH277232   0.438   3.444   6.231 -0.1118 -0.8315 -0.5954
18606TIP3    H177233   0.423   3.501   6.307 -0.5202 -2.2745  0.4292
18606TIP3    H277234   0.526   3.409   6.245 -0.2189 -1.1632 -0.7544
18607TIP3   OH277235   0.333   2.950   3.668 -0.3661 -0.0243 -0.4348
18607TIP3    H177236   0.259   2.920   3.721  0.3744  1.5297  1.5930
18607TIP3    H277237   0.302   2.943   3.577 -2.1801 -1.4615  0.2333
18608TIP3   OH277238   5.681   3.736   4.417 -0.1824  0.4631 -0.6382
18608TIP3    H177239   5.627   3.769   4.489  0.3419  0.9659 -0.4666
18608TIP3    H277240   5.770   3.730   4.454 -0.1780 -0.7465 -0.7868
18609TIP3   OH277241   1.634   4.769   4.925 -0.1982 -0.3685  0.1781
18609TIP3    H177242   1.657   4.676   4.923  0.3909 -0.2504  0.9273
18609TIP3    H277243   1.586   4.784   4.844 -0.5992 -1.4044  0.2142
18610TIP3   OH277244   5.971   5.171   3.534 -0.3618  0.2597  0.6559
18610TIP3    H177245   5.994   5.079   3.521 -2.2947 -0.3226  0.9986
18610TIP3    H277246   5.962   5.180   3.628  0.5808  1.0239  0.6829
18611TIP3   OH277247   4.587   1.389  11.559  0.0143 -0.3612 -0.0738
18611TIP3    H177248   4.628   1.318  11.609 -2.0668 -2.4332 -1.0699
18611TIP3    H277249   4.630   1.386  11.474  1.3516  1.0287  0.5135
18612TIP3   OH277250   5.653   4.499  12.904  0.5691  0.1381 -0.4174
18612TIP3    H177251   5.666   4.414  12.862 -0.5754 -0.3063  0.0943
18612TIP3    H277252   5.696   4.491  12.989  0.5657  0.1058 -0.4183
18613TIP3   OH277253   3.214   6.510   1.742  0.5247 -0.3872 -0.2935
18613TIP3    H177254   3.245   6.586   1.693 -0.1130  0.2735  0.3058
18613TIP3    H277255   3.207   6.441   1.676  0.2887  0.3087 -1.0155
18614TIP3   OH277256   2.631   4.480   1.752 -0.1124 -0.5353 -0.1144
18614TIP3    H177257   2.698   4.466   1.685 -0.5410 -0.0245 -0.6701
18614TIP3    H277258   2.551   4.443   1.714 -0.1972 -0.9321  0.4445
18615TIP3   OH277259   6.551   4.968   4.310 -0.4999  0.4720  0.2505
18615TIP3    H177260   6.544   4.945   4.217 -2.2931 -0.2775  0.5435
18615TIP3    H277261   6.520   4.891   4.356 -0.4335  1.1537  1.4627
18616TIP3   OH277262   2.901   1.855  15.936  0.2192  0.3199  0.2583
18616TIP3    H177263   2.810   1.827  15.929 -0.0417  1.1574  0.1435
18616TIP3    H277264   2.949   1.795  15.878 -0.4867  0.8252 -0.8841
18617TIP3   OH277265   0.904   2.224  11.724  0.0898 -0.3333 -0.2236
18617TIP3    H177266   0.909   2.268  11.639 -0.4011 -0.6548 -0.4299
18617TIP3    H277267   0.963   2.273  11.781  0.8618 -0.4563 -0.9043
18618TIP3   OH277268   5.847   3.964  16.293  0.5540 -0.2906  0.2213
18618TIP3    H177269   5.898   3.887  16.318  2.1904  1.1522  1.6302
18618TIP3    H277270   5.903   4.013  16.233  0.3066  0.6585  0.7295
18619TIP3   OH277271   5.644   2.732  15.142  0.3579  0.4357 -0.3719
18619TIP3    H177272   5.584   2.690  15.080 -0.1759  0.1291  0.3364
18619TIP3    H277273   5.674   2.811  15.097 -0.9636  0.8618 -0.5678
18620TIP3   OH277274   0.652   3.916   4.136 -1.1394  0.1868  0.2820
18620TIP3    H177275   0.711   3.863   4.189  0.7186  0.1955 -1.6701
18620TIP3    H277276   0.588   3.950   4.199 -0.2746 -1.4437  2.1462
18621TIP3   OH277277   3.865   6.723   0.595 -0.4709  0.8004 -0.1863
18621TIP3    H177278   3.874   6.663   0.668 -1.5374  1.7624  0.7820
18621TIP3    H277279   3.948   6.772   0.594 -0.5194  0.9078  0.5032
18622TIP3   OH277280   1.617   5.180  14.644  0.4631 -0.4773  0.2623
18622TIP3    H177281   1.584   5.108  14.590 -0.1763  0.2062 -0.2614
18622TIP3    H277282   1.710   5.160  14.655  0.1701 -1.7354  0.6847
18623TIP3   OH277283   3.898   2.006   3.119  0.4964 -0.0331  0.4175
18623TIP3    H177284   3.914   2.059   3.041  0.3277 -0.8276 -0.1656
18623TIP3    H277285   3.951   2.047   3.187  2.6371 -0.8097 -0.7056
18624TIP3   OH277286   1.682   4.480   4.837  0.0471  0.3922  0.3447
18624TIP3    H177287   1.645   4.435   4.913  0.3550 -0.8685 -0.2271
18624TIP3    H277288   1.769   4.441   4.827 -0.4287 -0.3022 -1.3454
18625TIP3   OH277289   6.137   4.379   3.765 -0.0433  0.0005  0.3807
18625TIP3    H177290   6.169   4.359   3.677  0.0184 -0.3795  0.4881
18625TIP3    H277291   6.041   4.374   3.757 -0.0271 -0.5452  0.4482
18626TIP3   OH277292   3.675   1.583   0.491 -0.2477 -0.3576 -0.2719
18626TIP3    H177293   3.621   1.525   0.544  0.1403 -0.7302 -0.2826
18626TIP3    H277294   3.754   1.597   0.543 -0.9410  1.3395  0.3879
18627TIP3   OH277295   0.569   1.321   0.679  0.0525 -0.0888 -0.2686
18627TIP3    H177296   0.614   1.403   0.699 -0.7025  0.2735 -0.0026
18627TIP3    H277297   0.544   1.286   0.764  0.9776 -0.9622 -0.3398
18628TIP3   OH277298   6.678   3.673  16.324  0.0936  0.1137 -0.2769
18628TIP3    H177299   6.628   3.726  16.387  0.4451  0.6558 -0.4470
18628TIP3    H277300   6.769   3.691  16.345  0.2182  0.4889 -1.0875
18629TIP3   OH277301   2.983   6.688   3.130  0.2513 -0.4534 -0.3132
18629TIP3    H177302   3.040   6.690   3.053 -1.3573  0.8213 -1.5313
18629TIP3    H277303   3.011   6.762   3.183  2.3048 -2.1472  1.1273
18630TIP3   OH277304   3.711   1.180  12.305 -0.1352  0.4928  1.0113
18630TIP3    H177305   3.683   1.248  12.244 -1.2496  0.8325  1.8575
18630TIP3    H277306   3.689   1.216  12.391  1.5080  0.0740  1.6284
18631TIP3   OH277307   1.891   3.596  14.143  0.1036 -0.3955 -0.2420
18631TIP3    H177308   1.910   3.677  14.096 -0.7225 -0.3286 -0.4843
18631TIP3    H277309   1.891   3.528  14.075  0.3758 -0.5288 -0.1075
18632TIP3   OH277310   3.345   5.647   5.579 -0.0218  0.2947  0.0977
18632TIP3    H177311   3.403   5.625   5.652  0.3369 -0.6630 -0.4563
18632TIP3    H277312   3.268   5.591   5.591 -0.7083  1.3286  0.6482
18633TIP3   OH277313   3.160   2.015  11.210 -0.6973  0.1890 -0.2112
18633TIP3    H177314   3.255   2.026  11.212 -0.6798 -0.0428  1.8043
18633TIP3    H277315   3.128   2.094  11.166  0.3205  1.2118  0.8069
18634TIP3   OH277316   2.296   1.980   4.682  0.3088 -0.0455 -0.2081
18634TIP3    H177317   2.286   1.996   4.588  1.4163 -2.0955 -0.7354
18634TIP3    H277318   2.210   2.001   4.719 -0.2389  0.5167 -1.7101
18635TIP3   OH277319   1.085   3.636   5.356  0.3935  0.4272  0.1170
18635TIP3    H177320   1.104   3.542   5.363  0.1227  0.4608  1.5756
18635TIP3    H277321   1.008   3.649   5.411  0.2305  1.4618 -0.3360
18636TIP3   OH277322   0.530   5.026   2.752  0.6936  0.4048  0.5157
18636TIP3    H177323   0.445   5.047   2.714  0.9300  1.9865  0.7999
18636TIP3    H277324   0.513   4.952   2.810 -0.4718  0.6369  0.4930
18637TIP3   OH277325   5.184   4.540   0.480 -0.3842 -0.0959 -0.3878
18637TIP3    H177326   5.205   4.609   0.416  0.4523  1.5422  1.5593
18637TIP3    H277327   5.269   4.511   0.513 -0.8348 -0.2650  0.6443
18638TIP3   OH277328   5.663   5.504  13.479 -0.2093 -0.2838 -0.1551
18638TIP3    H177329   5.695   5.576  13.532 -2.2114  0.6993 -0.2032
18638TIP3    H277330   5.586   5.539  13.434 -0.9343 -2.2816 -0.5803
18639TIP3   OH277331   3.314   4.721   4.676  0.3110  0.1209 -0.4534
18639TIP3    H177332   3.287   4.769   4.598  0.0860 -1.5271 -1.4380
18639TIP3    H277333   3.336   4.633   4.644 -0.7508 -0.9124  1.4699
18640TIP3   OH277334   6.756   6.707   2.644 -0.1362 -0.2241  0.0663
18640TIP3    H177335   6.817   6.738   2.577  0.6371 -1.8892 -0.0391
18640TIP3    H277336   6.777   6.759   2.721  1.0337 -0.3800 -0.1348
18641TIP3   OH277337   2.080   5.832   4.772  0.3568 -0.3666 -0.0764
18641TIP3    H177338   2.058   5.815   4.680 -0.2706 -1.1643  0.2109
18641TIP3    H277339   2.175   5.841   4.773  0.4466 -1.2007 -0.6742
18642TIP3   OH277340   4.195   0.559  12.061  0.7004 -0.5514  0.3899
18642TIP3    H177341   4.182   0.549  12.155 -1.5528 -0.1058  0.1667
18642TIP3    H277342   4.153   0.481  12.023 -0.6690  0.4991 -0.3438
18643TIP3   OH277343   0.692   1.113   0.009 -0.2084  0.2666 -0.0750
18643TIP3    H177344   0.607   1.136  -0.030 -0.0340  1.9138  0.4562
18643TIP3    H277345   0.756   1.155  -0.047  0.3203 -1.1917 -0.6261
18644TIP3   OH277346   3.011   3.624  10.675  0.3251  0.0499  0.4019
18644TIP3    H177347   2.970   3.650  10.758  1.6830 -1.2763  1.5443
18644TIP3    H277348   3.033   3.707  10.633 -2.3146  0.8020  0.2973
18645TIP3   OH277349   4.853   5.047  14.083  0.3527 -0.1496  0.7518
18645TIP3    H177350   4.781   4.986  14.096 -0.4195  0.3003 -1.1128
18645TIP3    H277351   4.898   5.016  14.004  0.3474  1.2828  0.1525
18646TIP3   OH277352   5.870   4.550  14.225 -0.2579  0.7762  0.0150
18646TIP3    H177353   5.872   4.540  14.320  1.7985  2.3866  0.2172
18646TIP3    H277354   5.875   4.645  14.211  0.5335  0.5198 -1.6828
18647TIP3   OH277355   0.056   3.134   6.111 -0.3556 -0.0810 -0.1622
18647TIP3    H177356   0.101   3.191   6.174 -1.8387 -0.0035  0.8624
18647TIP3    H277357  -0.023   3.181   6.088 -0.1893 -0.4397 -1.5785
18648TIP3   OH277358   3.341   3.242  15.562 -0.4661  0.1664 -0.0795
18648TIP3    H177359   3.342   3.193  15.645 -0.8931  0.7436  0.2696
18648TIP3    H277360   3.396   3.189  15.503 -0.5141 -0.4772  0.4367
18649TIP3   OH277361   6.370   0.774   0.104  0.0976  0.4110 -0.0164
18649TIP3    H177362   6.320   0.856   0.099  1.0397  1.1790  2.0419
18649TIP3    H277363   6.447   0.796   0.157  0.7454 -1.6404 -0.0228
18650TIP3   OH277364   2.898   6.170   4.721  0.3453  0.6268  0.3320
18650TIP3    H177365   2.911   6.136   4.809 -0.1684 -0.3967  0.0325
18650TIP3    H277366   2.960   6.121   4.667 -0.0991  0.4749 -0.0427
18651TIP3   OH277367   1.145   5.404   6.282 -0.3065 -0.4597  0.0711
18651TIP3    H177368   1.064   5.434   6.242  0.6375  0.0728 -1.5333
18651TIP3    H277369   1.168   5.324   6.235  0.5083 -0.1653 -0.0516
18652TIP3   OH277370   5.020   6.193  14.551 -0.0130  0.0494  0.4681
18652TIP3    H177371   4.974   6.179  14.634  1.1833  0.6214  1.2520
18652TIP3    H277372   5.091   6.129  14.551  1.6734  1.8252  1.2055
18653TIP3   OH277373   5.419   0.613  11.988 -0.4515 -0.8723  0.0731
18653TIP3    H177374   5.449   0.524  12.004 -1.1876 -1.2159 -0.4155
18653TIP3    H277375   5.323   0.606  11.985 -0.4874 -0.8200 -3.9477
18654TIP3   OH277376   4.452   1.766  13.164  0.5577 -0.0554 -0.5515
18654TIP3    H177377   4.389   1.694  13.153  0.6383 -0.1868 -0.1969
18654TIP3    H277378   4.459   1.806  13.078 -1.2138  0.9617 -0.2790
18655TIP3   OH277379   6.374   3.628   4.937  0.3178  0.2403  0.0762
18655TIP3    H177380   6.446   3.573   4.969  0.6779 -0.4897 -1.8738
18655TIP3    H277381   6.407   3.717   4.944  0.8120  0.0197  0.6488
18656TIP3   OH277382   5.650   5.384   0.936 -0.1821 -0.5960  0.4894
18656TIP3    H177383   5.564   5.381   0.895  0.0632 -2.0678  0.0285
18656TIP3    H277384   5.642   5.451   1.005 -1.1585  0.5448 -0.6830
18657TIP3   OH277385   0.336   1.857   5.107 -0.6679 -0.5794 -0.6380
18657TIP3    H177386   0.299   1.904   5.182  0.2074  0.4191 -0.8011
18657TIP3    H277387   0.322   1.916   5.033  1.8784  0.2372 -0.5789
18658TIP3   OH277388   1.165   4.189   5.706  0.2678  0.0408  0.0165
18658TIP3    H177389   1.232   4.130   5.671  1.3993  0.9880  0.4908
18658TIP3    H277390   1.105   4.204   5.632  1.0753 -0.1387 -0.6946
18659TIP3   OH277391   1.550   1.808   1.184  0.9664  0.5307 -0.2341
18659TIP3    H177392   1.482   1.749   1.217  0.6493  1.2091  0.3782
18659TIP3    H277393   1.620   1.751   1.153 -0.1128 -0.2025 -1.4136
18660TIP3   OH277394   1.129   0.475   1.188 -0.3429  0.4944 -0.6435
18660TIP3    H177395   1.094   0.490   1.100 -1.2299  0.3457 -0.3269
18660TIP3    H277396   1.053   0.451   1.240  0.5164 -1.9428 -0.3918
18661TIP3   OH277397   0.850   1.865  15.371  0.1411  0.1443 -0.4029
18661TIP3    H177398   0.781   1.829  15.426 -0.9724  2.8936  0.1429
18661TIP3    H277399   0.836   1.826  15.285 -0.8157 -0.8515  0.1833
18662TIP3   OH277400   4.207   4.165  11.827 -0.3534 -0.4447  0.0868
18662TIP3    H177401   4.221   4.256  11.800 -0.2962 -0.5426 -0.2117
18662TIP3    H277402   4.142   4.131  11.766 -0.7916 -0.4389  0.5475
18663TIP3   OH277403   0.261   4.388   3.711 -0.1308  0.1185 -0.1823
18663TIP3    H177404   0.261   4.380   3.616  3.0071  0.8903 -0.3436
18663TIP3    H277405   0.325   4.323   3.741 -1.8246 -0.8692  1.5628
18664TIP3   OH277406   0.187   1.237   0.827  0.2634  0.3091  0.2519
18664TIP3    H177407   0.221   1.204   0.743 -0.0630  2.5227 -0.8259
18664TIP3    H277408   0.107   1.187   0.842 -0.8243  1.3075 -1.8834
18665TIP3   OH277409   2.254   4.763   1.053 -0.5893  0.6620 -0.0160
18665TIP3    H177410   2.209   4.847   1.055 -0.7709  0.5499  0.7202
18665TIP3    H277411   2.194   4.705   1.006 -0.2632  1.0475 -0.9358
18666TIP3   OH277412   1.272   3.546  14.591  0.4946 -0.0892  0.0025
18666TIP3    H177413   1.216   3.483  14.546  0.2518 -0.3026  0.5838
18666TIP3    H277414   1.330   3.579  14.523  0.7921 -1.1184 -0.2709
18667TIP3   OH277415   3.403   3.204  13.362  0.0388  0.4302  0.3856
18667TIP3    H177416   3.414   3.210  13.457  0.1111  2.0641  0.3083
18667TIP3    H277417   3.310   3.223  13.348 -0.1047 -0.4137  0.1603
18668TIP3   OH277418   3.523   1.671  16.525 -0.3614  0.0696  0.2246
18668TIP3    H177419   3.602   1.673  16.579  0.1543 -1.2191 -0.4349
18668TIP3    H277420   3.466   1.738  16.562  1.4663  1.7889  0.0301
18669TIP3   OH277421   3.340   3.668  16.749 -0.3841  0.2649 -0.8062
18669TIP3    H177422   3.335   3.739  16.812 -0.0090  0.0858 -0.5714
18669TIP3    H277423   3.316   3.708  16.666 -1.8527  0.2974 -0.3983
18670TIP3   OH277424   2.509   5.649  13.241 -0.7212  0.1723  0.6371
18670TIP3    H177425   2.537   5.734  13.277 -2.4335  0.7864  0.6239
18670TIP3    H277426   2.521   5.588  13.313  0.2288  0.4809  0.7548
18671TIP3   OH277427   3.861   1.569  13.563  0.2216 -0.3473  0.6034
18671TIP3    H177428   3.844   1.650  13.516  1.1274 -0.1116  0.6780
18671TIP3    H277429   3.845   1.590  13.655  0.4421 -0.2581  0.6210
18672TIP3   OH277430   0.563   6.237   1.474 -0.3459  0.4937 -0.3070
18672TIP3    H177431   0.562   6.247   1.569  1.4449  0.2260 -0.2322
18672TIP3    H277432   0.471   6.245   1.448 -0.7279  1.8550  1.3023
18673TIP3   OH277433   4.865   5.319  11.368 -0.3475  0.3772 -0.0215
18673TIP3    H177434   4.789   5.263  11.349 -0.9136  1.5664 -1.5146
18673TIP3    H277435   4.925   5.303  11.294 -0.0596  0.9582  0.0815
18674TIP3   OH277436   4.449   0.667   5.575  0.1679  0.2422  0.0014
18674TIP3    H177437   4.534   0.688   5.614  0.4220  1.4014 -1.1079
18674TIP3    H277438   4.471   0.624   5.493 -0.3372 -0.2343  0.1160
18675TIP3   OH277439   1.165   6.118   2.938 -0.1044 -0.0993  0.5040
18675TIP3    H177440   1.235   6.151   2.993 -0.3963  0.4742  0.5400
18675TIP3    H277441   1.170   6.023   2.946  0.9214 -0.0832  0.1858
18676TIP3   OH277442   2.398   6.557  12.585 -0.2115  0.1837  0.3223
18676TIP3    H177443   2.389   6.462  12.577 -3.5287  0.2907  1.4176
18676TIP3    H277444   2.455   6.582  12.511  1.1338 -2.6330  0.2859
18677TIP3   OH277445   5.340   6.341  15.290  0.0430  0.2203 -0.0673
18677TIP3    H177446   5.317   6.303  15.205 -1.6275 -1.6919  1.1539
18677TIP3    H277447   5.357   6.266  15.346  1.3065  1.4572  1.2759
18678TIP3   OH277448   3.776   1.790  14.353  0.1658  0.0553  0.0279
18678TIP3    H177449   3.724   1.741  14.416 -1.8227  1.5468 -0.3389
18678TIP3    H277450   3.811   1.864  14.403  0.8100 -0.2041 -0.0353
18679TIP3   OH277451   2.198   6.426  11.517 -0.0291 -1.1308 -0.3698
18679TIP3    H177452   2.180   6.333  11.526 -0.3981 -1.1724 -1.4677
18679TIP3    H277453   2.212   6.456  11.607 -4.2663 -1.3265  0.5709
18680TIP3   OH277454   5.752   4.483   0.483  0.1853 -0.3352 -0.0992
18680TIP3    H177455   5.671   4.436   0.464  0.7718 -1.2780 -0.3483
18680TIP3    H277456   5.821   4.428   0.446  1.0898 -0.4325  1.6057
18681TIP3   OH277457   4.268   0.224  13.565 -0.1588 -0.0077 -0.1511
18681TIP3    H177458   4.279   0.210  13.659  0.8277 -0.0710 -0.2642
18681TIP3    H277459   4.260   0.319  13.556  0.9638  0.0984 -0.1110
18682TIP3   OH277460   2.813   3.801  10.945  0.5280  0.1635  0.4793
18682TIP3    H177461   2.724   3.768  10.961  0.8938 -1.5621 -0.8004
18682TIP3    H277462   2.804   3.854  10.865  0.7663 -0.6340 -0.0861
18683TIP3   OH277463   5.306   0.025  12.882 -0.2768 -0.6615 -0.3329
18683TIP3    H177464   5.259  -0.057  12.900  0.1790 -0.9199 -0.2986
18683TIP3    H277465   5.341   0.012  12.793 -0.4934 -0.3644 -0.4614
18684TIP3   OH277466   5.527   6.730  12.273 -0.2533  0.3508  0.7390
18684TIP3    H177467   5.536   6.706  12.181  1.7592  2.0268  0.4197
18684TIP3    H277468   5.455   6.676  12.305 -0.1953 -1.1927 -1.4900
18685TIP3   OH277469   3.504   6.189  12.286 -0.2149 -0.3844 -0.0689
18685TIP3    H177470   3.571   6.222  12.226  2.3988  1.1718  3.2846
18685TIP3    H277471   3.494   6.259  12.351 -2.9331 -1.8403  1.2501
18686TIP3   OH277472   1.988   0.900   4.830 -0.0919 -0.7259 -0.1447
18686TIP3    H177473   2.036   0.908   4.913  1.5621 -0.9940 -1.0189
18686TIP3    H277474   1.897   0.913   4.853  0.5895  2.2223  1.2892
18687TIP3   OH277475   6.221   1.099   2.441  0.5152  0.1712 -0.3801
18687TIP3    H177476   6.235   1.103   2.536 -0.0787  0.6162 -0.3020
18687TIP3    H277477   6.167   1.021   2.429 -0.8752  1.0541 -0.1374
18688TIP3   OH277478   6.659   4.901   1.700  0.1899 -0.4918  0.3087
18688TIP3    H177479   6.734   4.909   1.642 -0.7866 -0.7239 -1.0292
18688TIP3    H277480   6.589   4.865   1.645 -2.2843  3.7278  0.2508
18689TIP3   OH277481   3.726   4.276   2.787  0.4645  0.0324 -0.5781
18689TIP3    H177482   3.733   4.337   2.860 -3.5500  0.5291 -0.3813
18689TIP3    H277483   3.739   4.330   2.709  1.0910  0.2549 -0.3265
18690TIP3   OH277484   0.082   4.825  11.906 -0.0896 -0.0486  0.0246
18690TIP3    H177485   0.063   4.911  11.868 -1.5790 -0.5720 -0.4611
18690TIP3    H277486   0.088   4.841  12.000 -1.1576  0.4672  0.0132
18691TIP3   OH277487   6.714   2.660   0.340 -0.3081  0.2544 -0.1564
18691TIP3    H177488   6.624   2.628   0.344 -0.4001  0.6617  2.0296
18691TIP3    H277489   6.762   2.609   0.405  0.4736  1.6816  0.4444
18692TIP3   OH277490   1.001   3.094   5.743 -0.6077  0.0422  0.1559
18692TIP3    H177491   1.030   3.029   5.679 -1.2562 -1.3219  1.2157
18692TIP3    H277492   1.063   3.086   5.815 -0.6893  0.6184  0.2924
18693TIP3   OH277493   3.865   6.069   1.690  0.3631  0.4021  0.1667
18693TIP3    H177494   3.870   6.162   1.711 -1.7658  0.5126  0.4617
18693TIP3    H277495   3.860   6.024   1.774 -2.0024  0.3530  0.0786
18694TIP3   OH277496   2.629   0.325   0.418 -0.5619 -0.0470 -0.4411
18694TIP3    H177497   2.606   0.342   0.327 -1.3312  1.4585 -0.0007
18694TIP3    H277498   2.553   0.281   0.455 -0.1790 -0.8224 -0.5551
18695TIP3   OH277499   4.614   0.150  17.340  0.2727 -0.0837 -0.4077
18695TIP3    H177500   4.684   0.155  17.406  1.7629  0.5139 -1.9393
18695TIP3    H277501   4.646   0.205  17.268 -0.9510 -1.2694 -1.9135
18696TIP3   OH277502   3.765   4.910  12.411 -0.7325  0.2383 -0.3018
18696TIP3    H177503   3.780   4.897  12.505 -1.7477 -1.7960 -0.3541
18696TIP3    H277504   3.763   4.821  12.375 -1.9530  0.8943 -1.9851
18697TIP3   OH277505   4.689   1.527  13.088  0.3060 -0.3139 -0.4083
18697TIP3    H177506   4.614   1.544  13.031  0.6956 -0.2236 -0.9032
18697TIP3    H277507   4.691   1.431  13.096 -1.5729 -0.2528  1.9520
18698TIP3   OH277508   5.386   1.517   1.697  0.2431  0.4921 -0.0643
18698TIP3    H177509   5.453   1.545   1.635 -0.7029 -0.8259 -1.7697
18698TIP3    H277510   5.317   1.481   1.642 -1.6287  1.2582  1.6591
18699TIP3   OH277511   5.069   1.522  17.366  0.3138  0.4840  0.2990
18699TIP3    H177512   5.095   1.471  17.289  0.6454  0.3065  0.5272
18699TIP3    H277513   5.002   1.469  17.409 -1.1491  1.3638 -0.8009
18700TIP3   OH277514   5.798   2.956  15.025  0.8018 -0.3305 -0.1177
18700TIP3    H177515   5.802   2.917  14.937  1.7670  0.1231 -0.2909
18700TIP3    H277516   5.725   3.017  15.021 -1.0155 -2.3752  0.2876
18701TIP3   OH277517   5.884   0.159  16.383  0.1285  0.1071  0.2413
18701TIP3    H177518   5.819   0.224  16.358 -0.5103  0.6878  3.0194
18701TIP3    H277519   5.849   0.076  16.351 -1.5446  0.5340  0.8561
18702TIP3   OH277520   4.280   6.021  14.867 -0.2164  0.2389  0.5188
18702TIP3    H177521   4.279   6.003  14.773 -0.5857  0.8275  0.4044
18702TIP3    H277522   4.303   6.114  14.874 -0.6082  0.3108  0.9813
18703TIP3   OH277523   1.832   4.718  15.653 -0.1424 -0.3443 -0.4871
18703TIP3    H177524   1.787   4.801  15.670 -0.4950 -0.8064  1.0038
18703TIP3    H277525   1.889   4.705  15.729  0.9771 -0.8001 -1.3593
18704TIP3   OH277526   0.143   1.713  16.614 -0.2774 -0.1988 -0.3704
18704TIP3    H177527   0.192   1.793  16.596 -0.2500 -0.1952 -0.2836
18704TIP3    H277528   0.059   1.725  16.570 -0.2590 -0.1376 -0.3895
18705TIP3   OH277529   5.884   3.351   5.597 -0.2880 -0.4808 -0.1204
18705TIP3    H177530   5.961   3.294   5.601  1.0159  1.2361  0.1395
18705TIP3    H277531   5.850   3.352   5.686 -0.3782 -0.8968 -0.1444
18706TIP3   OH277532   4.179   5.854  14.025 -0.6396 -0.2717 -0.3525
18706TIP3    H177533   4.123   5.928  14.000 -0.7195 -0.6091 -1.2204
18706TIP3    H277534   4.129   5.809  14.093 -0.7932  0.2174 -0.1350
18707TIP3   OH277535   6.033   5.768   6.476 -0.3236 -0.3739  0.0642
18707TIP3    H177536   6.076   5.830   6.417 -1.8414 -0.5224 -1.2863
18707TIP3    H277537   6.103   5.736   6.533  0.8581  1.1282 -0.4679
18708TIP3   OH277538   5.783   3.225  13.139 -0.1285  0.2086 -0.3185
18708TIP3    H177539   5.813   3.243  13.050 -0.7505  2.3487 -0.1463
18708TIP3    H277540   5.863   3.221  13.191  0.1346  3.0100 -0.3499
18709TIP3   OH277541   0.595   5.155   4.633 -0.1207 -0.2466 -0.2203
18709TIP3    H177542   0.636   5.071   4.654 -0.7898 -0.3888  0.5738
18709TIP3    H277543   0.545   5.177   4.711  0.8005  1.3798 -0.0461
18710TIP3   OH277544   4.640   6.133  12.817 -0.1007 -0.4807 -0.2163
18710TIP3    H177545   4.638   6.094  12.905 -0.3201  0.5186  0.2332
18710TIP3    H277546   4.729   6.167  12.807 -0.6268  1.1608  0.4234
18711TIP3   OH277547   0.425   5.300  12.833  0.2836  0.1948  0.8088
18711TIP3    H177548   0.433   5.353  12.913 -0.5767  0.4165  0.7641
18711TIP3    H277549   0.474   5.349  12.767 -2.8221  2.5710  0.0072
18712TIP3   OH277550   6.519   1.160  14.355  0.0972  0.7687 -0.0358
18712TIP3    H177551   6.497   1.087  14.412  0.0399  0.6739 -0.1802
18712TIP3    H277552   6.604   1.191  14.388 -0.6022  1.6439  1.0300
18713TIP3   OH277553   2.135   4.510   4.174 -0.6854  0.1475 -0.4116
18713TIP3    H177554   2.070   4.483   4.110 -0.3437 -1.7447 -0.0039
18713TIP3    H277555   2.174   4.429   4.205  0.0045  1.0893  1.3229
18714TIP3   OH277556   1.434   5.145  12.853  0.4021  0.6096 -0.3967
18714TIP3    H177557   1.358   5.087  12.865 -0.6893  1.4215 -2.7665
18714TIP3    H277558   1.400   5.233  12.870  1.8558  0.7398  2.3973
18715TIP3   OH277559   1.475   2.638  15.764  0.8606 -0.2990  0.4761
18715TIP3    H177560   1.494   2.731  15.776  2.5222 -0.4812 -0.5019
18715TIP3    H277561   1.417   2.616  15.837 -0.6692  1.7917 -0.0165
18716TIP3   OH277562   6.412   2.983   4.816 -0.3230  0.3278  0.3896
18716TIP3    H177563   6.459   2.922   4.874  1.0601 -3.5872 -4.1760
18716TIP3    H277564   6.335   2.933   4.787  0.0237  1.2771 -2.3982
18717TIP3   OH277565   0.690   5.901  10.948 -0.1635  0.1627 -0.3461
18717TIP3    H177566   0.650   5.841  10.885 -0.9959  0.2168  0.1288
18717TIP3    H277567   0.662   5.988  10.919 -2.3487  0.0860  1.3020
18718TIP3   OH277568   2.824   4.755   0.487 -0.1756  0.9266  0.5239
18718TIP3    H177569   2.842   4.720   0.574  0.4345  0.1960  0.1120
18718TIP3    H277570   2.910   4.767   0.447 -0.4616  0.9318 -0.1016
18719TIP3   OH277571   4.279   6.260  14.379 -0.2418 -0.5292  0.8233
18719TIP3    H177572   4.363   6.256  14.332 -0.4399  1.7908  0.1278
18719TIP3    H277573   4.224   6.316  14.324 -0.9971  1.0118  3.0189
18720TIP3   OH277574   2.080   2.522   3.051 -0.2938  0.3332 -0.5652
18720TIP3    H177575   2.120   2.467   2.984  0.9462  0.6271 -0.1149
18720TIP3    H277576   2.140   2.597   3.059 -0.0069 -0.0405  1.3436
18721TIP3   OH277577   0.095   0.793   6.099  0.6409 -0.5260 -0.1635
18721TIP3    H177578   0.189   0.804   6.108  0.6691  0.4292 -1.3633
18721TIP3    H277579   0.067   0.868   6.046 -0.9360 -0.2765  0.9612
18722TIP3   OH277580   6.127   0.746   3.348  0.6883 -0.6652 -0.3236
18722TIP3    H177581   6.155   0.837   3.335  0.6869 -0.3901  1.3371
18722TIP3    H277582   6.032   0.750   3.344  0.7240 -0.9076 -1.9437
18723TIP3   OH277583   3.077   0.996   3.136 -0.2734  0.1243  0.0067
18723TIP3    H177584   3.149   0.953   3.091 -1.7077 -0.9891 -1.3006
18723TIP3    H277585   3.094   1.089   3.124  0.2032 -0.1311 -1.5082
18724TIP3   OH277586   0.567   1.818  11.135  0.3334 -0.1526  0.0058
18724TIP3    H177587   0.552   1.809  11.041  0.6720  0.1141 -0.0756
18724TIP3    H277588   0.484   1.853  11.169  0.0945 -0.5790 -0.1398
18725TIP3   OH277589   2.088   3.753   3.645  0.3578  0.3371  0.2986
18725TIP3    H177590   2.025   3.789   3.708  0.4279  1.2616 -0.1419
18725TIP3    H277591   2.067   3.660   3.641  0.6414  0.1629  2.0253
18726TIP3   OH277592   1.870   1.402  11.417 -0.1441 -0.0158 -0.6190
18726TIP3    H177593   1.779   1.391  11.444  0.6657 -0.3912  2.2365
18726TIP3    H277594   1.914   1.323  11.447  1.0884 -0.0591 -2.3718
18727TIP3   OH277595   1.555   5.452  12.573  0.0421  0.4532  0.2283
18727TIP3    H177596   1.590   5.488  12.491  0.2290 -0.0269  0.0945
18727TIP3    H277597   1.609   5.492  12.641  1.4883 -0.9667 -0.0216
18728TIP3   OH277598   6.042   4.135   1.573 -0.1033  0.1121  0.3879
18728TIP3    H177599   6.130   4.173   1.577 -0.6898  1.5131  0.6753
18728TIP3    H277600   5.994   4.192   1.513 -1.0463 -0.0989  0.9183
18729TIP3   OH277601   2.977   0.107   6.063  0.0330 -0.4557  0.3022
18729TIP3    H177602   3.070   0.125   6.046 -0.1708  1.1018  0.6740
18729TIP3    H277603   2.961   0.023   6.020  1.0772  0.3023 -1.7148
18730TIP3   OH277604   0.055   4.795  14.754 -0.5740  0.0175 -0.3280
18730TIP3    H177605   0.148   4.780  14.774 -0.8407 -2.5640 -0.7344
18730TIP3    H277606   0.044   4.760  14.666 -2.0524 -0.2217 -0.0696
18731TIP3   OH277607   0.025   2.644  12.346 -0.0960  0.6589  0.0922
18731TIP3    H177608   0.113   2.681  12.346  0.1438  0.1263  1.2711
18731TIP3    H277609   0.033   2.563  12.296  0.1491  0.4494  0.4728
18732TIP3   OH277610   1.514   4.308   2.157  0.4802 -0.4657 -0.3365
18732TIP3    H177611   1.434   4.339   2.199  0.8684  0.5540 -0.3127
18732TIP3    H277612   1.543   4.234   2.210 -0.1624 -0.5037 -0.0373
18733TIP3   OH277613   5.905   1.644  12.892  0.5730 -0.1741  0.0153
18733TIP3    H177614   5.949   1.690  12.964 -0.4938 -0.0373  0.5975
18733TIP3    H277615   5.927   1.552  12.906  1.3253 -0.0260 -0.1644
18734TIP3   OH277616   2.200   0.732   1.763 -0.0602 -0.1198 -0.2914
18734TIP3    H177617   2.214   0.643   1.729  0.0565 -0.1478 -0.1715
18734TIP3    H277618   2.234   0.729   1.852 -2.0228 -0.5544  0.5023
18735TIP3   OH277619   3.638   0.517  11.300 -0.0983  0.5918 -0.1012
18735TIP3    H177620   3.643   0.440  11.356 -0.9700  0.5001 -0.1442
18735TIP3    H277621   3.716   0.512  11.245 -0.3471 -0.4521 -0.3671
18736TIP3   OH277622   1.374   0.044  12.433 -0.3802  0.1924 -0.6683
18736TIP3    H177623   1.371   0.067  12.340 -0.0511  1.0371 -0.4753
18736TIP3    H277624   1.354   0.125  12.479  1.8506  0.3936  0.0702
18737TIP3   OH277625   1.911   2.102   2.050  0.0713  0.5209 -0.2087
18737TIP3    H177626   1.909   2.062   1.963 -0.2616 -1.2869  0.5894
18737TIP3    H277627   1.823   2.136   2.063 -0.1434 -0.0412 -0.1998
18738TIP3   OH277628   3.386   1.195  11.366 -0.3624  0.1636  0.0939
18738TIP3    H177629   3.304   1.147  11.349  0.3331 -0.7897 -0.6809
18738TIP3    H277630   3.454   1.128  11.359  0.5849  1.1583 -0.3817
18739TIP3   OH277631   5.840   0.944   3.067  0.8409  0.7893  0.3425
18739TIP3    H177632   5.864   0.877   3.003  2.3148  0.1245  1.5410
18739TIP3    H277633   5.884   1.023   3.035  1.3203  0.5348  0.3668
18740TIP3   OH277634   0.225   3.909  13.194  0.1194  0.2396  0.3317
18740TIP3    H177635   0.310   3.935  13.229  0.8729  0.8000 -1.7475
18740TIP3    H277636   0.183   3.860  13.265  1.0405  2.2096  2.3624
18741TIP3   OH277637   6.650   0.388  13.518 -0.1169 -0.1539 -0.3358
18741TIP3    H177638   6.591   0.378  13.443 -0.8476 -0.6376  0.2907
18741TIP3    H277639   6.653   0.482  13.533 -0.3221 -0.0864 -0.6920
18742TIP3   OH277640   5.719   3.603   2.152 -0.0893  0.4471  0.9690
18742TIP3    H177641   5.774   3.539   2.106 -0.5578  0.4162  0.4369
18742TIP3    H277642   5.672   3.551   2.218  0.4970  0.4703  1.4064
18743TIP3   OH277643   4.973   5.908   2.523  0.0859  0.1472  0.3764
18743TIP3    H177644   4.973   5.934   2.615  1.1053  1.9296 -0.0740
18743TIP3    H277645   4.964   5.813   2.525 -2.1933  0.3180  2.2044
18744TIP3   OH277646   4.027   1.392   1.532  0.1374 -0.1301  0.2364
18744TIP3    H177647   3.970   1.456   1.489  1.0534 -0.3639 -1.4010
18744TIP3    H277648   3.966   1.327   1.567 -0.6772 -0.5176 -1.7099
18745TIP3   OH277649   0.389   0.886  14.836  0.3109  0.1739  0.3463
18745TIP3    H177650   0.323   0.888  14.906  0.0449 -4.3012  0.5209
18745TIP3    H277651   0.470   0.914  14.879 -0.4499  0.5523  1.5950
18746TIP3   OH277652   5.710   2.660   4.081  0.8153  0.6626  0.7548
18746TIP3    H177653   5.735   2.570   4.063  0.3485  0.7572 -0.4835
18746TIP3    H277654   5.642   2.653   4.148 -1.3679 -0.1734 -1.3992
18747TIP3   OH277655   1.151   1.448  14.682  0.0000 -0.6446 -0.5147
18747TIP3    H177656   1.240   1.482  14.674 -0.2573  0.0249 -0.5951
18747TIP3    H277657   1.103   1.491  14.612 -1.1669  1.6072  1.4941
18748TIP3   OH277658   4.794   5.738  13.847 -0.2130 -0.1385  0.5232
18748TIP3    H177659   4.786   5.694  13.762  0.3158 -0.1033  0.4463
18748TIP3    H277660   4.878   5.784  13.841  0.4734 -1.2265  1.5728
18749TIP3   OH277661   5.995   2.423   1.202 -0.3910 -0.8062  0.0478
18749TIP3    H177662   5.918   2.434   1.147 -1.1060 -0.2162  1.1318
18749TIP3    H277663   6.038   2.508   1.200  0.4536 -1.2257 -0.8273
18750TIP3   OH277664   3.484   6.479  13.331 -0.3469  0.6171  0.0266
18750TIP3    H177665   3.453   6.389  13.339 -0.1014  0.4762 -0.5234
18750TIP3    H277666   3.423   6.530  13.384  0.2590 -0.0200  1.3959
18751TIP3   OH277667   1.419   1.686  11.311  0.1690  0.0488  0.1218
18751TIP3    H177668   1.483   1.649  11.373  0.2912  0.1463  0.0544
18751TIP3    H277669   1.470   1.747  11.258  0.0342  0.0686  0.0159
18752TIP3   OH277670   2.096   4.361  11.400 -0.0221  0.2559 -0.2348
18752TIP3    H177671   2.187   4.331  11.403 -0.3055 -0.5792  0.6461
18752TIP3    H277672   2.062   4.326  11.318 -0.3960 -2.0659  0.8531
18753TIP3   OH277673   4.597   0.116   1.746  0.8626  0.5034  0.2853
18753TIP3    H177674   4.583   0.079   1.659  1.5526  0.4458  0.1876
18753TIP3    H277675   4.518   0.166   1.765 -0.6647 -1.9562  0.9281
18754TIP3   OH277676   6.139   4.214  11.866 -0.0757  0.0315 -0.7066
18754TIP3    H177677   6.174   4.175  11.786  0.0014  0.1045 -0.7075
18754TIP3    H277678   6.162   4.306  11.861  0.1120 -0.0031 -0.5015
18755TIP3   OH277679   5.654   1.909  16.046  0.2079  0.0625  0.2469
18755TIP3    H177680   5.726   1.849  16.027 -0.5752 -0.6767 -0.5314
18755TIP3    H277681   5.603   1.910  15.965 -0.7821  0.3873  0.8589
18756TIP3   OH277682   4.826   3.724   0.293 -0.3591  0.9718  0.0711
18756TIP3    H177683   4.768   3.730   0.217  2.7251 -0.6231 -2.6677
18756TIP3    H277684   4.861   3.812   0.303 -0.2763  1.0513 -0.8264
18757TIP3   OH277685   2.585   3.952   5.471 -0.0993 -0.7723  0.3769
18757TIP3    H177686   2.647   3.950   5.545 -0.3964  0.3378  0.6752
18757TIP3    H277687   2.588   4.042   5.440 -0.2989 -1.1270 -0.7170
18758TIP3   OH277688   5.250   4.858   2.098 -0.4449  0.2019 -0.4398
18758TIP3    H177689   5.253   4.765   2.078  0.4855  0.2418 -0.5186
18758TIP3    H277690   5.161   4.873   2.130  0.2750 -1.3851  2.7539
18759TIP3   OH277691   1.849   2.801  10.716  0.1006  0.4211 -0.0826
18759TIP3    H177692   1.908   2.769  10.647 -2.1480 -0.4857 -1.7057
18759TIP3    H277693   1.781   2.734  10.721 -2.1850  2.6160 -0.1355
18760TIP3   OH277694   4.596   4.390  11.472  0.6854 -0.4512 -0.0702
18760TIP3    H177695   4.579   4.404  11.379 -0.8351 -1.1161  0.0728
18760TIP3    H277696   4.523   4.335  11.502  2.3232 -2.1813  1.0220
18761TIP3   OH277697   2.637   0.827   1.384 -0.2891 -0.1550  0.5819
18761TIP3    H177698   2.587   0.805   1.306  1.0119  2.2779 -1.0644
18761TIP3    H277699   2.710   0.766   1.386 -0.5027 -0.4238  0.0667
18762TIP3   OH277700   2.356   2.524   2.662  0.0894  0.4957  0.3743
18762TIP3    H177701   2.357   2.466   2.586 -0.5150  2.5375 -1.3009
18762TIP3    H277702   2.346   2.466   2.737  0.0671 -1.5682 -1.1502
18763TIP3   OH277703   5.853   3.700  14.405  0.5056  0.1128  0.0586
18763TIP3    H177704   5.777   3.705  14.462  1.5721  1.3413  1.4380
18763TIP3    H277705   5.916   3.645  14.452  0.4432 -1.0615 -1.1539
18764TIP3   OH277706   4.204   4.451  17.320 -0.3458 -0.0857 -0.2351
18764TIP3    H177707   4.250   4.457  17.237 -0.1255  0.0053 -0.1058
18764TIP3    H277708   4.268   4.416  17.381 -0.4721 -0.0406 -0.0751
18765TIP3   OH277709   3.969   6.532  14.513  0.5364 -0.5376 -0.1940
18765TIP3    H177710   3.963   6.468  14.584 -0.5061  0.0036  0.2206
18765TIP3    H277711   4.063   6.535  14.491  0.5843 -2.3581 -0.3832
18766TIP3   OH277712   2.783   0.734  17.324  0.0124 -0.7744  0.4912
18766TIP3    H177713   2.860   0.789  17.313  0.7511 -1.8045  0.4056
18766TIP3    H277714   2.743   0.730  17.237 -2.5411  3.0759  1.2195
18767TIP3   OH277715   2.492   5.109  16.753 -0.0593  0.3472  0.4862
18767TIP3    H177716   2.570   5.075  16.708 -1.5944 -1.7713 -0.8087
18767TIP3    H277717   2.467   5.040  16.814  0.3903  2.0311  2.6895
18768TIP3   OH277718   3.990   0.578  13.672  0.2576  0.1330  0.3619
18768TIP3    H177719   3.978   0.500  13.618 -1.6822  0.9502 -0.4788
18768TIP3    H277720   4.016   0.543  13.758  1.3840 -1.2997 -0.5257
18769TIP3   OH277721   6.089   3.981  14.242  0.0982 -0.0239 -0.0842
18769TIP3    H177722   5.997   3.983  14.267 -0.7216  0.4366 -2.8152
18769TIP3    H277723   6.117   3.891  14.263 -0.1509  0.5124  3.0773
18770TIP3   OH277724   5.286   6.230   3.970  0.2434  0.1682  0.3867
18770TIP3    H177725   5.360   6.209   4.026  0.0235 -0.0881  0.5852
18770TIP3    H277726   5.209   6.212   4.024  0.0430  1.5457  0.5898
18771TIP3   OH277727   0.821   1.898   4.122  0.3354 -0.7134 -0.2867
18771TIP3    H177728   0.915   1.915   4.125 -0.0186  1.3260  0.5349
18771TIP3    H277729   0.795   1.923   4.034  0.7014 -2.3070 -0.8799
18772TIP3   OH277730   5.053   4.315  17.380  0.7813  0.1964  0.2780
18772TIP3    H177731   5.139   4.276  17.398  0.2023 -1.5530 -0.5077
18772TIP3    H277732   4.998   4.286  17.453  0.3082 -0.6473 -0.3862
18773TIP3   OH277733   1.201   0.338   2.574  0.0305  0.5320  0.0828
18773TIP3    H177734   1.261   0.308   2.642  1.7265  1.9584 -0.7006
18773TIP3    H277735   1.243   0.310   2.492 -0.0040  2.1422 -0.5028
18774TIP3   OH277736   6.195   5.864   0.788  0.2460 -0.3640  0.3280
18774TIP3    H177737   6.127   5.868   0.721  0.1287  0.8216  0.4939
18774TIP3    H277738   6.251   5.791   0.761 -0.4370 -0.6319 -0.4281
18775TIP3   OH277739   3.238   2.079   3.432 -0.0661  0.5283  0.0898
18775TIP3    H177740   3.184   2.141   3.482  0.7076  0.5038  0.9714
18775TIP3    H277741   3.316   2.129   3.407  1.3087 -0.4840  2.1571
18776TIP3   OH277742   2.012   1.795   4.542 -0.1994 -0.1167  0.1671
18776TIP3    H177743   1.930   1.843   4.548 -0.2073 -0.3059  2.4096
18776TIP3    H277744   2.076   1.850   4.589  0.6157 -0.6470 -0.2899
18777TIP3   OH277745   0.027   2.450   3.657  0.1314 -0.0212 -0.2626
18777TIP3    H177746   0.069   2.416   3.736  1.3940  0.8948 -0.5103
18777TIP3    H277747  -0.065   2.425   3.666  0.4436 -0.7908  1.0140
18778TIP3   OH277748   4.115   4.915   2.890  0.3731  1.2201  0.0157
18778TIP3    H177749   4.167   4.963   2.954  0.5897  0.0393  0.7612
18778TIP3    H277750   4.160   4.930   2.807  2.7037 -0.7463  0.8151
18779TIP3   OH277751   5.540   6.712   2.043  0.0423 -0.1603 -0.7070
18779TIP3    H177752   5.523   6.725   1.950  2.4857  1.2515 -1.0425
18779TIP3    H277753   5.608   6.645   2.046 -0.8392 -1.0629  0.1785
18780TIP3   OH277754   5.538   2.163   4.160 -0.8140 -0.0968 -0.4207
18780TIP3    H177755   5.605   2.096   4.175 -1.4035 -0.7281 -0.5546
18780TIP3    H277756   5.575   2.242   4.199 -1.5719 -1.2482  3.0456
18781TIP3   OH277757   2.938   3.739  14.743 -0.1253 -0.2109 -0.2046
18781TIP3    H177758   3.032   3.753  14.745  0.1232 -1.7021  2.5276
18781TIP3    H277759   2.927   3.645  14.730 -1.2983 -0.0027 -1.0025
18782TIP3   OH277760   5.778   2.052   4.572  0.0423 -0.1606  0.3384
18782TIP3    H177761   5.792   2.095   4.656  0.9740  2.2224 -0.9194
18782TIP3    H277762   5.857   2.072   4.522  0.3473 -3.0615 -0.5622
18783TIP3   OH277763   4.842   4.875  12.271  0.6663 -0.3166 -0.3977
18783TIP3    H177764   4.900   4.811  12.312 -0.0276 -0.3019  0.6423
18783TIP3    H277765   4.780   4.823  12.220  2.8523 -0.2755 -3.3956
18784TIP3   OH277766   0.583   2.085  11.959  0.1910  0.6032  0.2384
18784TIP3    H177767   0.505   2.115  11.912  0.3907  1.9497  0.7441
18784TIP3    H277768   0.549   2.041  12.036 -0.0808  1.6833  0.7525
18785TIP3   OH277769   4.821   1.233  16.015 -0.5338  0.7833  0.0762
18785TIP3    H177770   4.846   1.147  15.983  0.7158  1.2073 -0.1288
18785TIP3    H277771   4.884   1.293  15.975 -0.8349  1.6860  0.9188
18786TIP3   OH277772   3.461   1.899  17.361 -0.1195 -0.2093 -0.0114
18786TIP3    H177773   3.469   1.841  17.285  0.1234 -0.5254  0.2557
18786TIP3    H277774   3.373   1.935  17.353  0.4738  1.0366 -1.3482
18787TIP3   OH277775   5.386   2.415   3.827 -0.3661 -0.4585  0.1344
18787TIP3    H177776   5.434   2.366   3.894 -0.5514  1.3278  1.6386
18787TIP3    H277777   5.446   2.486   3.803  0.5385 -2.0944 -3.1136
18788TIP3   OH277778   1.034   1.541   3.746 -0.2369 -0.0570  0.4524
18788TIP3    H177779   1.082   1.621   3.767  0.6118 -0.7321  1.1325
18788TIP3    H277780   1.084   1.470   3.787 -1.2782 -0.8882  0.3532
18789TIP3   OH277781   0.219   3.229  11.784  0.0237  0.4498  0.1885
18789TIP3    H177782   0.219   3.303  11.722 -0.6442  0.3814  0.0952
18789TIP3    H277783   0.137   3.183  11.765  0.9259 -0.9381 -0.4922
18790TIP3   OH277784   5.840   3.249  14.332 -0.7204 -0.1764 -0.8397
18790TIP3    H177785   5.818   3.300  14.410 -0.9686 -0.2921 -0.8334
18790TIP3    H277786   5.818   3.158  14.355 -1.0081 -0.1801 -1.1235
18791TIP3   OH277787   2.799   3.271   2.889 -0.3400 -0.7555 -0.3591
18791TIP3    H177788   2.857   3.337   2.928 -1.3166  0.8269 -1.4326
18791TIP3    H277789   2.854   3.195   2.876  0.4191 -0.8556  2.6131
18792TIP3   OH277790   6.286   3.643   1.375  0.3389 -0.2771  0.1448
18792TIP3    H177791   6.285   3.688   1.290 -2.0504 -2.4585 -1.1473
18792TIP3    H277792   6.350   3.573   1.365  0.9426  0.2097  0.5905
18793TIP3   OH277793   0.888   2.040  13.275  0.5962  0.3888  0.1250
18793TIP3    H177794   0.864   1.977  13.343  0.8345 -1.4049 -1.3514
18793TIP3    H277795   0.958   1.997  13.226 -0.0058  1.2868 -1.6431
18794TIP3   OH277796   2.747   6.647  14.873 -0.1033 -0.5128 -0.1624
18794TIP3    H177797   2.823   6.665  14.819  1.9286  0.0963  2.6770
18794TIP3    H277798   2.748   6.552  14.885  0.5624 -0.4607  0.2698
18795TIP3   OH277799   0.615   3.560   4.601  0.6207 -0.6327 -0.3988
18795TIP3    H177800   0.598   3.565   4.695  0.9901  1.4349 -0.3933
18795TIP3    H277801   0.701   3.520   4.594 -0.4846 -3.2417 -0.0293
18796TIP3   OH277802   2.258   4.195   3.574 -0.3177 -0.5945  0.0896
18796TIP3    H177803   2.346   4.207   3.608  1.0248 -2.1111 -2.5590
18796TIP3    H277804   2.218   4.282   3.579  1.8259  0.4402  0.0250
18797TIP3   OH277805   5.729   4.235  17.172 -0.3911  0.2707  0.0314
18797TIP3    H177806   5.716   4.140  17.168 -1.6806  0.3748  1.0351
18797TIP3    H277807   5.810   4.250  17.124 -1.0119 -1.1529 -1.5717
18798TIP3   OH277808   1.510   1.283  14.278 -0.4430 -0.5001 -0.1501
18798TIP3    H177809   1.499   1.206  14.334 -0.9396 -0.5196 -0.2678
18798TIP3    H277810   1.600   1.277  14.246 -0.1828 -0.5341  0.5702
18799TIP3   OH277811   3.684   2.678  12.243  0.5880 -0.0165 -0.3184
18799TIP3    H177812   3.644   2.693  12.329  0.4756  2.4120 -0.7204
18799TIP3    H277813   3.778   2.684  12.258  0.5893 -0.1297 -0.2802
18800TIP3   OH277814   4.117   4.010   2.085  0.2183  0.0176  0.1865
18800TIP3    H177815   4.212   4.005   2.096  0.1246  0.0993  1.1185
18800TIP3    H277816   4.104   4.041   1.995  1.0790  0.3418  0.1700
18801TIP3   OH277817   4.633   3.755   3.355  0.3977  0.8072  0.0202
18801TIP3    H177818   4.665   3.768   3.266  0.5287 -0.1410 -0.0799
18801TIP3    H277819   4.687   3.814   3.409 -0.1399  1.8922 -0.5943
18802TIP3   OH277820   4.103   4.143  15.390 -0.1936 -0.2765 -0.1015
18802TIP3    H177821   4.187   4.188  15.392 -1.0344  1.3806 -0.4110
18802TIP3    H277822   4.051   4.191  15.325 -1.7105 -0.6167  0.8084
18803TIP3   OH277823   6.713   3.755  14.010 -0.3325 -0.1887  0.3824
18803TIP3    H177824   6.657   3.697  14.061 -1.5384  0.9001  0.3546
18803TIP3    H277825   6.655   3.792  13.944  0.3014  1.2984  0.6167
18804TIP3   OH277826   5.094   3.722   1.137  0.4029 -0.2900  0.0512
18804TIP3    H177827   5.077   3.643   1.085  0.3423 -0.1723 -0.1085
18804TIP3    H277828   5.177   3.756   1.103  0.1690  0.0035 -0.2391
18805TIP3   OH277829   1.149   5.248   4.196 -0.2152 -0.1764  0.3522
18805TIP3    H177830   1.216   5.217   4.257  0.2765 -1.1247 -0.6501
18805TIP3    H277831   1.135   5.340   4.221  1.6541  0.1181  0.4088
18806TIP3   OH277832   3.100   3.125  10.936  0.2044 -0.0220 -0.1817
18806TIP3    H177833   3.109   3.182  10.859 -1.3673 -0.9001 -1.0815
18806TIP3    H277834   3.015   3.149  10.974  0.5401 -0.2493  0.7365
18807TIP3   OH277835   3.509   1.737   4.417 -0.3310 -0.5418  0.5286
18807TIP3    H177836   3.512   1.726   4.322 -1.4741 -2.0417  0.6451
18807TIP3    H277837   3.573   1.807   4.434 -0.6829  0.3290 -1.4057
18808TIP3   OH277838   1.087   3.257   2.721 -0.1289  0.6524  0.6333
18808TIP3    H177839   1.063   3.285   2.809  0.0834  0.3803  0.7763
18808TIP3    H277840   1.069   3.163   2.719 -1.6108  0.9211 -0.0979
18809TIP3   OH277841   5.277   0.776   3.816 -0.2914  0.0133 -0.2562
18809TIP3    H177842   5.232   0.855   3.788  1.5255  1.4459  0.6059
18809TIP3    H277843   5.354   0.770   3.758  1.2467  0.6719  1.6120
18810TIP3   OH277844   6.172   6.103  11.161  0.1380 -0.0681  0.3337
18810TIP3    H177845   6.121   6.072  11.085 -1.4875  1.1458  0.8815
18810TIP3    H277846   6.204   6.189  11.135  0.5761 -0.1495  0.5953
18811TIP3   OH277847   4.153   1.975  11.975 -0.1170 -0.6495  0.6734
18811TIP3    H177848   4.230   2.021  12.010 -1.7631  1.6932  1.4900
18811TIP3    H277849   4.174   1.882  11.985  1.7127 -0.0977  2.9824
18812TIP3   OH277850   3.104   2.613  15.361 -0.9043  0.0732  0.4075
18812TIP3    H177851   3.028   2.631  15.416 -2.0716  0.7642 -1.3274
18812TIP3    H277852   3.108   2.688  15.302  1.6636  0.4643  0.9811
18813TIP3   OH277853   5.354   2.890   0.404 -0.0558  0.3716  0.0794
18813TIP3    H177854   5.424   2.938   0.361  0.3562 -0.0798  0.2420
18813TIP3    H277855   5.280   2.896   0.344  0.6087 -0.5510 -0.8590
18814TIP3   OH277856   6.072   4.191  12.229 -0.5431  0.4848  0.5589
18814TIP3    H177857   6.010   4.175  12.158  1.2174 -0.4215 -0.8503
18814TIP3    H277858   6.046   4.131  12.299  0.1936 -1.7781 -0.9917
18815TIP3   OH277859   1.367   1.501   4.062  0.0749 -0.0060 -0.4808
18815TIP3    H177860   1.345   1.490   4.155  0.1479 -0.0138 -0.4644
18815TIP3    H277861   1.439   1.564   4.063  0.3481 -0.3167 -0.5070
18816TIP3   OH277862   3.998   1.856   5.768  0.1574 -0.0560  0.2390
18816TIP3    H177863   4.082   1.901   5.761  0.0654  0.4772  1.8901
18816TIP3    H277864   4.018   1.775   5.815  0.1194 -1.1733 -1.6137
18817TIP3   OH277865   5.054   2.794   2.066  0.4308  0.3324  0.3260
18817TIP3    H177866   4.992   2.847   2.016  1.6530  0.9802 -0.5544
18817TIP3    H277867   5.015   2.706   2.069  0.0763  0.4164 -1.3110
18818TIP3   OH277868   1.162   3.777   5.098 -0.1240 -0.1133 -0.1090
18818TIP3    H177869   1.109   3.710   5.053 -0.2691  0.2481 -0.4800
18818TIP3    H277870   1.145   3.762   5.191 -0.0875 -0.6494 -0.1855
18819TIP3   OH277871   0.327   0.396   2.247 -0.0956 -0.3154 -0.3336
18819TIP3    H177872   0.239   0.403   2.211  0.4174 -1.5231 -1.8998
18819TIP3    H277873   0.315   0.345   2.328 -0.6837 -1.5865 -1.1959
18820TIP3   OH277874   3.223   5.248  14.172 -0.2142  0.1597 -0.0768
18820TIP3    H177875   3.234   5.153  14.179  0.5433  0.1184 -1.5059
18820TIP3    H277876   3.203   5.276  14.261 -1.1767 -1.4257  0.2559
18821TIP3   OH277877   3.874   3.069   3.279 -0.7947 -0.1043  0.1701
18821TIP3    H177878   3.869   3.081   3.184  0.1403  0.6388  0.2014
18821TIP3    H277879   3.782   3.065   3.307 -1.0866  0.2059 -0.7058
18822TIP3   OH277880   3.718   2.028  16.285  0.3469  0.2932  0.0709
18822TIP3    H177881   3.699   1.934  16.279  1.6925  0.0010  0.1477
18822TIP3    H277882   3.648   2.063  16.340 -0.0943 -0.6775  0.1519
18823TIP3   OH277883   0.838   4.476  17.395  0.7606 -0.2456  0.2709
18823TIP3    H177884   0.901   4.547  17.386 -1.7504  1.9244 -1.8914
18823TIP3    H277885   0.807   4.482  17.486 -0.5340  2.5688 -0.2710
18824TIP3   OH277886   5.454   3.731   2.496  0.4871  0.0617 -0.4005
18824TIP3    H177887   5.494   3.702   2.413  1.0901 -2.4953  0.6927
18824TIP3    H277888   5.383   3.788   2.469 -0.8045 -2.4721 -2.8692
18825TIP3   OH277889   0.842   0.259   5.541  0.1738  0.3984 -0.4384
18825TIP3    H177890   0.883   0.186   5.495 -0.4729  0.9867 -2.0288
18825TIP3    H277891   0.772   0.288   5.482 -0.2537  1.6379  0.6264
18826TIP3   OH277892   2.199   2.887   1.512  0.3579  1.0274  0.8468
18826TIP3    H177893   2.241   2.810   1.549 -0.1498  0.1299 -0.3580
18826TIP3    H277894   2.271   2.947   1.494  0.8816  0.4272  0.8837
18827TIP3   OH277895   3.248   3.782   5.340 -0.0055 -0.0998  0.6229
18827TIP3    H177896   3.182   3.716   5.320  0.4127 -0.7342  1.3105
18827TIP3    H277897   3.321   3.733   5.377  1.2487  0.4753 -0.9762
18828TIP3   OH277898   6.122   5.143  14.149  0.5195 -0.0010  0.2827
18828TIP3    H177899   6.166   5.111  14.228 -1.8022 -0.6838  1.3970
18828TIP3    H277900   6.032   5.158  14.176 -0.3477 -0.1509 -2.2249
18829TIP3   OH277901   1.865   0.253   5.761  0.8847  0.2509  0.1278
18829TIP3    H177902   1.900   0.327   5.712  0.4169 -0.1489 -0.8331
18829TIP3    H277903   1.855   0.286   5.851  0.4499  1.4131 -0.3330
18830TIP3   OH277904   2.936   1.533  13.032 -0.2247 -0.4399 -0.1138
18830TIP3    H177905   2.890   1.571  13.107  0.9145 -1.2054  1.0058
18830TIP3    H277906   2.902   1.581  12.957  0.8122  2.5538  1.1498
18831TIP3   OH277907   0.629   5.295  15.781 -0.7474  0.3293 -0.5406
18831TIP3    H177908   0.547   5.313  15.734 -1.4224 -0.0209  0.4531
18831TIP3    H277909   0.616   5.208  15.818  0.2304  0.1200 -0.6645
18832TIP3   OH277910   3.996   0.683   4.104  0.7702  0.1918  0.2457
18832TIP3    H177911   4.072   0.740   4.094 -0.3513  1.6862 -0.1329
18832TIP3    H277912   3.935   0.713   4.036  0.0894 -1.3954  0.1136
18833TIP3   OH277913   2.577   3.398  14.419 -0.1679 -0.2141  0.5062
18833TIP3    H177914   2.649   3.368  14.363  0.6676  1.9313  0.3588
18833TIP3    H277915   2.512   3.328  14.412  0.8670 -1.0861 -1.3056
18834TIP3   OH277916   5.110   2.801  11.497 -0.1998  0.4444  0.0859
18834TIP3    H177917   5.160   2.758  11.428  1.0442  0.8399  0.7114
18834TIP3    H277918   5.082   2.884  11.459 -0.8788 -0.0176 -0.4496
18835TIP3   OH277919   5.179   6.522   1.499  0.2530  0.3126 -0.1734
18835TIP3    H177920   5.271   6.500   1.513  0.1929  0.8642  1.2620
18835TIP3    H277921   5.131   6.460   1.555 -0.0816  1.7666  1.2313
18836TIP3   OH277922   6.643   0.257  14.554 -0.2501  0.3629  0.0878
18836TIP3    H177923   6.664   0.272  14.462 -1.4558 -2.5008 -0.7624
18836TIP3    H277924   6.723   0.220  14.591 -0.0039  0.8106  0.0137
18837TIP3   OH277925   6.557   3.457   5.076 -0.6712 -0.0657  0.7255
18837TIP3    H177926   6.629   3.428   5.021 -0.5282  0.1966  0.7729
18837TIP3    H277927   6.591   3.534   5.122  0.2751 -1.9814  3.4839
18838TIP3   OH277928   4.846   6.622  12.487  0.0168  0.2062 -0.0603
18838TIP3    H177929   4.870   6.582  12.570  0.3373 -0.0006 -0.2468
18838TIP3    H277930   4.836   6.715  12.507  1.6512  0.4233 -0.0850
18839TIP3   OH277931   6.699   1.944  13.864  0.3680 -0.3988 -0.1251
18839TIP3    H177932   6.709   2.032  13.900  1.4550 -1.0482  1.2284
18839TIP3    H277933   6.612   1.916  13.891  0.1929  0.0737 -0.1853
18840TIP3   OH277934   5.794   4.827  13.856  0.5976  0.4354  0.0658
18840TIP3    H177935   5.732   4.899  13.848 -1.8947 -1.3102  2.0013
18840TIP3    H277936   5.777   4.772  13.779 -1.1453 -0.5876  1.1269
18841TIP3   OH277937   0.721   1.352   1.954  0.2697  0.4821  0.4467
18841TIP3    H177938   0.741   1.364   2.046 -0.6195  0.7729  0.6128
18841TIP3    H277939   0.780   1.282   1.925  0.3163  0.1523  1.3138
18842TIP3   OH277940   5.267   0.410   0.638  0.4169  0.1641 -0.3818
18842TIP3    H177941   5.171   0.412   0.640  0.3965  2.7136 -0.2989
18842TIP3    H277942   5.289   0.317   0.632 -2.0115 -0.5945  0.9873
18843TIP3   OH277943   0.387   3.973   4.002 -0.2633  0.0463  0.3145
18843TIP3    H177944   0.376   4.019   3.919 -1.2470 -2.3097 -0.9607
18843TIP3    H277945   0.481   3.964   4.012 -0.1370 -0.3813 -1.0265
18844TIP3   OH277946   1.308   3.238  15.635  0.0425 -0.7588 -0.3326
18844TIP3    H177947   1.380   3.223  15.696  0.9757 -0.0831 -1.2261
18844TIP3    H277948   1.346   3.293  15.567 -1.8110  1.1706  0.1007
18845TIP3   OH277949   0.221   1.816   2.754  0.6277  0.6122 -0.5829
18845TIP3    H177950   0.223   1.725   2.784 -0.3120  0.8641  0.2987
18845TIP3    H277951   0.312   1.839   2.739  1.0656  0.1713  1.2252
18846TIP3   OH277952   3.128   3.386  11.359  0.2818  0.0037 -0.0411
18846TIP3    H177953   3.143   3.384  11.265 -0.5381  3.5055 -0.3945
18846TIP3    H277954   3.034   3.377  11.369  0.3978 -0.7083  0.5043
18847TIP3   OH277955   3.371   1.489  13.248 -0.2331 -0.4953  0.1557
18847TIP3    H177956   3.452   1.499  13.198  0.0270 -1.3942  0.3748
18847TIP3    H277957   3.305   1.468  13.183 -0.3274  0.4166 -0.0440
18848TIP3   OH277958   6.738   4.762   0.458  0.0700  0.2690 -0.3042
18848TIP3    H177959   6.683   4.697   0.414  1.7526 -0.7932 -0.9306
18848TIP3    H277960   6.777   4.714   0.532 -0.0882  1.0947  0.3288
18849TIP3   OH277961   0.731   3.481   5.190 -0.0347 -0.1982 -0.2971
18849TIP3    H177962   0.729   3.559   5.244 -0.0346  0.6683 -1.5050
18849TIP3    H277963   0.788   3.420   5.237  0.4324  0.7489  0.3782
18850TIP3   OH277964   2.183   3.867   0.422 -0.0785 -0.3585  0.6505
18850TIP3    H177965   2.149   3.778   0.426  1.3378 -1.0226 -0.8857
18850TIP3    H277966   2.214   3.885   0.510 -0.0176 -1.5351  0.8813
18851TIP3   OH277967   1.714   0.125   1.044 -0.4424 -0.3334  0.2108
18851TIP3    H177968   1.766   0.141   1.123 -0.0442  3.6695 -0.6622
18851TIP3    H277969   1.652   0.198   1.040  0.9668  0.9787 -4.1649
18852TIP3   OH277970   4.276   3.161  14.436 -0.5806  0.1940  0.0501
18852TIP3    H177971   4.360   3.204  14.454 -2.3213  2.8015  3.1223
18852TIP3    H277972   4.290   3.113  14.355  3.6050  1.1506 -0.0059
18853TIP3   OH277973   4.018   4.292  15.174  0.1461  0.1152  0.6441
18853TIP3    H177974   3.998   4.381  15.202  0.0680  0.0485  0.8036
18853TIP3    H277975   4.065   4.302  15.092 -0.5810  0.2814  0.2337
18854TIP3   OH277976   2.711   4.396   2.482 -0.4589 -0.0870  0.3685
18854TIP3    H177977   2.628   4.393   2.433 -0.1563 -4.6829 -0.3312
18854TIP3    H277978   2.775   4.427   2.418 -1.0098 -0.5519 -0.4330
18855TIP3   OH277979   5.296   5.670  15.009  0.2038  0.3699 -0.7684
18855TIP3    H177980   5.372   5.655  14.953 -0.0347 -0.0206 -0.9904
18855TIP3    H277981   5.331   5.673  15.098  0.3345 -0.9323 -0.7633
18856TIP3   OH277982   5.083   2.611  11.852  0.3853  0.4357  0.2491
18856TIP3    H177983   5.056   2.640  11.939  1.5541 -1.0249  1.1456
18856TIP3    H277984   5.132   2.530  11.867 -0.3183 -0.4658 -1.8797
18857TIP3   OH277985   2.763   5.815  13.032  0.0485  0.4618 -0.7427
18857TIP3    H177986   2.722   5.857  12.956  0.7389  1.3359 -0.6492
18857TIP3    H277987   2.745   5.722  13.020 -0.8749  0.6988 -1.3535
18858TIP3   OH277988   0.594   5.142   1.524 -0.5689  0.2436 -0.0581
18858TIP3    H177989   0.683   5.156   1.491  0.2387  0.4183  2.0389
18858TIP3    H277990   0.537   5.182   1.459  0.9650  1.2726 -0.8194
18859TIP3   OH277991   1.276   5.499   2.805 -0.4834  0.1877 -0.6149
18859TIP3    H177992   1.313   5.547   2.879 -2.1378  0.4132  0.1262
18859TIP3    H277993   1.348   5.447   2.770 -0.0619 -1.4378  2.3750
18860TIP3   OH277994   6.568   1.658   0.179  0.0412 -0.0762  0.0050
18860TIP3    H177995   6.530   1.662   0.267 -1.2160  0.0191 -0.5222
18860TIP3    H277996   6.662   1.655   0.194 -0.1377  0.2934  1.3459
18861TIP3   OH277997   4.135   1.336   0.029  0.4438 -0.5071 -0.2550
18861TIP3    H177998   4.098   1.405   0.084 -0.0288 -0.1845 -0.9571
18861TIP3    H277999   4.218   1.314   0.071  0.1902 -0.1320  0.4705
18862TIP3   OH278000   3.188   4.288   4.686  1.4780  0.1332  0.1495
18862TIP3    H178001   3.147   4.277   4.600 -0.1080  1.1890  0.7383
18862TIP3    H278002   3.226   4.202   4.705 -0.5837 -0.9659 -0.3767
18863TIP3   OH278003   5.958   3.420   3.955  0.2860  0.5671 -0.3031
18863TIP3    H178004   6.052   3.428   3.944  0.2505  0.9407 -0.3470
18863TIP3    H278005   5.940   3.460   4.040 -0.0297  1.9461 -1.0020
18864TIP3   OH278006   1.062   6.153  10.334 -0.0846  0.1536  0.4375
18864TIP3    H178007   1.087   6.246  10.327 -2.3909  0.8072  0.0620
18864TIP3    H278008   1.099   6.125  10.418  0.6598  1.4067  0.5544
18865TIP3   OH278009   6.564   0.308   1.873 -1.1845 -0.1910  0.5661
18865TIP3    H178010   6.515   0.269   1.801  1.0779 -0.6310 -0.8279
18865TIP3    H278011   6.567   0.402   1.852 -0.5940 -0.3076  0.1215
18866TIP3   OH278012   1.560   1.651   0.893 -0.0196  0.7867  0.2478
18866TIP3    H178013   1.519   1.738   0.895  1.5488  1.5646  0.8469
18866TIP3    H278014   1.512   1.600   0.958  1.1309  2.2810  2.4060
18867TIP3   OH278015   0.906   2.710  16.814  0.0605 -0.0964  0.1632
18867TIP3    H178016   0.819   2.677  16.788  0.4861 -0.1780 -1.2049
18867TIP3    H278017   0.959   2.703  16.735  1.3616 -0.1473  1.0104
18868TIP3   OH278018   4.349   0.600   6.497 -0.0768 -0.1785 -0.5070
18868TIP3    H178019   4.319   0.646   6.576  0.4930 -1.2446  0.3550
18868TIP3    H278020   4.268   0.567   6.457 -0.2143 -2.2644  1.3163
18869TIP3   OH278021   5.088   3.922  16.414  0.2814  0.3080 -0.1178
18869TIP3    H178022   5.002   3.884  16.432  0.4448  0.1676  0.3879
18869TIP3    H278023   5.085   3.945  16.321  0.2783 -1.2243 -0.5365
18870TIP3   OH278024   4.642   1.269   5.477 -0.3814 -0.6381  0.0818
18870TIP3    H178025   4.588   1.224   5.411  0.3516 -1.9313  0.3248
18870TIP3    H278026   4.648   1.207   5.549  1.5168 -0.5976  0.0050
18871TIP3   OH278027   6.043   4.144   0.681 -0.2244  0.4135  0.7258
18871TIP3    H178028   6.132   4.107   0.687  1.2187  2.5464 -3.5663
18871TIP3    H278029   5.986   4.067   0.675  1.7869 -1.1164 -0.3894
18872TIP3   OH278030   5.296   2.818   6.652 -0.2465  0.3433 -0.5165
18872TIP3    H178031   5.357   2.756   6.611 -0.8966 -1.4691  1.0973
18872TIP3    H278032   5.234   2.840   6.582 -0.3194 -1.3039 -1.0250
18873TIP3   OH278033   0.966   4.797  11.382  0.2843  0.4297  0.1969
18873TIP3    H178034   1.009   4.778  11.466  1.7774  0.6485 -0.4955
18873TIP3    H278035   0.922   4.716  11.359  1.5430 -0.2919  0.2280
18874TIP3   OH278036   1.303   5.076   3.680  0.1324  0.4987 -0.1305
18874TIP3    H178037   1.212   5.049   3.670  0.8185 -1.4985 -1.9396
18874TIP3    H278038   1.316   5.086   3.774 -1.8442  0.5425  0.1789
18875TIP3   OH278039   6.336   6.370   0.054  0.0103  0.3340 -0.2416
18875TIP3    H178040   6.247   6.405   0.062  0.2860  1.0210 -0.1447
18875TIP3    H278041   6.390   6.431   0.104  0.5275 -0.1249 -0.2369
18876TIP3   OH278042   5.610   0.622  12.654 -0.0036 -0.0135 -0.0063
18876TIP3    H178043   5.663   0.688  12.698 -0.1752  0.6083 -0.7118
18876TIP3    H278044   5.669   0.581  12.591  0.0940 -0.5184  0.4091
18877TIP3   OH278045   0.123   1.363   5.313 -0.1404 -0.3317 -0.3277
18877TIP3    H178046   0.177   1.355   5.235 -0.6868  0.8016 -0.8412
18877TIP3    H278047   0.111   1.458   5.325 -0.6249 -0.5072  0.7332
18878TIP3   OH278048   0.322   6.580   2.415 -0.7307  1.1058 -0.6931
18878TIP3    H178049   0.257   6.541   2.473 -1.6564  3.3251 -0.1433
18878TIP3    H278050   0.297   6.550   2.328  0.4608 -1.9793 -0.0970
18879TIP3   OH278051   6.608   4.366   1.804  0.0516 -0.0237  0.1559
18879TIP3    H178052   6.635   4.368   1.711  2.1109 -1.0774  0.6638
18879TIP3    H278053   6.657   4.438   1.844  0.7642 -0.8314  0.7779
18880TIP3   OH278054   4.011   6.191  13.923  0.0369 -0.4469 -0.4916
18880TIP3    H178055   3.998   6.120  13.861  0.8860 -0.5376 -0.5792
18880TIP3    H278056   4.080   6.245  13.883 -0.2555  0.1573 -0.1990
18881TIP3   OH278057   0.533   4.098  15.821 -0.1816  0.1351  0.3389
18881TIP3    H178058   0.587   4.166  15.780  0.3653 -1.7962 -2.4885
18881TIP3    H278059   0.443   4.120  15.796 -0.3210  1.2327  1.7291
18882TIP3   OH278060   2.688   2.427  15.186 -0.5502 -0.2939  0.3763
18882TIP3    H178061   2.763   2.372  15.208 -0.9263 -1.3341 -0.8646
18882TIP3    H278062   2.634   2.373  15.129 -2.3873  0.3314  1.4245
18883TIP3   OH278063   6.519   3.795   3.354  0.1151 -0.1202 -0.1092
18883TIP3    H178064   6.434   3.752   3.346  0.6582 -1.3861  0.6929
18883TIP3    H278065   6.503   3.872   3.407 -0.2905 -1.1546  1.3233
18884TIP3   OH278066   3.094   2.843  15.201 -0.3081 -1.0185 -0.2467
18884TIP3    H178067   3.157   2.905  15.239 -1.1832 -0.3893  0.2092
18884TIP3    H278068   3.135   2.815  15.119  0.9478 -1.2746  0.4355
18885TIP3   OH278069   6.509   2.516  12.675 -0.2592 -0.2671 -0.2456
18885TIP3    H178070   6.426   2.470  12.689 -0.8296  0.8845  0.2576
18885TIP3    H278071   6.485   2.595  12.627  0.4908  0.2647  0.2335
18886TIP3   OH278072   4.141   6.326   1.985 -0.0881 -0.1018 -0.3814
18886TIP3    H178073   4.071   6.264   2.005  0.4157 -0.6843 -0.3873
18886TIP3    H278074   4.101   6.390   1.926 -0.7974 -0.0292  0.1728
18887TIP3   OH278075   1.576   3.530  16.363  0.1994  0.0568 -0.3484
18887TIP3    H178076   1.578   3.444  16.404 -3.2880  0.1572  0.2812
18887TIP3    H278077   1.558   3.512  16.271 -1.6545  0.0741 -0.0224
18888TIP3   OH278078   0.279   3.343  16.094 -0.3753  0.0719 -0.2461
18888TIP3    H178079   0.293   3.276  16.161 -1.7768  0.4077  0.4253
18888TIP3    H278080   0.187   3.366  16.103 -0.1837  1.2924 -1.2220
18889TIP3   OH278081   0.328   2.628   2.186 -0.1313  0.4574  0.1161
18889TIP3    H178082   0.312   2.620   2.092 -2.1012 -1.2322  0.5186
18889TIP3    H278083   0.341   2.538   2.216 -0.4428  0.8736  1.6065
18890TIP3   OH278084   3.133   5.374   2.432  0.5136 -0.3273 -0.1362
18890TIP3    H178085   3.069   5.304   2.420  1.1153 -1.1122  0.9576
18890TIP3    H278086   3.150   5.407   2.344 -0.4840 -0.9283 -0.5689
18891TIP3   OH278087   4.706   5.263  14.308 -0.2102  0.0326 -0.2507
18891TIP3    H178088   4.646   5.199  14.347 -1.3531  0.8825 -0.5531
18891TIP3    H278089   4.697   5.341  14.364  0.4333  0.2517 -0.4445
18892TIP3   OH278090   3.382   1.039   2.457 -0.1275  0.6446 -0.0061
18892TIP3    H178091   3.390   1.124   2.416  0.7584  1.1640  1.1638
18892TIP3    H278092   3.379   0.977   2.385 -1.2882  1.6903 -0.8859
18893TIP3   OH278093   0.243   1.899  11.922  0.3558 -0.2407 -0.0900
18893TIP3    H178094   0.249   1.885  12.016 -0.7664  0.9822  0.1852
18893TIP3    H278095   0.212   1.815  11.887 -0.4546 -0.3262  0.7875
18894TIP3   OH278096   5.669   6.545  14.429  0.2147 -0.3803  0.2772
18894TIP3    H178097   5.724   6.499  14.365  2.3287  1.1623  0.8751
18894TIP3    H278098   5.655   6.632  14.390  0.1778  0.0231  1.1664
18895TIP3   OH278099   6.457   5.264   1.884 -0.0227  0.7465  0.0223
18895TIP3    H178100   6.440   5.351   1.920  2.4743  1.7935 -1.1069
18895TIP3    H278101   6.499   5.216   1.955  1.9252  1.7322 -0.4018
18896TIP3   OH278102   2.014   0.112  13.864 -0.1681  0.1406  0.3508
18896TIP3    H178103   2.071   0.183  13.836 -1.1610  1.6396  1.9326
18896TIP3    H278104   2.073   0.038  13.876  1.0576  0.9608 -0.3471
18897TIP3   OH278105   2.547   2.330   0.608  0.4336 -0.0822  0.1922
18897TIP3    H178106   2.614   2.333   0.676  0.9858  0.6837 -0.3884
18897TIP3    H278107   2.534   2.236   0.592  1.8650 -0.2316 -0.1896
18898TIP3   OH278108   6.538   4.473  16.354 -0.4100 -0.1297  0.5804
18898TIP3    H178109   6.484   4.437  16.425 -2.1283  0.4218 -0.3925
18898TIP3    H278110   6.570   4.395  16.307 -1.4602 -0.4707  0.3955
18899TIP3   OH278111   5.095   2.406  16.470 -0.0165 -0.7107  0.0181
18899TIP3    H178112   5.153   2.432  16.542 -2.2976 -0.9987  2.1042
18899TIP3    H278113   5.045   2.333  16.506 -1.2001 -0.8947 -1.9161
18900TIP3   OH278114   1.708   2.738  16.243  0.3001  0.0536  0.3946
18900TIP3    H178115   1.725   2.784  16.325  2.3384  0.3094 -0.1291
18900TIP3    H278116   1.790   2.692  16.223  0.0010  0.3387 -1.7117
18901TIP3   OH278117   0.392   4.840  13.850 -0.1931  0.1066 -0.1186
18901TIP3    H178118   0.314   4.821  13.903 -0.5166 -0.0273 -0.6371
18901TIP3    H278119   0.448   4.763  13.861  0.9508  1.1626  2.1414
18902TIP3   OH278120   5.405   1.441  15.408 -0.0546  0.3507 -0.6752
18902TIP3    H178121   5.403   1.432  15.313  0.2902  1.3775 -0.7889
18902TIP3    H278122   5.490   1.405  15.434 -1.0556 -2.0414 -0.4929
18903TIP3   OH278123   3.423   0.047   4.803  0.0310  0.2950 -0.2763
18903TIP3    H178124   3.347  -0.008   4.785 -0.2869  0.8921 -0.7382
18903TIP3    H278125   3.445   0.028   4.895 -2.0407  1.7746  0.5898
18904TIP3   OH278126   6.394   4.146   1.097 -0.1135 -0.8516 -0.2077
18904TIP3    H178127   6.445   4.073   1.062  0.5765 -1.0294  1.0956
18904TIP3    H278128   6.303   4.123   1.077 -0.0716 -2.9192  1.5643
18905TIP3   OH278129   2.984   0.494  14.983  0.0690 -0.9838 -0.5615
18905TIP3    H178130   2.913   0.509  14.920 -1.0010  1.9998  1.1339
18905TIP3    H278131   2.947   0.434  15.047 -1.4164  1.2807  0.8301
18906TIP3   OH278132   4.429   5.302  14.650  0.2779  0.3379 -0.2864
18906TIP3    H178133   4.476   5.241  14.592  0.2745  0.4525 -0.4093
18906TIP3    H278134   4.413   5.379  14.596  1.5246  1.0202  0.2866
18907TIP3   OH278135   1.379   4.485  15.079  0.1127  0.4115 -0.8782
18907TIP3    H178136   1.321   4.543  15.129 -1.7830 -0.6118 -1.7579
18907TIP3    H278137   1.412   4.539  15.007  0.7171  1.1648 -0.0525
18908TIP3   OH278138   1.504   1.470   1.564  0.4422  0.3731 -0.0461
18908TIP3    H178139   1.504   1.445   1.657 -1.2643 -0.3651 -0.1989
18908TIP3    H278140   1.487   1.388   1.518  1.4455  0.7041 -1.0496
18909TIP3   OH278141   3.464   4.136  13.643 -0.2442 -0.4071 -0.1302
18909TIP3    H178142   3.382   4.096  13.671 -0.5104 -0.2961 -0.7329
18909TIP3    H278143   3.493   4.187  13.719 -0.5052 -0.7894  0.2332
18910TIP3   OH278144   3.534   3.853  16.511 -0.2173  0.4661  0.6216
18910TIP3    H178145   3.448   3.888  16.535  0.1074  2.0604 -0.4225
18910TIP3    H278146   3.518   3.803  16.431 -0.2669  0.2152  0.7851
18911TIP3   OH278147   1.615   1.651  13.120 -0.3898  0.2061 -0.0596
18911TIP3    H178148   1.537   1.614  13.078 -0.7357  1.1064 -0.2407
18911TIP3    H278149   1.580   1.707  13.190  0.1348 -0.1519  0.4997
18912TIP3   OH278150   3.317   0.741  16.517  0.6547  0.0840 -0.2126
18912TIP3    H178151   3.312   0.647  16.499 -1.5844  0.3327 -1.3379
18912TIP3    H278152   3.408   0.757  16.539  0.8212 -2.5898  1.5110
18913TIP3   OH278153   4.834   0.104   0.646  0.1618 -0.0468 -0.0930
18913TIP3    H178154   4.806   0.196   0.655  0.0751 -0.0858  0.0381
18913TIP3    H278155   4.775   0.056   0.704  0.0365 -0.2178 -0.3623
18914TIP3   OH278156   1.796   4.436   5.333  0.8489  0.4417  0.0905
18914TIP3    H178157   1.751   4.351   5.330 -1.3844  1.5863 -1.0717
18914TIP3    H278158   1.783   4.466   5.423 -2.5380  1.5602 -0.6285
18915TIP3   OH278159   0.235   6.605  13.290  0.1257 -0.1807 -0.6824
18915TIP3    H178160   0.264   6.648  13.371  0.1329 -1.9461  0.3082
18915TIP3    H278161   0.315   6.596  13.238  0.2135  0.5194 -0.6746
18916TIP3   OH278162   4.547   1.394  14.716 -0.5117 -0.0719  0.0447
18916TIP3    H178163   4.577   1.305  14.738 -0.7486 -0.8105 -2.3478
18916TIP3    H278164   4.621   1.450  14.738 -0.6540 -0.6993  2.3776
18917TIP3   OH278165   0.903   3.364  15.555  0.1083 -0.0913  0.1179
18917TIP3    H178166   0.830   3.317  15.595  0.3188 -1.6494 -1.1986
18917TIP3    H278167   0.876   3.375  15.464  0.6702  1.1454  0.0907
18918TIP3   OH278168   4.778   0.707  15.485  0.4668  0.0933  0.0985
18918TIP3    H178169   4.769   0.718  15.390 -0.7068 -1.5504 -0.0248
18918TIP3    H278170   4.855   0.652  15.496  0.5948  0.2724  0.0973
18919TIP3   OH278171   0.590   2.678  11.023 -0.5655 -0.3093 -0.4737
18919TIP3    H178172   0.660   2.615  11.005 -1.3225 -1.9462  1.9050
18919TIP3    H278173   0.510   2.627  11.022 -1.2638  0.6763  0.9285
18920TIP3   OH278174   1.746   4.455   5.612  0.2846 -0.5670  0.1652
18920TIP3    H178175   1.787   4.372   5.636  1.1291 -0.0102  0.6936
18920TIP3    H278176   1.653   4.435   5.607  0.5721 -1.8093 -0.8355
18921TIP3   OH278177   1.258   2.954   3.294 -0.1816  0.2798 -0.1551
18921TIP3    H178178   1.345   2.942   3.331  0.2960  2.4600 -0.4494
18921TIP3    H278179   1.271   3.010   3.218 -1.4463 -2.1219 -2.3153
18922TIP3   OH278180   6.632   2.618  14.862 -0.3542 -0.0838  0.1175
18922TIP3    H178181   6.644   2.540  14.808  1.2125 -0.0372  0.3463
18922TIP3    H278182   6.717   2.630  14.907 -0.7825  1.3408  0.6230
18923TIP3   OH278183   2.979   1.644   3.201  0.4545  0.3742 -0.3444
18923TIP3    H178184   2.903   1.653   3.143  1.5405 -2.1213 -2.3598
18923TIP3    H278185   3.047   1.697   3.159  0.8638 -0.3914 -0.6768
18924TIP3   OH278186   0.591   3.338  16.810 -0.0184 -0.3294 -0.0164
18924TIP3    H178187   0.593   3.378  16.723 -1.7907  0.4654  0.2697
18924TIP3    H278188   0.537   3.261  16.800  0.4012 -0.6621  0.2302
18925TIP3   OH278189   1.606   5.124  17.111  0.3789  0.0523 -0.7533
18925TIP3    H178190   1.596   5.218  17.126  1.4947  0.3693 -1.7815
18925TIP3    H278191   1.561   5.083  17.185 -0.1330  1.3863 -0.2858
18926TIP3   OH278192   4.751   1.475  11.319 -0.4169  0.6386 -0.1599
18926TIP3    H178193   4.797   1.548  11.278 -1.4895  1.5919  0.2704
18926TIP3    H278194   4.677   1.456  11.261 -1.5531  1.5544  0.9122
18927TIP3   OH278195   3.229   0.194   2.655  0.2229 -0.0268  0.1175
18927TIP3    H178196   3.274   0.278   2.657  0.0220  0.0732  0.5494
18927TIP3    H278197   3.140   0.213   2.684  0.1551 -0.3739  0.1481
18928TIP3   OH278198   1.609   3.568  14.755 -0.9043 -0.2231  0.4292
18928TIP3    H178199   1.661   3.491  14.732  1.1583  0.7199  1.6209
18928TIP3    H278200   1.599   3.616  14.673  2.8720  1.0953  0.5232
18929TIP3   OH278201   4.162   2.564   5.292 -0.0213  0.4879 -0.1960
18929TIP3    H178202   4.078   2.609   5.284 -0.0571  0.1898 -1.6035
18929TIP3    H278203   4.203   2.605   5.369 -2.7031 -1.4710  2.5368
18930TIP3   OH278204   5.253   0.729  12.402 -0.0943 -0.2770  0.0686
18930TIP3    H178205   5.255   0.645  12.357  1.3255 -0.0033 -0.4087
18930TIP3    H278206   5.344   0.748  12.423 -0.2345  1.6403 -0.7831
18931TIP3   OH278207   1.235   6.186  13.904  0.6047 -0.5297  0.0558
18931TIP3    H178208   1.139   6.192  13.900  0.6299  0.5763  0.6217
18931TIP3    H278209   1.264   6.199  13.814  0.3259  2.0629  0.2827
18932TIP3   OH278210   6.068   4.958  13.735 -0.1369  0.2787 -0.1037
18932TIP3    H178211   6.114   4.877  13.758  0.2672  0.2014 -1.1539
18932TIP3    H278212   5.994   4.931  13.682  0.1965  0.6166 -0.7526
18933TIP3   OH278213   4.212   4.678  15.595 -0.2884 -0.0976  0.0202
18933TIP3    H178214   4.143   4.734  15.559 -0.2471  0.4430  0.7508
18933TIP3    H278215   4.261   4.736  15.654  0.4874 -0.6060 -0.1135
18934TIP3   OH278216   2.170   3.099  15.751  0.5548 -0.1730  0.2294
18934TIP3    H178217   2.204   3.075  15.838 -0.7290  1.4079  1.2344
18934TIP3    H278218   2.077   3.078  15.755  0.3708  0.4650 -0.5434
18935TIP3   OH278219   4.413   0.561   3.623 -0.1577 -0.5280 -0.1384
18935TIP3    H178220   4.415   0.561   3.719 -0.8954  1.4132 -0.0733
18935TIP3    H278221   4.347   0.495   3.600 -0.7608 -0.2361  0.7268
18936TIP3   OH278222   1.887   5.179  11.143  0.0025  0.2408  0.0901
18936TIP3    H178223   1.853   5.109  11.089  0.9182  0.0798 -0.3023
18936TIP3    H278224   1.828   5.182  11.219 -0.7726 -0.1073 -0.4884
18937TIP3   OH278225   2.699   2.099   0.297 -0.0175 -0.0038 -0.3456
18937TIP3    H178226   2.793   2.107   0.313  0.0999 -1.9894  0.1896
18937TIP3    H278227   2.689   2.119   0.204  0.7896  1.1706 -0.1939
18938TIP3   OH278228   3.326   4.682   0.085 -0.1659  0.0216 -0.3662
18938TIP3    H178229   3.278   4.625   0.146  0.5060  1.6942  1.8467
18938TIP3    H278230   3.408   4.700   0.130  1.4526 -0.6017 -2.9073
18939TIP3   OH278231   6.154   1.206  13.414  0.3737  0.5267  0.4432
18939TIP3    H178232   6.110   1.152  13.480  0.7618 -0.6210 -0.2074
18939TIP3    H278233   6.217   1.258  13.464  0.8833 -0.5536  0.9473
18940TIP3   OH278234   4.959   1.901   2.977  0.3061  0.1300  0.4800
18940TIP3    H178235   5.051   1.883   2.991  0.2689 -1.5630 -1.0246
18940TIP3    H278236   4.914   1.860   3.051  0.7416  1.1025  1.3019
18941TIP3   OH278237   0.055   6.402  11.060 -0.5074 -0.0561  0.4317
18941TIP3    H178238   0.016   6.331  11.008 -1.8530  1.4224 -0.6876
18941TIP3    H278239   0.007   6.400  11.143  0.0157 -0.9396  0.7266
18942TIP3   OH278240   0.835   6.258  15.101 -0.4600 -0.2294  0.7707
18942TIP3    H178241   0.897   6.238  15.031 -0.8102 -0.8345  0.6264
18942TIP3    H278242   0.756   6.210  15.077 -0.8197  0.1401  1.2116
18943TIP3   OH278243   5.414   2.325   1.598  0.1394  0.6559  0.9201
18943TIP3    H178244   5.344   2.372   1.644  1.3084  1.8636  1.5233
18943TIP3    H278245   5.455   2.271   1.666  0.1091  0.3227  0.6753
18944TIP3   OH278246   3.440   3.276  13.665  0.2985 -0.6184  0.2323
18944TIP3    H178247   3.470   3.352  13.615  0.0758  0.6498  1.9561
18944TIP3    H278248   3.446   3.303  13.757 -3.8940 -1.0865  0.8220
18945TIP3   OH278249   5.727   3.986  16.903  0.2134 -0.5452  0.1385
18945TIP3    H178250   5.751   3.949  16.818  0.4451  2.2779 -1.1399
18945TIP3    H278251   5.664   4.055  16.883  2.3684  2.1448  1.8798
18946TIP3   OH278252   0.666   1.393  12.842 -0.0728  0.5051  0.2256
18946TIP3    H178253   0.595   1.456  12.827 -0.7281 -0.8108 -3.1245
18946TIP3    H278254   0.736   1.421  12.783  1.5394  0.6666  2.0866
18947TIP3   OH278255   1.902   2.895   1.739  0.5322 -0.1553 -0.2583
18947TIP3    H178256   1.980   2.856   1.700  0.6046  0.7319 -1.0418
18947TIP3    H278257   1.833   2.880   1.675  0.9076  2.3802 -1.4007
18948TIP3   OH278258   1.260   6.009  16.026  0.0482 -0.1152  0.3706
18948TIP3    H178259   1.169   6.024  16.052  0.1141  3.3056 -0.8518
18948TIP3    H278260   1.254   5.960  15.944 -0.9333  2.1742 -1.0346
18949TIP3   OH278261   2.635   1.015   2.465  0.4245 -0.0638  0.3555
18949TIP3    H178262   2.548   1.047   2.439 -0.0608  0.5981  2.6163
18949TIP3    H278263   2.645   0.932   2.418 -2.1667 -1.0195  1.3233
18950TIP3   OH278264   0.803   4.830  13.152  0.5615 -0.1642 -0.1681
18950TIP3    H178265   0.753   4.768  13.099  0.5228 -0.3404  0.0724
18950TIP3    H278266   0.739   4.896  13.178  1.0393  1.2193 -2.2577
18951TIP3   OH278267   0.714   4.653   4.000 -0.2337 -0.0908  0.7460
18951TIP3    H178268   0.724   4.712   4.074 -3.6706  0.6181  0.8309
18951TIP3    H278269   0.752   4.570   4.030 -0.1148  0.6053  2.6804
18952TIP3   OH278270   6.534   6.703  17.353 -0.1643  0.5838  0.2378
18952TIP3    H178271   6.485   6.737  17.278 -1.3578  2.3540  1.7090
18952TIP3    H278272   6.470   6.651  17.402 -1.1037  3.7704  2.7439
18953TIP3   OH278273   3.805   5.811  16.260  0.1789  0.5799  0.2315
18953TIP3    H178274   3.803   5.899  16.296 -0.1098  0.6218  0.1173
18953TIP3    H278275   3.883   5.809  16.204  1.3533  0.1180  1.8417
18954TIP3   OH278276   4.117   0.171  16.276  0.3843 -0.2942  0.4099
18954TIP3    H178277   4.105   0.247  16.333  0.4860  0.4507 -0.5443
18954TIP3    H278278   4.035   0.122  16.284  0.5219 -0.3810  1.4449
18955TIP3   OH278279   5.604   0.732   1.509  0.1778  0.0642 -0.2709
18955TIP3    H178280   5.599   0.804   1.446  0.5622 -0.6922 -1.1889
18955TIP3    H278281   5.530   0.675   1.486  1.0709 -0.8883 -0.9250
18956TIP3   OH278282   3.675   5.668  13.691 -0.6204  0.1025  0.0958
18956TIP3    H178283   3.616   5.677  13.766 -0.3828 -1.6479  0.5477
18956TIP3    H278284   3.638   5.596  13.640  2.4013 -3.0181  1.8205
18957TIP3   OH278285   1.462   0.082  13.732  0.5892  0.4831  0.7722
18957TIP3    H178286   1.526   0.038  13.788  0.8405 -1.2759 -0.8055
18957TIP3    H278287   1.502   0.166  13.712  2.8244 -0.8360 -0.7499
18958TIP3   OH278288   5.964   4.184   2.541 -0.2755 -0.0409  0.4144
18958TIP3    H178289   6.056   4.185   2.568  0.2256 -1.1097 -1.0981
18958TIP3    H278290   5.959   4.113   2.477 -2.4390 -0.8641  1.3715
18959TIP3   OH278291   1.419   5.572  15.421 -0.3282  0.0395  0.4131
18959TIP3    H178292   1.365   5.644  15.390 -0.3183 -0.0248  0.2458
18959TIP3    H278293   1.363   5.495  15.414 -0.6086  0.1508  1.3491
18960TIP3   OH278294   0.931   6.641   4.584  0.2402 -0.0971 -0.7033
18960TIP3    H178295   0.926   6.651   4.489 -1.9290 -2.9745 -1.0470
18960TIP3    H278296   0.847   6.600   4.608  1.9421 -2.4020  1.9631
18961TIP3   OH278297   6.475   0.918   5.482  0.4008 -0.3744  0.1854
18961TIP3    H178298   6.396   0.971   5.474  0.9804  0.3365 -1.5221
18961TIP3    H278299   6.524   0.937   5.402  1.2680 -2.5011  0.1438
18962TIP3   OH278300   1.794   2.206  16.529 -0.0356 -0.1060 -0.4876
18962TIP3    H178301   1.704   2.176  16.541 -1.4813  3.7427 -0.3566
18962TIP3    H278302   1.789   2.267  16.456  2.1263  1.4230  0.5412
18963TIP3   OH278303   2.341   5.184  14.675  0.0040 -0.6636  0.2658
18963TIP3    H178304   2.365   5.269  14.713  0.7911 -1.1148  0.8031
18963TIP3    H278305   2.353   5.121  14.747 -1.0745 -1.1635  0.0231
18964TIP3   OH278306   5.780   4.829  14.819  0.3897 -0.0626  0.0626
18964TIP3    H178307   5.861   4.783  14.841  0.4780  0.5106  1.0084
18964TIP3    H278308   5.714   4.787  14.875  0.3695  0.5948  0.5424
18965TIP3   OH278309   2.875   3.234  14.541 -0.1679  0.1478  0.1177
18965TIP3    H178310   2.850   3.289  14.615 -2.0282  1.7283 -1.5572
18965TIP3    H278311   2.941   3.285  14.494  0.2300 -0.3792  0.0893
18966TIP3   OH278312   3.807   5.336  11.881 -0.2504 -1.0179 -0.6299
18966TIP3    H178313   3.856   5.258  11.856  0.5097 -0.8197  0.2324
18966TIP3    H278314   3.873   5.401  11.901 -0.8606 -0.7112  0.4466
18967TIP3   OH278315   4.822   0.796   4.506  0.6347  0.5126 -0.0889
18967TIP3    H178316   4.749   0.845   4.467 -2.3007 -1.2622  2.6444
18967TIP3    H278317   4.838   0.840   4.590  1.7799  0.0401 -0.0511
18968TIP3   OH278318   3.202   0.390   2.017  0.0082 -0.0226 -0.0740
18968TIP3    H178319   3.234   0.453   1.952 -0.4183  0.1823 -0.0835
18968TIP3    H278320   3.107   0.393   2.009 -0.0853  0.5981  1.1142
18969TIP3   OH278321   5.522   3.953   1.461 -0.2397 -0.0012  0.3201
18969TIP3    H178322   5.563   4.029   1.503 -1.8849 -1.0248  4.2873
18969TIP3    H278323   5.440   3.986   1.426  0.3539  0.5566 -0.5761
18970TIP3   OH278324   2.408   5.876   4.636  0.2417 -0.0957 -0.4268
18970TIP3    H178325   2.489   5.927   4.632  0.7247 -0.8641 -0.5930
18970TIP3    H278326   2.399   5.839   4.548 -1.5181  1.8184 -1.1420
18971TIP3   OH278327   2.217   3.384  17.208  0.1332 -0.6052  0.1335
18971TIP3    H178328   2.122   3.386  17.222  0.2456  0.8530  0.8883
18971TIP3    H278329   2.241   3.475  17.193  1.5944 -0.7886  1.1944
18972TIP3   OH278330   4.520   6.293   6.686 -0.1064 -0.9175 -0.2110
18972TIP3    H178331   4.469   6.216   6.711 -0.2396 -0.0587  2.5382
18972TIP3    H278332   4.461   6.367   6.700  0.6423 -0.1850 -0.8397
18973TIP3   OH278333   5.340   1.061   5.601  0.2985 -0.5867 -0.4093
18973TIP3    H178334   5.332   1.062   5.505  1.9286 -1.7215 -0.5864
18973TIP3    H278335   5.249   1.054   5.632 -0.3164  0.4781 -1.8185
18974TIP3   OH278336   0.811   3.699  12.722  0.9856 -0.9439 -0.0585
18974TIP3    H178337   0.757   3.733  12.793 -0.2933 -1.9231 -0.5244
18974TIP3    H278338   0.829   3.775  12.667  0.4176 -0.5194  0.3314
18975TIP3   OH278339   6.341   3.605  12.789  0.6300 -0.2981  0.2299
18975TIP3    H178340   6.369   3.683  12.741  0.2695 -0.7479 -0.7460
18975TIP3    H278341   6.422   3.557  12.805  0.6961 -0.4069 -0.4112
18976TIP3   OH278342   3.208   2.792  14.629 -0.5668  0.2019  0.2257
18976TIP3    H178343   3.188   2.699  14.634  1.7616 -0.4272 -1.0238
18976TIP3    H278344   3.157   2.823  14.554  1.8246 -1.0887 -2.0973
18977TIP3   OH278345   6.253   3.982  14.763  0.2963  0.3890  0.4947
18977TIP3    H178346   6.297   3.908  14.721 -0.0920  0.3582  0.1376
18977TIP3    H278347   6.193   4.015  14.696 -0.8867 -0.1319  1.2531
18978TIP3   OH278348   0.752   5.596   2.859 -0.1221 -0.0804  0.5966
18978TIP3    H178349   0.696   5.519   2.852 -0.9190  0.5269  0.1736
18978TIP3    H278350   0.692   5.671   2.852  0.7102  0.5832  0.3718
18979TIP3   OH278351   1.868   4.226  13.100 -0.5909 -0.2771  0.0621
18979TIP3    H178352   1.862   4.183  13.186  0.7075 -2.5338 -0.9026
18979TIP3    H278353   1.898   4.314  13.121  0.7143 -1.0743  1.9084
18980TIP3   OH278354   6.288   1.914   1.123  0.2689  0.4412 -0.6219
18980TIP3    H178355   6.214   1.859   1.148 -0.0157  1.6219  1.3200
18980TIP3    H278356   6.355   1.895   1.189  1.5238 -0.1811 -2.0133
18981TIP3   OH278357   6.255   6.202  16.279 -0.1032 -0.3028 -0.7005
18981TIP3    H178358   6.307   6.122  16.271  0.7023  0.2818 -1.5251
18981TIP3    H278359   6.308   6.260  16.335 -0.1264  0.0859 -1.0758
18982TIP3   OH278360   5.169   3.878  14.768 -0.2206  0.3214  0.2461
18982TIP3    H178361   5.170   3.921  14.853  0.1976  1.3219 -0.2433
18982TIP3    H278362   5.261   3.862  14.748 -0.1631  1.7826 -0.8171
18983TIP3   OH278363   6.751   3.271   0.198  0.4917 -0.2829  0.8245
18983TIP3    H178364   6.725   3.226   0.279 -0.7559  0.2125  0.7318
18983TIP3    H278365   6.698   3.351   0.197  2.6976  1.2650  1.0076
18984TIP3   OH278366   6.496   3.265   3.836 -0.7202  0.6225 -0.3734
18984TIP3    H178367   6.585   3.248   3.806 -0.7436 -0.6538  0.2058
18984TIP3    H278368   6.444   3.268   3.756 -0.2270  0.9923 -0.6896
18985TIP3   OH278369   4.394   0.481  13.484 -0.3842 -0.2863 -0.3065
18985TIP3    H178370   4.468   0.537  13.457  0.3228 -1.6231 -1.2272
18985TIP3    H278371   4.411   0.464  13.577  0.4298 -0.5144 -0.4837
18986TIP3   OH278372   0.388   5.373  15.610  0.1663  0.1792 -0.2268
18986TIP3    H178373   0.376   5.379  15.515 -0.8420  1.9741 -0.0355
18986TIP3    H278374   0.300   5.357  15.644  0.3987  0.2879  0.4432
18987TIP3   OH278375   3.303   6.663   5.914  0.8082 -0.2616  0.3435
18987TIP3    H178376   3.352   6.643   5.834  1.1048  0.0057  0.4541
18987TIP3    H278377   3.309   6.758   5.922  1.8356 -0.3782  1.3398
18988TIP3   OH278378   1.617   2.852   6.154 -0.1615 -0.0205 -0.6886
18988TIP3    H178379   1.609   2.792   6.228 -0.6877  0.6085 -0.2270
18988TIP3    H278380   1.707   2.838   6.122  1.1384  1.7075  1.8554
18989TIP3   OH278381   4.220   3.423  11.098  0.0599 -0.3346  0.1704
18989TIP3    H178382   4.170   3.350  11.133 -2.5024  0.0215 -2.3684
18989TIP3    H278383   4.286   3.382  11.041 -1.2146 -0.7392 -1.0585
18990TIP3   OH278384   6.756   4.844   2.329  0.3525 -0.8067  0.6251
18990TIP3    H178385   6.673   4.808   2.300  0.1610 -0.0623  0.2199
18990TIP3    H278386   6.818   4.772   2.319  0.3473 -0.5401 -1.8902
18991TIP3   OH278387   2.765   0.835  15.017  0.2810  0.4510 -0.0801
18991TIP3    H178388   2.743   0.798  15.103  0.3058  3.3831  1.3210
18991TIP3    H278389   2.815   0.914  15.038  0.5223  1.1045 -2.8415
18992TIP3   OH278390   1.190   0.202   5.377 -0.5152 -0.1636 -0.0702
18992TIP3    H178391   1.237   0.285   5.384  2.7701 -1.8098 -0.5184
18992TIP3    H278392   1.169   0.194   5.284 -0.7504  0.1389 -0.0415
18993TIP3   OH278393   3.640   3.952  11.598 -0.2546 -0.3132 -0.6866
18993TIP3    H178394   3.613   3.885  11.662 -0.0722  0.2366 -0.0205
18993TIP3    H278395   3.558   3.979  11.557 -0.2451 -1.5379 -1.5771
18994TIP3   OH278396   6.440   0.134  16.950 -0.3603  0.2016  0.3062
18994TIP3    H178397   6.393   0.210  16.916  0.0987 -1.0137 -3.4642
18994TIP3    H278398   6.374   0.065  16.955 -0.4011  0.3242  2.0147
18995TIP3   OH278399   1.499   6.313  13.003 -0.0634  0.1092 -0.4426
18995TIP3    H178400   1.476   6.314  12.910 -2.5096 -2.8968 -0.0215
18995TIP3    H278401   1.416   6.305  13.048  1.2303 -1.1305  1.8865
18996TIP3   OH278402   1.854   2.304   4.407 -0.4173 -0.0427  0.7653
18996TIP3    H178403   1.778   2.336   4.455  1.1717  2.5079  1.7520
18996TIP3    H278404   1.873   2.373   4.343  0.6521 -0.9548  0.0639
18997TIP3   OH278405   1.771   0.141   0.286 -0.1657 -0.4278  0.1719
18997TIP3    H178406   1.723   0.169   0.364  0.9195  0.0138  0.6896
18997TIP3    H278407   1.750   0.048   0.278 -0.1796 -0.5151  1.0685
18998TIP3   OH278408   4.160   5.774   1.065  0.4948 -0.1146 -0.4381
18998TIP3    H178409   4.224   5.725   1.012  1.1671 -0.3696  0.5630
18998TIP3    H278410   4.099   5.811   1.002  1.8688  0.4623 -1.4722
18999TIP3   OH278411   3.142   4.711   2.653  0.7793  0.4554 -0.3927
18999TIP3    H178412   3.144   4.689   2.746  0.1873 -0.5929 -0.6032
18999TIP3    H278413   3.050   4.732   2.635  0.5345 -1.0808 -1.0878
19000TIP3   OH278414   4.650   2.238   5.536 -0.2127 -0.1920 -0.1109
19000TIP3    H178415   4.654   2.144   5.549 -0.7980 -0.0480  1.3477
19000TIP3    H278416   4.713   2.274   5.599  2.0110  0.3313 -2.4453
19001TIP3   OH278417   3.831   4.717   2.781  0.2917  0.0925 -0.9012
19001TIP3    H178418   3.833   4.792   2.840  0.4880 -0.4140 -0.2381
19001TIP3    H278419   3.905   4.731   2.721  0.1332  0.5821 -0.9816
19002TIP3   OH278420   0.510   0.803  16.778  0.4092  0.5902  0.0963
19002TIP3    H178421   0.444   0.867  16.807  0.0382  0.1904  0.1384
19002TIP3    H278422   0.475   0.768  16.696  0.8774  0.8361 -0.2126
19003TIP3   OH278423   4.906   0.800   5.975 -0.9356  0.1487  0.2271
19003TIP3    H178424   4.856   0.798   6.057 -0.8239 -1.0705  0.2874
19003TIP3    H278425   4.997   0.788   6.003 -0.9308 -0.6193 -0.0769
19004TIP3   OH278426   4.970   4.505  12.876  0.0929 -0.0334  0.7558
19004TIP3    H178427   4.911   4.433  12.901  0.9557 -1.0145  0.0431
19004TIP3    H278428   5.030   4.466  12.813  1.1902  1.0857  1.0716
19005TIP3   OH278429   5.919   6.591   4.064  0.9420 -0.6796  0.2464
19005TIP3    H178430   5.870   6.650   4.007  1.6630 -0.9885 -0.7232
19005TIP3    H278431   5.901   6.623   4.153  2.0184  1.5671 -0.2767
19006TIP3   OH278432   5.340   4.960  14.533  0.0952  0.5340 -0.0722
19006TIP3    H178433   5.346   5.053  14.555  2.1228  0.3117  0.5435
19006TIP3    H278434   5.311   4.918  14.614  1.0017  0.4462  0.2172
19007TIP3   OH278435   2.296   3.108  17.131  0.2026 -0.1852  0.0428
19007TIP3    H178436   2.340   3.157  17.200 -1.4857  0.0431  1.0236
19007TIP3    H278437   2.229   3.168  17.098 -0.8637 -1.2640  0.1699
19008TIP3   OH278438   5.712   4.107   2.239 -0.1106 -0.3506 -0.3169
19008TIP3    H178439   5.732   4.145   2.153  1.7638 -0.9736 -0.2137
19008TIP3    H278440   5.739   4.174   2.302 -0.4858 -0.3088 -0.2019
19009TIP3   OH278441   3.970   0.398  15.572 -0.0124  0.5153 -0.0059
19009TIP3    H178442   4.005   0.417  15.484 -0.7309  0.6835 -0.2582
19009TIP3    H278443   3.916   0.474  15.593 -0.5559  0.0768  0.2097
19010TIP3   OH278444   0.089   0.356   4.879  0.2291 -0.3340  0.8355
19010TIP3    H178445   0.171   0.335   4.925 -0.2225  1.0054  2.3479
19010TIP3    H278446   0.024   0.360   4.949 -0.7642  0.4526 -0.1190
19011TIP3   OH278447   0.563   5.151   2.441 -0.2199 -0.0258 -0.5029
19011TIP3    H178448   0.546   5.136   2.534  0.4461 -0.6989 -0.4727
19011TIP3    H278449   0.613   5.232   2.439  2.0072 -1.2865  0.0085
19012TIP3   OH278450   4.229   5.879  12.175 -0.0684  0.2614  0.2586
19012TIP3    H178451   4.288   5.919  12.111  0.7409 -1.9582 -0.4920
19012TIP3    H278452   4.286   5.856  12.249  0.2839 -2.5012 -0.7455
19013TIP3   OH278453   0.889   6.710   4.293 -0.0179 -0.2295 -0.0601
19013TIP3    H178454   0.841   6.631   4.267 -2.1635  0.9329  0.1602
19013TIP3    H278455   0.981   6.684   4.287 -0.5193 -3.9630  3.5399
19014TIP3   OH278456   4.305   6.282  13.991  0.5322  0.2161  0.1924
19014TIP3    H178457   4.338   6.207  14.041  1.1872  0.3523 -0.0340
19014TIP3    H278458   4.352   6.357  14.026  0.9929  0.3147 -0.6135
19015TIP3   OH278459   0.443   4.798   0.487 -0.1236  0.5032 -0.8178
19015TIP3    H178460   0.360   4.766   0.450  0.0877 -1.7173  0.4752
19015TIP3    H278461   0.439   4.775   0.579  1.9865  0.1819 -0.7509
19016TIP3   OH278462   5.087   6.652   5.628 -0.4421 -0.0940  0.2737
19016TIP3    H178463   5.059   6.730   5.676 -0.6552  0.9044 -1.3732
19016TIP3    H278464   5.171   6.677   5.589 -0.4391 -0.7396 -0.1484
19017TIP3   OH278465   1.663   5.167   1.066 -0.0707 -0.8400 -0.3176
19017TIP3    H178466   1.697   5.142   0.980  1.7955 -1.6205  0.5668
19017TIP3    H278467   1.591   5.226   1.048  2.5365  2.0114 -2.4298
19018TIP3   OH278468   6.182   5.087   4.814  0.4127 -0.6396  0.2129
19018TIP3    H178469   6.237   5.022   4.857  1.6423 -0.0768 -0.4249
19018TIP3    H278470   6.230   5.109   4.734 -1.5661 -1.3204 -1.2425
19019TIP3   OH278471   5.524   4.895   3.395  0.4995 -0.5651 -0.2032
19019TIP3    H178472   5.464   4.914   3.467  0.4966  1.8710 -0.7824
19019TIP3    H278473   5.510   4.802   3.377 -1.9620 -0.4542  0.7132
19020TIP3   OH278474   0.025   2.211  13.948  0.5886  0.1009 -0.4894
19020TIP3    H178475  -0.041   2.278  13.928  2.1657  1.6544 -0.7113
19020TIP3    H278476   0.106   2.260  13.961  1.3714 -1.5986  1.5480
19021TIP3   OH278477   0.864   2.148   3.384  0.4510  0.1244 -0.6940
19021TIP3    H178478   0.914   2.085   3.436  2.2806  2.9318  1.2136
19021TIP3    H278479   0.927   2.183   3.321  0.6765  2.7382  0.8362
19022TIP3   OH278480   3.530   5.184  14.566  0.0340  0.0254 -0.2966
19022TIP3    H178481   3.618   5.163  14.595  0.6278 -0.4085 -2.2928
19022TIP3    H278482   3.515   5.273  14.597  0.8182 -0.2157  0.8226
19023TIP3   OH278483   5.960   0.415  14.613  0.0075  0.0697 -0.0345
19023TIP3    H178484   5.980   0.508  14.621  1.3991 -0.2458  0.4174
19023TIP3    H278485   5.889   0.411  14.549 -1.3038  1.5669  1.2084
19024TIP3   OH278486   6.343   4.121  16.091  0.2011  0.7159  0.1913
19024TIP3    H178487   6.301   4.080  16.167  1.5186  0.1551  0.6573
19024TIP3    H278488   6.273   4.171  16.049 -0.8546  0.0384  1.0651
19025TIP3   OH278489   1.661   2.607  11.576  0.3987  0.4269  0.1994
19025TIP3    H178490   1.723   2.679  11.590 -0.6896  1.3528  0.4190
19025TIP3    H278491   1.580   2.638  11.617  0.6299 -2.0766  2.8657
19026TIP3   OH278492   2.736   3.699   2.804  0.5652  0.4760 -0.1788
19026TIP3    H178493   2.763   3.732   2.719  0.5987 -0.3680 -0.5018
19026TIP3    H278494   2.678   3.626   2.784  1.5099 -0.4853  0.5185
19027TIP3   OH278495   6.694   2.404   2.316 -0.2500  0.6603 -0.2705
19027TIP3    H178496   6.701   2.495   2.342 -0.1863  0.2979  1.0557
19027TIP3    H278497   6.698   2.355   2.398  0.7763 -0.6004 -1.0245
19028TIP3   OH278498   3.951   4.171  12.739  0.7427  0.0244 -0.3103
19028TIP3    H178499   3.883   4.194  12.802 -1.8253 -0.1208 -2.8290
19028TIP3    H278500   3.942   4.076  12.727  1.4376 -0.0095 -0.6151
19029TIP3   OH278501   6.324   1.256   4.210 -0.5286  0.4805 -0.4247
19029TIP3    H178502   6.350   1.344   4.181  0.7775  0.4909  0.6676
19029TIP3    H278503   6.352   1.198   4.140  1.3332  0.6513  0.1155
19030TIP3   OH278504   0.068   1.147   3.288  0.1275  0.1855  0.1693
19030TIP3    H178505   0.143   1.114   3.239  0.4789  0.7303  0.3317
19030TIP3    H278506   0.000   1.161   3.222  0.3997  0.3549 -0.0776
19031TIP3   OH278507   3.376   3.802   2.048  0.0188 -0.1164 -0.4605
19031TIP3    H178508   3.306   3.749   2.086 -0.6918  0.6349 -0.6778
19031TIP3    H278509   3.347   3.892   2.061  1.3038  0.2353  0.0930
19032TIP3   OH278510   5.333   3.461   3.557 -0.4420 -0.1373 -0.6372
19032TIP3    H178511   5.321   3.372   3.590  0.5343 -0.1514 -0.2915
19032TIP3    H278512   5.245   3.500   3.561 -1.0013 -1.2846 -1.4157
19033TIP3   OH278513   3.007   2.330  14.830 -0.1426 -0.0592  0.2853
19033TIP3    H178514   3.093   2.331  14.874  0.1933  0.7385 -0.3653
19033TIP3    H278515   2.979   2.421  14.830  0.1007  0.0540 -1.5910
19034TIP3   OH278516   4.024   5.382  16.726 -0.1804 -0.5414  0.0608
19034TIP3    H178517   4.068   5.429  16.797 -0.5718  0.0768 -0.0951
19034TIP3    H278518   4.010   5.448  16.658  0.9942 -1.3300 -0.9814
19035TIP3   OH278519   5.770   0.401   3.920  0.3376 -0.4314  0.4963
19035TIP3    H178520   5.795   0.448   3.841 -2.5093 -1.0220 -0.8811
19035TIP3    H278521   5.739   0.469   3.980 -0.1420 -0.2245  0.0135
19036TIP3   OH278522   1.211   2.110  13.914 -0.2494  0.1114  0.1484
19036TIP3    H178523   1.276   2.041  13.901 -0.7943 -0.6072  1.1023
19036TIP3    H278524   1.249   2.187  13.873 -0.7743 -1.3204 -3.3950
19037TIP3   OH278525   3.212   1.423  17.196  0.3751  0.0314 -0.0032
19037TIP3    H178526   3.139   1.458  17.145  0.1140 -0.0240  0.3267
19037TIP3    H278527   3.268   1.380  17.132 -0.5154 -1.0060 -0.1232
19038TIP3   OH278528   3.587   5.846   5.278 -0.5574  0.7381  0.0681
19038TIP3    H178529   3.541   5.912   5.330  0.0296  0.2620  1.2437
19038TIP3    H278530   3.536   5.766   5.291 -0.7013  0.7329 -0.5269
19039TIP3   OH278531   5.513   2.673  16.317  0.7957 -0.3733  0.1775
19039TIP3    H178532   5.519   2.667  16.222  1.3962  0.3450  0.1561
19039TIP3    H278533   5.508   2.582  16.347  0.2498 -0.5978 -0.5496
19040TIP3   OH278534   2.261   5.288  14.286 -0.1613 -0.8069 -0.7279
19040TIP3    H178535   2.173   5.321  14.272 -0.8796 -1.5927  1.5587
19040TIP3    H278536   2.294   5.269  14.198 -1.9433  0.2725 -1.6769
19041TIP3   OH278537   3.611   0.547  15.001 -0.5378 -0.5811 -0.5632
19041TIP3    H178538   3.568   0.471  14.961  0.0606 -0.7935 -0.8092
19041TIP3    H278539   3.656   0.590  14.929 -0.7277 -0.0880 -0.3891
19042TIP3   OH278540   2.036   6.223   5.555 -0.3113 -0.8221  0.0004
19042TIP3    H178541   2.052   6.315   5.576  1.6020 -1.1530  0.1952
19042TIP3    H278542   1.962   6.198   5.610 -2.1975  1.0792 -1.5124
19043TIP3   OH278543   5.489   2.600  13.323 -0.5263  0.0119  0.0070
19043TIP3    H178544   5.472   2.583  13.231  0.3641  0.5542 -0.2725
19043TIP3    H278545   5.452   2.687  13.339 -0.8030 -0.1403  0.1983
19044TIP3   OH278546   0.045   3.200   4.662 -0.4785  0.1452 -0.0160
19044TIP3    H178547  -0.050   3.202   4.645 -1.0648  0.1452  2.7750
19044TIP3    H278548   0.063   3.109   4.686  0.2236  0.1672 -0.4410
19045TIP3   OH278549   6.364   0.332   2.058 -0.3111 -0.2996  0.0536
19045TIP3    H178550   6.404   0.299   1.977  1.4444 -0.8507  1.0844
19045TIP3    H278551   6.371   0.260   2.120 -2.0641 -0.0481  0.6044
19046TIP3   OH278552   4.719   3.597   6.048  0.5508  0.7139  0.1825
19046TIP3    H178553   4.681   3.634   6.128 -0.2590  0.2231  0.0296
19046TIP3    H278554   4.644   3.573   5.995  1.0880  1.0188 -0.7274
19047TIP3   OH278555   6.204   3.168  15.986 -0.4081 -0.0119 -0.0443
19047TIP3    H178556   6.135   3.230  15.965  0.8108  1.8620  1.1951
19047TIP3    H278557   6.205   3.164  16.081  0.6654 -0.6137 -0.0582
19048TIP3   OH278558   3.455   1.184   2.985 -0.1732 -0.6029  0.3510
19048TIP3    H178559   3.476   1.275   3.004 -0.2868 -0.3277 -0.7784
19048TIP3    H278560   3.462   1.177   2.889  2.2919 -2.3821  0.5710
19049TIP3   OH278561   3.267   3.746   2.364  0.0959 -0.0085  1.0805
19049TIP3    H178562   3.253   3.685   2.292  0.0251  1.5139 -0.2444
19049TIP3    H278563   3.193   3.731   2.423 -0.0664 -0.9883  0.6448
19050TIP3   OH278564   2.230   4.262   2.717 -0.4520  0.3917  0.4624
19050TIP3    H178565   2.312   4.216   2.700 -0.9236 -1.2684  2.2555
19050TIP3    H278566   2.198   4.288   2.631  0.9358 -0.7537 -0.4355
19051TIP3   OH278567   0.144   5.246  15.639 -0.4121 -0.0501 -0.2798
19051TIP3    H178568   0.148   5.285  15.726 -0.1358 -0.5590 -0.0567
19051TIP3    H278569   0.059   5.201  15.637 -0.1268 -0.6173 -0.0106
19052TIP3   OH278570   1.582   4.469   0.157  0.0301  0.1035 -0.2599
19052TIP3    H178571   1.573   4.374   0.157  0.3617 -0.0663 -4.0266
19052TIP3    H278572   1.493   4.501   0.176  0.1179 -0.8189  2.1191
19053TIP3   OH278573   5.830   1.836  15.373  0.1106 -0.1386  0.1728
19053TIP3    H178574   5.830   1.750  15.331  1.1835 -0.0538 -0.0303
19053TIP3    H278575   5.923   1.858  15.382 -0.1515  1.2183 -0.2120
19054TIP3   OH278576   4.873   6.559   2.427  0.4593 -0.1748  0.3398
19054TIP3    H178577   4.809   6.621   2.393  0.3708  0.9791  2.4009
19054TIP3    H278578   4.822   6.494   2.474  0.6109 -1.4057 -1.1273
19055TIP3   OH278579   0.861   1.979  11.415 -0.3761  0.6170 -0.1446
19055TIP3    H178580   0.835   1.971  11.507 -0.9329  1.7267 -0.1894
19055TIP3    H278581   0.955   1.964  11.416 -0.2189  1.5028  0.7515
19056TIP3   OH278582   6.642   1.407   5.113  0.4978 -0.5645 -0.4220
19056TIP3    H178583   6.719   1.360   5.145  0.4590 -1.8853 -2.1056
19056TIP3    H278584   6.661   1.423   5.021  0.8632  3.5608  0.1899
19057TIP3   OH278585   4.961   5.770  16.896  0.1834 -0.3675  0.2293
19057TIP3    H178586   4.997   5.759  16.984  0.7318 -1.3374 -0.0954
19057TIP3    H278587   4.953   5.864  16.885 -0.9072 -0.2467  1.7090
19058TIP3   OH278588   4.054   3.465  11.726 -0.2606 -0.0935 -0.4450
19058TIP3    H178589   4.016   3.512  11.801  1.2323 -1.5286  1.3050
19058TIP3    H278590   4.147   3.485  11.730  0.4525 -3.1272  0.4186
19059TIP3   OH278591   4.422   6.665   5.004 -0.3629 -0.5318 -0.0925
19059TIP3    H178592   4.508   6.627   4.991  0.1091 -0.2049  1.8499
19059TIP3    H278593   4.386   6.672   4.915  1.1246 -1.7181 -0.8432
19060TIP3   OH278594   2.888   6.108  14.249  0.1789 -0.9828  0.0457
19060TIP3    H178595   2.898   6.013  14.264 -0.3337 -1.5826 -2.8620
19060TIP3    H278596   2.974   6.137  14.221  0.4328 -0.4676  1.3035
19061TIP3   OH278597   5.434   6.273   5.028  0.1033 -0.1008 -0.4648
19061TIP3    H178598   5.406   6.223   5.105  2.1801 -1.4115 -0.4695
19061TIP3    H278599   5.357   6.275   4.971 -1.3208  0.4814  1.4129
19062TIP3   OH278600   5.638   4.845   0.206  0.6984  0.7498  0.0506
19062TIP3    H178601   5.578   4.919   0.194 -0.3910  0.3020  2.2468
19062TIP3    H278602   5.625   4.791   0.128 -1.8434  0.6463  0.4730
19063TIP3   OH278603   0.763   4.981   1.251  0.8341 -0.2569 -0.0380
19063TIP3    H178604   0.698   4.917   1.281 -0.4742  0.9028 -0.3215
19063TIP3    H278605   0.823   4.931   1.196 -0.0057 -1.2808 -0.0372
19064TIP3   OH278606   5.452   5.455  12.118  0.1015 -0.5123 -0.6314
19064TIP3    H178607   5.394   5.494  12.053 -1.0040 -0.5732  0.2818
19064TIP3    H278608   5.392   5.417  12.184  1.1101  1.4595  1.5736
19065TIP3   OH278609   2.883   4.005  11.317 -0.4060  0.3132  0.1951
19065TIP3    H178610   2.793   4.001  11.285  0.0334 -0.1188 -1.0828
19065TIP3    H278611   2.934   3.963  11.247  0.9810  2.0500  0.1058
19066TIP3   OH278612   1.853   5.912   0.758 -0.0501  0.3475  0.0817
19066TIP3    H178613   1.867   5.945   0.669  0.3981  0.0772  0.0496
19066TIP3    H278614   1.773   5.956   0.788  1.8711  3.4273  1.0261
19067TIP3   OH278615   2.515   4.634  11.872  0.5920  0.3162  0.2193
19067TIP3    H178616   2.449   4.606  11.936  0.6008  0.1387  0.1523
19067TIP3    H278617   2.469   4.696  11.816  0.0262 -0.9802 -0.7917
19068TIP3   OH278618   3.623   5.196  15.014  0.0343  0.4203  0.8493
19068TIP3    H178619   3.623   5.108  14.977  0.5062  0.4475  0.7752
19068TIP3    H278620   3.710   5.231  14.994 -0.2921  1.0618  0.5059
19069TIP3   OH278621   2.393   2.972  14.866 -0.4137 -0.7965 -0.2021
19069TIP3    H178622   2.421   3.060  14.843  1.4882 -1.4163 -0.4856
19069TIP3    H278623   2.323   2.984  14.930  0.7570  0.9065  0.8200
19070TIP3   OH278624   6.435   4.583   6.228  0.0946  0.0919  0.1844
19070TIP3    H178625   6.522   4.603   6.264 -0.0283  1.5913 -0.3057
19070TIP3    H278626   6.382   4.563   6.305  0.9180 -1.1087  0.4751
19071TIP3   OH278627   2.187   0.663   5.041  0.5895 -0.3407  0.4313
19071TIP3    H178628   2.282   0.656   5.032  0.5742 -0.2035  0.1440
19071TIP3    H278629   2.174   0.738   5.099  0.6326  0.4817 -0.5747
19072TIP3   OH278630   0.594   5.054   0.982 -0.4999 -0.9838  0.3902
19072TIP3    H178631   0.597   5.129   1.042  1.0250 -2.2572  1.9894
19072TIP3    H278632   0.682   5.050   0.945 -0.9782 -1.1778 -0.7942
19073TIP3   OH278633   0.930   6.309   2.524  0.4257 -0.3430  0.2909
19073TIP3    H178634   1.009   6.268   2.488 -0.6689 -0.7815 -1.7168
19073TIP3    H278635   0.924   6.393   2.479 -0.3005 -0.3397  0.3859
19074TIP3   OH278636   1.810   0.788  15.131  0.0715 -0.4581 -0.2840
19074TIP3    H178637   1.727   0.834  15.120 -0.6920 -1.8682 -0.5769
19074TIP3    H278638   1.787   0.696  15.136  1.7470 -1.0785 -2.2318
19075TIP3   OH278639   1.531   5.998   5.608 -0.3360  0.9192  0.1824
19075TIP3    H178640   1.590   6.065   5.643  2.0675 -0.7636 -0.3799
19075TIP3    H278641   1.508   5.944   5.684  1.9781 -0.6009 -0.0724
19076TIP3   OH278642   1.255   2.698   5.548 -0.3173 -0.0222 -0.4034
19076TIP3    H178643   1.242   2.749   5.628  1.2305  1.7447 -1.1800
19076TIP3    H278644   1.335   2.736   5.509 -0.0272 -2.0122 -1.8736
19077TIP3   OH278645   6.645   4.683   6.025  0.1151  0.4721 -0.2857
19077TIP3    H178646   6.731   4.709   5.992  0.5890 -0.8218 -0.1153
19077TIP3    H278647   6.658   4.666   6.118 -0.6640  1.6674  0.0595
19078TIP3   OH278648   5.001   5.104  17.213 -0.7317  0.5239 -0.2398
19078TIP3    H178649   4.920   5.151  17.192 -0.3118  1.3644 -0.0447
19078TIP3    H278650   5.070   5.156  17.171 -0.3754 -0.8006 -1.3793
19079TIP3   OH278651   6.399   4.273   0.455  0.2560 -0.5052 -0.0107
19079TIP3    H178652   6.494   4.263   0.464  0.3625 -0.1062 -0.5678
19079TIP3    H278653   6.389   4.316   0.370 -0.4221 -0.4719  0.0868
19080TIP3   OH278654   5.965   4.726   5.166  1.1476  0.4619  0.6326
19080TIP3    H178655   5.900   4.742   5.235  1.4781 -0.2677  1.1305
19080TIP3    H278656   6.005   4.642   5.190 -0.6047 -1.2230 -1.9212
19081TIP3   OH278657   0.045   1.496   1.383  0.1852  0.1176 -0.3547
19081TIP3    H178658   0.109   1.498   1.311 -1.4422 -0.0105 -1.8612
19081TIP3    H278659  -0.016   1.567   1.363 -1.5934 -1.3389 -0.3845
19082TIP3   OH278660   1.248   4.103  14.926  0.1583 -0.2097  0.0453
19082TIP3    H178661   1.233   4.139  15.014 -0.4375  0.8267 -0.4667
19082TIP3    H278662   1.175   4.042  14.913  0.5078 -0.7268  0.4399
19083TIP3   OH278663   6.321   0.295   5.355 -0.4556 -0.1374  0.0991
19083TIP3    H178664   6.377   0.257   5.423  0.3614 -0.7733 -0.8983
19083TIP3    H278665   6.260   0.225   5.332  0.0674 -0.3556 -0.6696
19084TIP3   OH278666   1.100   4.586  16.309  0.2414 -0.1059  0.0102
19084TIP3    H178667   1.180   4.637  16.296  1.0395 -1.5609 -1.1214
19084TIP3    H278668   1.128   4.507  16.354 -0.4138 -0.9708 -1.0356
19085TIP3   OH278669   3.494   2.217  14.175 -0.0798 -0.6414 -0.4607
19085TIP3    H178670   3.420   2.204  14.116 -0.5299  0.2014 -0.1059
19085TIP3    H278671   3.457   2.207  14.263  0.0220  0.6440 -0.2481
19086TIP3   OH278672   1.882   5.652   4.756 -0.0795 -0.5056  0.3266
19086TIP3    H178673   1.882   5.557   4.763 -0.1904 -0.5312 -0.0104
19086TIP3    H278674   1.829   5.682   4.830 -1.5123 -0.7904 -0.5357
19087TIP3   OH278675   2.742   3.375   1.899 -0.2067  0.1409  0.0700
19087TIP3    H178676   2.691   3.402   1.976  0.4767  1.9581 -0.0731
19087TIP3    H278677   2.796   3.451   1.878 -1.4593  0.3255 -3.1267
19088TIP3   OH278678   6.304   5.461  12.971  0.0804  0.0868 -0.0477
19088TIP3    H178679   6.249   5.383  12.977  2.6034 -1.7774  0.6221
19088TIP3    H278680   6.324   5.469  12.877 -0.7912  0.4213 -0.2165
19089TIP3   OH278681   0.564   2.315  15.389  0.5733  0.0726  0.0389
19089TIP3    H178682   0.551   2.409  15.404 -1.9766 -0.2452  0.2493
19089TIP3    H278683   0.493   2.289  15.331  0.7956 -1.8558  0.5376
19090TIP3   OH278684   0.684   2.526  13.679  0.2393  0.3117 -0.2373
19090TIP3    H178685   0.660   2.618  13.683 -1.6265 -0.1653  0.7216
19090TIP3    H278686   0.752   2.516  13.745  1.3669  1.1991 -1.2083
19091TIP3   OH278687   5.583   4.011  14.049  0.1899  0.4634  0.3157
19091TIP3    H178688   5.557   3.984  14.137  1.9327  0.7327  0.9532
19091TIP3    H278689   5.621   3.932  14.010 -2.2447 -0.2089 -0.9753
19092TIP3   OH278690   6.394   1.217   1.558 -0.3529 -0.1827  0.3110
19092TIP3    H178691   6.390   1.245   1.466  0.9310  0.2815  0.3671
19092TIP3    H278692   6.389   1.298   1.608  1.8367 -0.1230  0.5290
19093TIP3   OH278693   5.506   4.511   4.317 -0.4051  0.0370 -0.7726
19093TIP3    H178694   5.520   4.600   4.351  1.6264 -0.0540 -1.2146
19093TIP3    H278695   5.457   4.525   4.236 -0.7118  0.6905 -0.4849
19094TIP3   OH278696   5.036   4.052   3.918 -0.2726  1.0349  0.5131
19094TIP3    H178697   5.002   3.978   3.867 -0.2884  1.0259  0.5365
19094TIP3    H278698   5.088   4.012   3.988 -0.6350  1.0274  0.7837
19095TIP3   OH278699   5.347   5.193   4.876 -0.6570 -0.1635 -0.0549
19095TIP3    H178700   5.339   5.103   4.845 -1.1148 -0.6662  1.4196
19095TIP3    H278701   5.274   5.239   4.835 -2.1661 -1.1574  1.3807
19096TIP3   OH278702   1.332   0.112  17.159  0.0186  0.1145  0.1573
19096TIP3    H178703   1.245   0.111  17.198  0.1321 -0.4932  0.4030
19096TIP3    H278704   1.379   0.181  17.206 -0.1109 -0.0358  0.5085
19097TIP3   OH278705   0.654   2.357   4.127  0.4351 -0.1268 -0.8463
19097TIP3    H178706   0.673   2.291   4.194  2.0541 -1.4155 -2.4811
19097TIP3    H278707   0.725   2.421   4.135 -0.4216  0.7616 -0.1179
19098TIP3   OH278708   0.816   4.880   5.445 -0.6575 -0.1319  0.0794
19098TIP3    H178709   0.853   4.967   5.456 -0.6593 -0.0569 -0.4853
19098TIP3    H278710   0.725   4.895   5.421 -0.5460 -0.2786 -0.4406
19099TIP3   OH278711   6.676   1.458  15.853 -0.3171 -0.0783 -0.1705
19099TIP3    H178712   6.652   1.389  15.791  0.5370  0.5555 -1.2515
19099TIP3    H278713   6.607   1.524  15.843  0.3583  0.4940 -1.2463
19100TIP3   OH278714   2.727   0.678   4.510 -0.0491  0.3231  0.3855
19100TIP3    H178715   2.708   0.636   4.426 -1.1579  0.9013  0.3226
19100TIP3    H278716   2.821   0.669   4.521 -0.0906 -1.1685 -0.1651
19101TIP3   OH278717   4.735   6.204  15.815 -0.1053  0.6114 -0.4940
19101TIP3    H178718   4.720   6.271  15.749  0.4094 -0.0370 -1.2900
19101TIP3    H278719   4.652   6.155  15.818 -1.2474  2.4981  1.5877
19102TIP3   OH278720   2.301   6.672  16.499  0.6130 -0.0745  0.0495
19102TIP3    H178721   2.256   6.669  16.584  1.1520  0.8240  0.3799
19102TIP3    H278722   2.337   6.760  16.494 -0.9163  0.5411 -1.9011
19103TIP3   OH278723   4.087   3.798  14.758 -0.8707  1.1303  0.1855
19103TIP3    H178724   4.170   3.844  14.767  0.2445  0.3595 -4.1688
19103TIP3    H278725   4.069   3.797  14.664 -3.6088 -2.5118  0.5118
19104TIP3   OH278726   4.464   2.496  14.558  0.1932 -0.3974 -0.0608
19104TIP3    H178727   4.532   2.546  14.513 -0.0365 -0.2603 -0.2613
19104TIP3    H278728   4.382   2.534  14.527 -0.0565 -2.1350 -1.6999
19105TIP3   OH278729   3.020   2.235   5.016 -0.1156  0.0242 -0.0391
19105TIP3    H178730   3.075   2.182   4.958 -0.9174  0.1707 -0.9513
19105TIP3    H278731   2.935   2.239   4.972 -0.1207  1.9630  0.0645
19106TIP3   OH278732   3.383   4.708  13.868  0.1351 -0.9100  0.7558
19106TIP3    H178733   3.295   4.692  13.901 -0.1459 -2.1460 -0.4891
19106TIP3    H278734   3.440   4.690  13.942 -0.5989 -1.1227  1.2816
19107TIP3   OH278735   4.201   2.700  11.935  0.5281 -0.2968 -0.4716
19107TIP3    H178736   4.162   2.641  11.871 -0.3944 -0.2185 -0.0026
19107TIP3    H278737   4.219   2.644  12.011  1.2274 -0.3054 -0.6353
19108TIP3   OH278738   0.189   1.633   3.104 -0.3787  0.2742  0.2187
19108TIP3    H178739   0.161   1.721   3.128  0.9965  0.5413  0.8971
19108TIP3    H278740   0.127   1.575   3.149 -1.1909  0.8667 -0.1019
19109TIP3   OH278741   2.280   1.394  17.176 -0.6294 -0.3876  0.6691
19109TIP3    H178742   2.309   1.310  17.211 -2.0836 -1.5575 -0.7695
19109TIP3    H278743   2.213   1.424  17.237  0.0993 -0.1052  1.3450
19110TIP3   OH278744   3.195   2.564   4.711  0.2832 -0.0154 -0.7399
19110TIP3    H178745   3.207   2.596   4.800 -1.2596  2.6357 -1.3787
19110TIP3    H278746   3.233   2.476   4.712  2.0874  0.6589  1.9909
19111TIP3   OH278747   3.636   2.134  17.347  0.2330  0.3513 -0.0125
19111TIP3    H178748   3.581   2.060  17.321 -0.1015  0.7010 -0.2972
19111TIP3    H278749   3.725   2.105  17.326  0.2706 -0.5751  1.2737
19112TIP3   OH278750   1.853   1.403   1.804 -0.3687 -0.3396 -0.3097
19112TIP3    H178751   1.857   1.415   1.899 -3.0240 -0.9106 -0.0548
19112TIP3    H278752   1.789   1.468   1.775 -2.4139 -2.6292 -1.1569
19113TIP3   OH278753   3.172   3.146  11.510 -0.4049  0.5246  0.2488
19113TIP3    H178754   3.260   3.167  11.542  0.8519 -0.1097 -2.4857
19113TIP3    H278755   3.149   3.220  11.455 -0.4287 -0.4687 -1.1150
19114TIP3   OH278756   2.524   0.996  11.900  0.0641  0.0170 -0.0531
19114TIP3    H178757   2.538   0.982  11.806 -0.2206 -0.6969  0.0009
19114TIP3    H278758   2.435   0.965  11.916  0.1132  0.1302  0.4502
19115TIP3   OH278759   2.113   3.653   1.535 -0.6607  0.6987  0.2142
19115TIP3    H178760   2.026   3.619   1.518 -1.0172  1.0593  1.2429
19115TIP3    H278761   2.162   3.578   1.569 -0.2340  0.2251 -1.3682
19116TIP3   OH278762   3.720   4.559  14.896 -0.1879  0.0809 -0.1921
19116TIP3    H178763   3.660   4.527  14.963 -1.0968  3.5262  0.8398
19116TIP3    H278764   3.807   4.545  14.932 -0.5376 -0.9454  0.2841
19117TIP3   OH278765   1.282   5.003  13.610 -0.0570 -0.3480 -0.7954
19117TIP3    H178766   1.212   4.962  13.660 -0.9900 -0.7397 -2.3639
19117TIP3    H278767   1.329   4.930  13.570  0.0453 -0.0135 -1.2958
19118TIP3   OH278768   3.578   5.366  10.688  0.3130 -0.1372  0.0595
19118TIP3    H178769   3.500   5.330  10.731 -1.0792 -0.8053 -2.7580
19118TIP3    H278770   3.643   5.297  10.694  0.2272 -0.1437  1.1696
19119TIP3   OH278771   5.759   2.485   5.702  0.4378  0.3556 -0.0435
19119TIP3    H178772   5.752   2.390   5.691 -0.7828  0.6637 -2.7196
19119TIP3    H278773   5.853   2.503   5.696  0.5218 -0.5076 -1.9811
19120TIP3   OH278774   5.695   2.779   4.981  0.0288  0.1497  0.1955
19120TIP3    H178775   5.629   2.728   5.029  0.5958 -0.9096 -0.1238
19120TIP3    H278776   5.707   2.733   4.899  0.3081  1.0051 -0.2580
19121TIP3   OH278777   4.749   0.705   5.533 -0.7493  0.0019  0.0670
19121TIP3    H178778   4.821   0.760   5.501  1.4458 -1.9099  1.3683
19121TIP3    H278779   4.746   0.631   5.473  0.2900 -1.2856  1.5102
19122TIP3   OH278780   5.236   1.092   2.248  0.1283 -0.0099 -0.0620
19122TIP3    H178781   5.324   1.080   2.282  0.3857  3.1054  0.6228
19122TIP3    H278782   5.235   1.043   2.166  2.8852  0.8288 -0.6877
19123TIP3   OH278783   4.824   1.415  14.990 -0.8671  0.4701 -0.1890
19123TIP3    H178784   4.753   1.472  15.020 -2.3550 -1.4874  0.1881
19123TIP3    H278785   4.833   1.349  15.058  1.0454  0.3820 -0.4544
19124TIP3   OH278786   0.146   6.736  16.362 -0.0656 -0.0359  0.1058
19124TIP3    H178787   0.151   6.782  16.445  0.2445 -1.9878  1.2285
19124TIP3    H278788   0.150   6.643  16.385  0.8313 -0.6306 -2.1334
19125TIP3   OH278789   4.140   0.294  11.608  0.1959  0.2624  0.5804
19125TIP3    H178790   4.047   0.271  11.604  0.2678 -0.1251  1.0696
19125TIP3    H278791   4.144   0.365  11.672 -0.0662  1.9027 -1.1306
19126TIP3   OH278792   6.715   6.660   1.016 -0.5602  0.2357  0.1519
19126TIP3    H178793   6.632   6.617   0.997  0.3046 -1.4000 -0.0578
19126TIP3    H278794   6.782   6.599   0.986  0.7513  2.2472 -1.3007
19127TIP3   OH278795   5.589   1.117  13.761  1.2081  0.6543 -0.0002
19127TIP3    H178796   5.561   1.128  13.851  0.2964  0.1146 -0.1996
19127TIP3    H278797   5.683   1.100  13.766  0.6720 -2.9041  1.2026
19128TIP3   OH278798   2.688   4.802  14.457  0.0586  0.1998 -0.1512
19128TIP3    H178799   2.733   4.812  14.374  0.5906 -0.5677  0.0420
19128TIP3    H278800   2.597   4.824  14.437  0.5932  2.3772 -0.4027
19129TIP3   OH278801   4.898   3.732  13.440  0.0346 -0.6024  0.1081
19129TIP3    H178802   4.972   3.688  13.481  0.4078  0.1271  0.2359
19129TIP3    H278803   4.922   3.736  13.347  0.8688  0.9600  0.3562
19130TIP3   OH278804   2.136   0.566  12.137  0.2836  0.2637  0.0647
19130TIP3    H178805   2.041   0.575  12.132  0.4025  1.0671 -1.0025
19130TIP3    H278806   2.152   0.529  12.224 -1.1370 -2.0079 -0.5662
19131TIP3   OH278807   3.947   2.819  13.802 -0.2201 -0.4753  0.0649
19131TIP3    H178808   3.901   2.874  13.865  2.0942  0.8316  0.7121
19131TIP3    H278809   3.950   2.872  13.722 -0.1904 -0.7190 -0.0951
19132TIP3   OH278810   5.499   3.283   0.141 -0.0948 -0.5203  0.2003
19132TIP3    H178811   5.450   3.356   0.179 -1.8558 -0.8706 -1.2489
19132TIP3    H278812   5.556   3.324   0.076 -0.4761 -0.3530 -0.0318
19133TIP3   OH278813   1.431   3.512  12.860  0.7381 -0.0620 -0.2916
19133TIP3    H178814   1.416   3.537  12.769 -0.7185  0.9193  0.1840
19133TIP3    H278815   1.407   3.419  12.864  0.2351  0.0461 -0.7767
19134TIP3   OH278816   4.999   2.329   0.334 -0.4266 -0.2422 -0.3929
19134TIP3    H178817   4.916   2.376   0.335  0.6512  1.7593 -0.3875
19134TIP3    H278818   4.989   2.265   0.263 -2.2607 -0.6866  0.1977
19135TIP3   OH278819   3.368   3.749  16.266  0.1736  0.2491 -0.6053
19135TIP3    H178820   3.318   3.687  16.213  1.9647 -0.8049 -1.1472
19135TIP3    H278821   3.459   3.721  16.256  0.8917  2.1079  0.3199
19136TIP3   OH278822   0.512   0.450  16.319 -0.1721  0.2954  0.8975
19136TIP3    H178823   0.584   0.506  16.291 -0.4326 -0.5782 -1.7313
19136TIP3    H278824   0.444   0.464  16.254 -1.4768 -0.6707  2.0055
19137TIP3   OH278825   6.711   1.660   5.881  0.1151 -0.0709  0.2004
19137TIP3    H178826   6.726   1.736   5.938  0.6854 -1.2277  1.6421
19137TIP3    H278827   6.667   1.596   5.937  0.9697 -1.3644 -0.5632
19138TIP3   OH278828   3.655   2.495  11.498 -0.4014 -0.0846 -0.1805
19138TIP3    H178829   3.588   2.521  11.561 -0.9435  0.0339 -0.8048
19138TIP3    H278830   3.709   2.431  11.545 -0.5097  0.3656  0.5638
19139TIP3   OH278831   4.957   1.490   6.184  0.0534  0.1764  0.7661
19139TIP3    H178832   4.870   1.507   6.221  0.1631  4.3206 -0.4331
19139TIP3    H278833   5.017   1.531   6.246  0.7478  1.3415 -0.6338
19140TIP3   OH278834   0.370   2.163  12.889 -0.0611  0.3056 -0.1325
19140TIP3    H178835   0.432   2.231  12.863 -1.5488  0.9450 -2.3323
19140TIP3    H278836   0.285   2.206  12.885 -1.0195 -1.5856 -1.3760
19141TIP3   OH278837   5.425   2.835   3.989 -0.6221  0.1967  0.9441
19141TIP3    H178838   5.382   2.806   4.069 -1.8053 -1.1327 -0.1031
19141TIP3    H278839   5.465   2.756   3.953 -0.5275  0.6628 -0.0104
19142TIP3   OH278840   1.029   1.894   4.897 -0.8580  0.5799 -0.7484
19142TIP3    H178841   0.977   1.962   4.939 -1.0260 -0.0136  0.0089
19142TIP3    H278842   1.118   1.911   4.926 -0.6982  1.2258 -1.5630
19143TIP3   OH278843   6.616   2.961   2.648 -0.3265  0.5671 -0.1616
19143TIP3    H178844   6.681   2.977   2.717  0.1797  0.6403 -0.6526
19143TIP3    H278845   6.598   2.868   2.654 -1.0871  0.7573  0.7723
19144TIP3   OH278846   6.645   1.247   1.362 -0.0722 -0.2566 -0.0504
19144TIP3    H178847   6.557   1.269   1.330 -0.4384 -1.0771  0.3619
19144TIP3    H278848   6.692   1.330   1.364 -0.9242  0.2305 -0.0220
19145TIP3   OH278849   5.885   3.158   3.902  0.5401 -0.1685 -0.7520
19145TIP3    H178850   5.956   3.109   3.863  0.5610  0.7077 -1.8778
19145TIP3    H278851   5.920   3.246   3.915  0.9205 -0.6483  2.3813
19146TIP3   OH278852   5.166   0.491  12.021  0.1737 -0.1384 -0.5724
19146TIP3    H178853   5.096   0.555  12.010 -1.0061 -1.5648 -1.6649
19146TIP3    H278854   5.164   0.438  11.941  2.4680 -0.2856 -0.6219
19147TIP3   OH278855   4.695   1.290   0.734  0.0767  0.2375 -0.0821
19147TIP3    H178856   4.742   1.225   0.787  0.5843  0.3599 -0.3725
19147TIP3    H278857   4.738   1.373   0.755  0.2244  0.3013 -0.6138
19148TIP3   OH278858   1.791   4.893   1.794  0.0852  0.2058  0.4850
19148TIP3    H178859   1.739   4.933   1.724  1.6053  0.6824 -0.4127
19148TIP3    H278860   1.766   4.800   1.792  0.4371  0.1175 -1.0147
19149TIP3   OH278861   5.753   0.983   3.321  0.4946  0.1930 -0.4348
19149TIP3    H178862   5.724   0.904   3.366 -0.6050 -0.0272 -1.5013
19149TIP3    H278863   5.778   0.954   3.233  1.7195  0.7697 -0.3044
19150TIP3   OH278864   0.463   0.900  11.221 -0.5623 -0.3592  0.1938
19150TIP3    H178865   0.484   0.808  11.236  0.6322 -0.0592  0.4332
19150TIP3    H278866   0.508   0.922  11.139  1.1104  0.6004  1.2980
19151TIP3   OH278867   0.750   5.624   3.271  0.2403  0.0831 -0.1794
19151TIP3    H178868   0.811   5.563   3.314  0.3687  0.4662  0.1913
19151TIP3    H278869   0.680   5.637   3.335  0.1892  0.2859 -0.2768
19152TIP3   OH278870   1.721   6.565  16.440 -0.2154  1.1314  0.2432
19152TIP3    H178871   1.645   6.572  16.498  0.5167  1.9993  1.1358
19152TIP3    H278872   1.731   6.652  16.403 -0.4849  0.6607 -0.9855
19153TIP3   OH278873   0.995   5.234   6.461 -0.0338 -0.4881 -0.5027
19153TIP3    H178874   1.050   5.165   6.499 -0.2721 -1.0853 -1.1971
19153TIP3    H278875   1.055   5.308   6.448  0.0397 -0.2347  1.0480
19154TIP3   OH278876   2.178   2.956  12.507  0.3892 -0.0210 -0.1607
19154TIP3    H178877   2.261   2.948  12.460  0.3964 -1.0753  0.0107
19154TIP3    H278878   2.200   2.935  12.598 -0.3693 -2.1468 -0.4169
19155TIP3   OH278879   0.055   1.551   0.677 -0.2943 -0.0736  0.2734
19155TIP3    H178880   0.142   1.545   0.637 -0.1794  1.3381  0.2781
19155TIP3    H278881   0.070   1.534   0.770 -0.0736 -0.1341  0.2270
19156TIP3   OH278882   3.955   4.035   0.054 -0.3946  0.0044  0.4265
19156TIP3    H178883   4.017   4.106   0.073 -0.1718 -0.2534  0.6867
19156TIP3    H278884   3.973   4.011  -0.036 -1.1539  0.9414  0.0067
19157TIP3   OH278885   2.823   3.464   1.545 -0.1654  0.1307  0.5548
19157TIP3    H178886   2.777   3.397   1.494  0.2943  1.1639 -1.3364
19157TIP3    H278887   2.757   3.531   1.561  0.0981  0.5851 -0.2035
19158TIP3   OH278888   6.117   3.980   1.326 -0.3972 -0.2974 -0.1324
19158TIP3    H178889   6.044   3.919   1.330 -1.3336  0.8110  0.3688
19158TIP3    H278890   6.085   4.059   1.370  1.1565  0.1717  0.2356
19159TIP3   OH278891   0.028   5.252   5.769 -0.3657  0.0218  0.3461
19159TIP3    H178892   0.027   5.325   5.830  2.6675  0.8075 -0.4025
19159TIP3    H278893   0.028   5.293   5.682 -0.1997 -0.9385 -0.1179
19160TIP3   OH278894   6.421   2.897   2.894  0.2276 -0.2357  0.0978
19160TIP3    H178895   6.499   2.851   2.925  1.3562 -0.7208 -3.0732
19160TIP3    H278896   6.450   2.988   2.882 -0.1774 -0.0657  0.3733
19161TIP3   OH278897   0.423   6.655   1.845  0.6237  0.1279  0.5991
19161TIP3    H178898   0.401   6.687   1.933  1.0899  1.6782  0.1784
19161TIP3    H278899   0.518   6.661   1.841  0.7024 -1.1191  0.4081
19162TIP3   OH278900   6.714   1.778   1.529 -0.8209  0.1498 -0.2227
19162TIP3    H178901   6.681   1.730   1.453 -1.3341 -3.5286  2.0711
19162TIP3    H278902   6.800   1.740   1.546 -1.2194  0.0042  1.6804
19163TIP3   OH278903   0.449   6.159   3.728  0.4707  1.0167 -0.0793
19163TIP3    H178904   0.531   6.149   3.681 -0.8118 -0.6219 -2.2001
19163TIP3    H278905   0.383   6.170   3.659 -1.3240  0.2197  1.4082
19164TIP3   OH278906   1.444   3.715  16.771 -0.2116  0.2502 -0.2055
19164TIP3    H178907   1.476   3.799  16.805 -0.0618  0.3759 -0.6433
19164TIP3    H278908   1.436   3.729  16.677 -1.1330  0.0750 -0.1576
19165TIP3   OH278909   1.792   3.023  14.333 -0.0797 -0.0301  0.2026
19165TIP3    H178910   1.795   2.980  14.418  1.4311  2.0884  1.3158
19165TIP3    H278911   1.729   2.972  14.282 -0.8270 -1.5191  2.4813
19166TIP3   OH278912   1.071   3.121  15.694  0.3084 -0.8978  0.3094
19166TIP3    H178913   1.015   3.188  15.733  0.7756  0.2029 -0.8497
19166TIP3    H278914   1.151   3.167  15.670 -0.1880 -1.3146 -2.5082
19167TIP3   OH278915   3.496   6.314   0.882  0.0394 -0.2746 -0.4106
19167TIP3    H178916   3.431   6.245   0.889 -0.5440  0.1179 -1.7206
19167TIP3    H278917   3.577   6.269   0.859  0.0011 -0.6607  0.2030
19168TIP3   OH278918   3.889   5.679   0.626  0.2947  0.0092  0.0029
19168TIP3    H178919   3.920   5.634   0.548  0.9973  0.9292 -0.2574
19168TIP3    H278920   3.871   5.608   0.688  1.0327 -0.6589 -0.5185
19169TIP3   OH278921   5.036   0.285  16.554  0.0470 -0.4116  0.0070
19169TIP3    H178922   5.024   0.297  16.648  0.8147  0.7501 -0.0208
19169TIP3    H278923   4.948   0.269  16.520 -0.4794  0.8430  0.7110
19170TIP3   OH278924   5.726   5.700   0.283  0.1352  0.1735  0.2753
19170TIP3    H178925   5.651   5.691   0.342  0.8788 -0.5093  1.1561
19170TIP3    H278926   5.723   5.622   0.227 -0.3390  0.6180 -0.3268
19171TIP3   OH278927   2.274   2.478   5.243 -0.0890 -0.2567  0.7997
19171TIP3    H178928   2.339   2.407   5.247  0.4626  0.2209  0.5206
19171TIP3    H278929   2.198   2.439   5.200 -0.4511 -1.1654  2.1898
19172TIP3   OH278930   0.270   3.755   0.839  0.5662  0.0965  0.0655
19172TIP3    H178931   0.295   3.692   0.906 -2.4072 -0.2974  0.9451
19172TIP3    H278932   0.237   3.701   0.767  1.9551  0.5812 -0.9741
19173TIP3   OH278933   4.630   5.919  14.997  0.6190 -0.0016  0.3572
19173TIP3    H178934   4.625   5.960  14.910  0.2184 -0.9297 -0.0693
19173TIP3    H278935   4.574   5.841  14.990  1.1588 -0.4783  1.2300
19174TIP3   OH278936   4.725   1.586   2.317 -0.3005  0.0924  0.4335
19174TIP3    H178937   4.699   1.499   2.345 -0.6539  0.1786  0.3825
19174TIP3    H278938   4.658   1.611   2.253  1.1173 -0.5913 -1.4237
19175TIP3   OH278939   4.474   0.710  16.197  0.2035 -0.2388 -0.0563
19175TIP3    H178940   4.506   0.713  16.106  1.5068  1.5098  0.4060
19175TIP3    H278941   4.443   0.799  16.214 -1.6979 -1.0048  0.6855
19176TIP3   OH278942   1.151   6.498  16.630 -0.0297 -0.4785 -0.3346
19176TIP3    H178943   1.172   6.518  16.539 -1.2207  1.2312 -0.2723
19176TIP3    H278944   1.154   6.583  16.675 -2.4887 -0.7798  0.5605
19177TIP3   OH278945   6.596   6.744  12.454 -0.0406  0.0791  0.0637
19177TIP3    H178946   6.638   6.670  12.411 -1.7826  0.1102 -1.8643
19177TIP3    H278947   6.574   6.712  12.541  0.8340 -1.0687 -0.1144
19178TIP3   OH278948   6.657   4.827   2.777 -0.1680  0.1028  0.1789
19178TIP3    H178949   6.688   4.764   2.711 -1.5230 -0.0287 -0.3777
19178TIP3    H278950   6.735   4.850   2.827  0.9532  0.3298 -1.5682
19179TIP3   OH278951   4.153   4.555  10.555 -0.6138 -0.4517 -0.9525
19179TIP3    H178952   4.097   4.614  10.506 -0.3685 -0.1536 -0.8785
19179TIP3    H278953   4.116   4.468  10.539 -1.7288 -0.1671 -0.0644
19180TIP3   OH278954   2.516   6.208   3.584 -0.3378 -0.7091  0.1531
19180TIP3    H178955   2.487   6.285   3.632 -1.5947 -0.9010 -0.2779
19180TIP3    H278956   2.565   6.157   3.649 -0.0516  0.1302  0.6108
19181TIP3   OH278957   6.434   4.242  17.052 -0.5486 -0.6221  0.9203
19181TIP3    H178958   6.384   4.171  17.012 -0.8636 -0.2715  0.6839
19181TIP3    H278959   6.469   4.291  16.977 -2.1749  0.7819  1.0050
19182TIP3   OH278960   2.600   4.398  12.194 -0.3627  0.5978  0.0324
19182TIP3    H178961   2.649   4.458  12.251 -2.4652  1.0367  1.4898
19182TIP3    H278962   2.552   4.342  12.255 -1.3993 -0.0226 -1.3297
19183TIP3   OH278963   5.044   3.048   1.038  0.1994 -0.0421  0.2706
19183TIP3    H178964   5.092   2.981   0.990  0.1711  0.5951 -0.6741
19183TIP3    H278965   4.981   3.082   0.975  0.7990  1.4751  0.4645
19184TIP3   OH278966   6.264   0.040   4.731 -0.1788  0.1082 -0.3255
19184TIP3    H178967   6.266   0.132   4.702  2.2012  0.5114  0.8942
19184TIP3    H278968   6.336  -0.002   4.684  0.0780 -0.6112  0.6751
19185TIP3   OH278969   2.687   1.922  13.340 -0.2808  0.0149  0.6526
19185TIP3    H178970   2.740   1.983  13.391  0.2544  0.3339 -0.2558
19185TIP3    H278971   2.737   1.908  13.260 -1.4001  0.0584 -0.0825
19186TIP3   OH278972   3.722   0.163   4.231  0.1616 -0.2254 -0.3279
19186TIP3    H178973   3.684   0.184   4.316 -0.4328 -0.9081 -0.4169
19186TIP3    H278974   3.647   0.152   4.173  0.5608  3.7921 -1.8890
19187TIP3   OH278975   4.623   1.870   3.927  0.8683  0.2848  0.4889
19187TIP3    H178976   4.698   1.875   3.867  0.6954 -2.4811 -0.1218
19187TIP3    H278977   4.662   1.853   4.013  1.0116  1.7607  0.7398
19188TIP3   OH278978   5.995   0.610   4.555 -0.0425  0.6090  0.6272
19188TIP3    H178979   6.054   0.603   4.480  0.4253  0.0898  1.0310
19188TIP3    H278980   5.908   0.621   4.517 -0.0257 -1.1899 -0.0455
19189TIP3   OH278981   5.035   0.225   6.307 -0.2315  0.4031 -0.3171
19189TIP3    H178982   5.065   0.277   6.381 -0.5586 -0.3587  0.3752
19189TIP3    H278983   5.100   0.155   6.299 -1.1030 -0.5207  0.3804
19190TIP3   OH278984   1.691   1.443   6.637  0.4952  0.7368  0.1369
19190TIP3    H178985   1.769   1.493   6.613  2.0826 -1.7530 -0.3044
19190TIP3    H278986   1.705   1.417   6.728  0.2038  0.2823  0.0588
19191TIP3   OH278987   5.663   2.624   2.724 -0.1451 -0.1528 -0.5333
19191TIP3    H178988   5.628   2.621   2.813 -0.8956 -1.4957 -0.8420
19191TIP3    H278989   5.742   2.677   2.731 -2.1221  2.9629  0.2006
19192TIP3   OH278990   4.112   3.998   3.202  0.7126  0.1742 -0.3368
19192TIP3    H178991   4.047   3.928   3.208  0.9776  0.0500  2.3342
19192TIP3    H278992   4.065   4.077   3.228  0.9489  0.6167 -1.2192
19193TIP3   OH278993   6.358   2.665  13.815  0.5071 -0.4199  0.8049
19193TIP3    H178994   6.451   2.690  13.815  0.3844  0.1199 -0.5190
19193TIP3    H278995   6.344   2.625  13.729 -0.5012 -0.4515  0.9708
19194TIP3   OH278996   5.957   2.410   4.915  0.1243  0.0900  0.5044
19194TIP3    H178997   6.036   2.455   4.946  0.7746  1.1433 -2.3395
19194TIP3    H278998   5.983   2.370   4.832 -2.1004 -0.3485 -0.0609
19195TIP3   OH278999   0.970   3.702  13.876 -0.1248  0.4278 -0.7756
19195TIP3    H179000   1.048   3.658  13.911 -1.1595  1.4127  3.2961
19195TIP3    H279001   0.898   3.643  13.898 -0.8269  0.8685 -1.8515
19196TIP3   OH279002   1.475   1.323   2.468  0.2185 -0.1162  0.0688
19196TIP3    H179003   1.426   1.244   2.447  1.0413 -1.0614  1.5493
19196TIP3    H279004   1.423   1.366   2.536 -1.1721  1.6406 -1.9668
19197TIP3   OH279005   3.850   4.716   1.190 -0.2126  0.0587 -0.0606
19197TIP3    H179006   3.853   4.622   1.170 -0.3430  0.1821 -0.6970
19197TIP3    H279007   3.938   4.737   1.222  0.3696  0.0643 -1.5687
19198TIP3   OH279008   3.944   0.361   3.024  0.1490 -0.5911  0.0151
19198TIP3    H179009   3.874   0.312   3.067  0.9149 -1.1730  0.6303
19198TIP3    H279010   4.009   0.295   3.000  0.9301  0.0354  0.3216
19199TIP3   OH279011   1.348   0.803   5.089  1.0225 -0.6235  0.3125
19199TIP3    H179012   1.334   0.896   5.105  1.1194 -0.3200 -1.1874
19199TIP3    H279013   1.262   0.763   5.100  0.2430  0.1839 -2.2354
19200TIP3   OH279014   5.410   2.094   5.985 -0.0612 -0.5402  0.0250
19200TIP3    H179015   5.367   2.177   6.004 -1.7382 -1.4879  0.5610
19200TIP3    H279016   5.500   2.118   5.961  0.1405  1.2727  2.2325
19201TIP3   OH279017   0.333   6.249  15.024  0.0649  0.3366 -0.0780
19201TIP3    H179018   0.276   6.327  15.021  0.8276  0.8878 -0.5609
19201TIP3    H279019   0.296   6.195  15.094 -1.9330 -0.0041 -1.3154
19202TIP3   OH279020   5.541   3.198  14.408  0.3675 -0.2437  0.0050
19202TIP3    H179021   5.556   3.239  14.323  2.7369  0.0316  0.4881
19202TIP3    H279022   5.514   3.270  14.465 -1.4406 -0.4640 -0.5049
19203TIP3   OH279023   4.227   2.277  14.791  0.0344  0.0053  0.0251
19203TIP3    H179024   4.133   2.267  14.779 -0.1834  0.9334  0.7913
19203TIP3    H279025   4.239   2.371  14.810  1.3165  0.2705 -1.8432
19204TIP3   OH279026   2.067   3.348  13.672 -0.2988 -0.3584 -0.1754
19204TIP3    H179027   1.991   3.292  13.660 -0.9294  0.0546  1.6049
19204TIP3    H279028   2.070   3.402  13.592 -0.9181 -1.4500 -0.9540
19205TIP3   OH279029   5.989   3.470  17.305 -0.2786 -0.0993 -0.1925
19205TIP3    H179030   5.920   3.405  17.295 -1.6901  1.5565 -1.7320
19205TIP3    H279031   5.943   3.554  17.305  1.6206  0.9904  0.2412
19206TIP3   OH279032   2.780   4.017  16.873  0.2758 -0.6444  0.1756
19206TIP3    H179033   2.832   3.945  16.909 -0.7269 -0.9822  1.0155
19206TIP3    H279034   2.811   4.095  16.919 -0.6558 -0.9997  1.4600
19207TIP3   OH279035   2.994   0.664   4.524 -0.1112  0.2693  0.0979
19207TIP3    H179036   3.016   0.670   4.617 -2.7551  0.4038  0.7933
19207TIP3    H279037   3.076   0.640   4.481  1.5752  1.8767  2.2323
19208TIP3   OH279038   6.313   6.020   1.720  1.4291 -0.4414 -0.2652
19208TIP3    H179039   6.320   5.927   1.744  0.7709 -0.9281 -1.7951
19208TIP3    H279040   6.318   6.020   1.624  1.6105  1.1357 -0.2809
19209TIP3   OH279041   3.044   1.159   1.360 -0.3436 -0.5758  0.8651
19209TIP3    H179042   2.959   1.129   1.327  0.9093 -0.5556 -2.8347
19209TIP3    H279043   3.070   1.091   1.422 -2.0281 -1.8012  0.3345
19210TIP3   OH279044   1.262   5.379   5.006 -0.4597  0.1014 -0.0277
19210TIP3    H179045   1.258   5.456   4.950  1.8252 -1.8816 -3.3116
19210TIP3    H279046   1.181   5.332   4.989 -0.2338  0.0257 -0.9597
19211TIP3   OH279047   1.737   2.625  16.913  0.0759  0.2045 -0.8061
19211TIP3    H179048   1.830   2.640  16.929 -0.4953  1.6048  1.6458
19211TIP3    H279049   1.715   2.547  16.964 -0.4221  0.8815  0.0389
19212TIP3   OH279050   0.073   1.494   2.578  0.2304  0.5897  0.0519
19212TIP3    H179051  -0.012   1.535   2.596 -0.5897 -1.7087  1.8287
19212TIP3    H279052   0.122   1.505   2.659  0.2659 -1.1709  0.3082
19213TIP3   OH279053   2.693   1.342   4.219  0.0342 -0.0341 -0.7695
19213TIP3    H179054   2.686   1.254   4.182  0.1593 -1.1448  1.6352
19213TIP3    H279055   2.787   1.354   4.235  0.2833  1.4495 -2.9989
19214TIP3   OH279056   5.203   4.611   1.395 -0.1290 -0.4986  0.0697
19214TIP3    H179057   5.159   4.546   1.340 -1.0487 -0.5015  0.7896
19214TIP3    H279058   5.155   4.609   1.478  0.8920 -0.1061  0.6916
19215TIP3   OH279059   0.206   5.802  11.839  0.2593  0.2680  0.3944
19215TIP3    H179060   0.156   5.869  11.793  0.3854 -1.4963 -2.5639
19215TIP3    H279061   0.143   5.762  11.899 -1.7028 -1.1207 -2.3930
19216TIP3   OH279062   4.957   0.785   3.049 -0.2111 -0.0374 -0.1100
19216TIP3    H179063   4.923   0.752   3.132  2.4429 -0.8187  0.7512
19216TIP3    H279064   4.915   0.731   2.983  0.8047 -2.3406  1.0212
19217TIP3   OH279065   0.353   1.072   0.090  0.1716  0.1539  0.3099
19217TIP3    H179066   0.318   0.987   0.064 -3.2481  1.5544 -0.1690
19217TIP3    H279067   0.417   1.093   0.022 -0.2893 -1.2079 -0.5944
19218TIP3   OH279068   5.687   3.692  16.819 -0.5830  0.0115  0.3470
19218TIP3    H179069   5.617   3.630  16.796 -1.1274  0.3373  1.1033
19218TIP3    H279070   5.643   3.777  16.825  0.3353  0.6878 -1.6982
19219TIP3   OH279071   1.074   1.624   2.785 -0.4817 -0.4640  0.2932
19219TIP3    H179072   0.992   1.605   2.741  0.0272 -0.8104 -0.5376
19219TIP3    H279073   1.090   1.549   2.841 -0.4496 -0.6676  0.0152
19220TIP3   OH279074   5.023   1.046  16.313 -0.1612  0.1054 -0.1001
19220TIP3    H179075   5.050   1.138  16.317 -0.0829  0.0677  0.2859
19220TIP3    H279076   5.011   1.021  16.404  1.2150 -0.6663 -0.1031
19221TIP3   OH279077   2.538   3.383   1.646 -0.3639 -0.1880 -0.2182
19221TIP3    H179078   2.615   3.373   1.702 -0.2102 -1.3050 -0.6099
19221TIP3    H279079   2.563   3.342   1.564 -0.9115  0.6381 -0.8074
19222TIP3   OH279080   4.251   3.879   3.538  0.4062 -0.3805  0.0095
19222TIP3    H179081   4.166   3.877   3.493 -0.3453 -0.4067  1.3685
19222TIP3    H279082   4.242   3.949   3.603  1.6614  0.0326 -0.2312
19223TIP3   OH279083   5.877   5.192  16.244  0.2343 -0.3801 -0.7157
19223TIP3    H179084   5.924   5.112  16.221 -0.9181 -0.8775 -1.4736
19223TIP3    H279085   5.833   5.218  16.163  0.1502  0.7187 -0.3383
19224TIP3   OH279086   5.258   6.161   1.822  0.4519  0.2915  0.3462
19224TIP3    H179087   5.324   6.132   1.886  2.2081 -0.6124 -1.7257
19224TIP3    H279088   5.310   6.187   1.746 -1.5597  1.1418 -0.7879
19225TIP3   OH279089   5.352   1.140  11.303 -0.8292 -0.8055 -0.3265
19225TIP3    H179090   5.444   1.114  11.300 -0.6619 -1.0317  3.0271
19225TIP3    H279091   5.337   1.184  11.219  2.2316 -0.9816 -1.0926
19226TIP3   OH279092   1.277   3.554  12.223  0.4455 -0.1441  0.8866
19226TIP3    H179093   1.186   3.551  12.193  0.3422 -1.3039  1.2964
19226TIP3    H279094   1.286   3.480  12.283  1.4657  0.3836  1.4251
19227TIP3   OH279095   0.914   2.021   2.440  0.0396  0.1736 -0.1440
19227TIP3    H179096   0.919   1.967   2.362 -0.2274  0.8260 -0.6199
19227TIP3    H279097   0.876   2.104   2.410 -3.4738 -0.7408  1.3063
19228TIP3   OH279098   0.396   0.201  15.054 -0.1500  0.2350 -0.1100
19228TIP3    H179099   0.460   0.244  15.111 -0.9105 -0.6175  1.4497
19228TIP3    H279100   0.432   0.114  15.040  0.4114  0.6886 -1.6138
19229TIP3   OH279101   2.341   3.065   4.973 -0.3227 -0.0398  0.2818
19229TIP3    H179102   2.384   3.018   4.902  0.0382  0.5340  0.1114
19229TIP3    H279103   2.401   3.137   4.994 -0.2043 -0.4548  1.4708
19230TIP3   OH279104   3.347   5.405   1.782  0.1918 -0.1838  0.0711
19230TIP3    H179105   3.273   5.350   1.758  0.5415 -1.1195  1.0787
19230TIP3    H279106   3.422   5.346   1.783  0.4839  0.1673  1.7155
19231TIP3   OH279107   3.385   5.486   4.999  0.1951 -0.1664 -0.1285
19231TIP3    H179108   3.345   5.497   5.086 -0.6454 -0.9566 -0.3883
19231TIP3    H279109   3.345   5.405   4.966  1.1786 -0.3488 -0.8868
19232TIP3   OH279110   4.553   1.008  14.653  0.4122 -0.3226 -0.0804
19232TIP3    H179111   4.556   1.043  14.742  0.5288 -0.7274  0.0768
19232TIP3    H279112   4.483   0.943  14.655  0.8899 -0.8496 -0.0886
19233TIP3   OH279113   3.395   1.148  16.820  0.7763 -0.1732 -0.2942
19233TIP3    H179114   3.380   1.053  16.827  2.0019 -0.3983 -0.6060
19233TIP3    H279115   3.325   1.186  16.872 -0.7168 -1.1863 -1.4462
19234TIP3   OH279116   0.977   3.587   0.278  0.0145  0.4606  0.6523
19234TIP3    H179117   1.058   3.599   0.228 -0.3045  0.0301  0.0258
19234TIP3    H279118   0.949   3.676   0.300 -0.3639  0.7207 -0.7903
19235TIP3   OH279119   4.816   6.356  16.563  0.1386  0.1992  0.3684
19235TIP3    H179120   4.799   6.269  16.601  1.2087  0.1606  0.7994
19235TIP3    H279121   4.768   6.416  16.620  1.0645  0.0642  1.3242
19236TIP3   OH279122   3.729   0.772   5.738 -0.1332  0.3239  0.4918
19236TIP3    H179123   3.786   0.789   5.663 -1.2070 -0.6901 -0.5870
19236TIP3    H279124   3.789   0.745   5.808  0.8015  0.2321 -0.3240
19237TIP3   OH279125   4.906   5.033  12.030 -0.1003 -0.2535 -0.3051
19237TIP3    H179126   4.948   4.984  12.101  0.2346 -0.9187 -0.9505
19237TIP3    H279127   4.893   4.968  11.961 -1.2027  0.1951 -0.5330
19238TIP3   OH279128   1.300   4.245   5.980 -0.4243  0.1422  0.0371
19238TIP3    H179129   1.379   4.224   6.031 -0.3518  0.7950  0.2069
19238TIP3    H279130   1.313   4.201   5.896 -0.1723 -0.2794  0.2958
19239TIP3   OH279131   6.489   1.989   5.827 -0.1778 -0.4234  0.0029
19239TIP3    H179132   6.517   1.924   5.762  1.5594  0.9533 -0.7338
19239TIP3    H279133   6.394   1.988   5.823 -0.1792 -2.3603 -0.5229
19240TIP3   OH279134   5.476   0.216   5.497 -0.6334  0.2321 -0.2103
19240TIP3    H179135   5.504   0.172   5.577  2.4614 -1.1600 -1.9101
19240TIP3    H279136   5.496   0.308   5.512 -1.1930  0.1747  1.0033
19241TIP3   OH279137   1.386   0.510  13.242 -0.3003 -0.1520 -0.2282
19241TIP3    H179138   1.338   0.585  13.207  0.7852  0.8567  0.3867
19241TIP3    H279139   1.318   0.444  13.257 -1.3347  0.8069 -0.4746
19242TIP3   OH279140   1.769   2.864   1.150  0.4028  0.1473  0.4336
19242TIP3    H179141   1.765   2.769   1.160  1.1254 -0.2392 -2.2447
19242TIP3    H279142   1.845   2.890   1.202 -0.4694 -0.5343  2.1332
19243TIP3   OH279143   0.801   3.825  11.781  0.2048 -0.5687  1.0684
19243TIP3    H179144   0.784   3.805  11.689 -1.5911  2.3417  0.6585
19243TIP3    H279145   0.888   3.864  11.782  0.2484 -0.6535  0.6413
19244TIP3   OH279146   0.606   2.378  13.968  0.8310  0.9488  0.5997
19244TIP3    H179147   0.513   2.382  13.947  0.9184 -1.3038 -0.4980
19244TIP3    H279148   0.630   2.469  13.987 -1.3183  1.7543 -0.1968
19245TIP3   OH279149   0.607   6.623  16.023  0.3421 -0.4162  0.6860
19245TIP3    H179150   0.658   6.689  15.976 -1.6338  1.0595  0.4497
19245TIP3    H279151   0.554   6.673  16.085 -2.2327 -1.5656 -0.4405
19246TIP3   OH279152   3.076   5.087  15.718 -0.0429 -0.0632  0.6973
19246TIP3    H179153   3.151   5.142  15.696  0.0972 -0.3088  0.5569
19246TIP3    H279154   3.001   5.131  15.678  0.1791 -0.3887 -0.0904
19247TIP3   OH279155   5.036   0.549   4.284  0.3022 -0.5016 -0.2937
19247TIP3    H179156   5.052   0.562   4.190  0.0678 -0.5736 -0.3440
19247TIP3    H279157   5.108   0.494   4.313  2.2612  2.1591  0.2710
19248TIP3   OH279158   0.650   6.353  11.349  0.0816 -0.0935 -0.0428
19248TIP3    H179159   0.702   6.354  11.429 -0.6329  2.3669  0.4955
19248TIP3    H279160   0.687   6.423  11.295 -1.3208  0.3128 -0.5322
19249TIP3   OH279161   5.730   6.009   6.256 -0.5327  0.1488 -0.2785
19249TIP3    H179162   5.777   5.928   6.275 -0.5233  0.3728  0.6924
19249TIP3    H279163   5.637   5.984   6.261 -0.5636 -0.3050 -2.2464
19250TIP3   OH279164   3.569   1.032  15.270 -0.2483  0.0910 -0.3085
19250TIP3    H179165   3.568   0.936  15.276  1.2783  0.0629 -0.2248
19250TIP3    H279166   3.484   1.058  15.304 -1.1684 -1.2785 -1.4091
19251TIP3   OH279167   2.413   6.381  17.362 -0.3025 -0.3405  0.1096
19251TIP3    H179168   2.359   6.307  17.334 -0.8252 -0.1336  0.5564
19251TIP3    H279169   2.470   6.399  17.287 -0.1697 -1.1871 -0.0097
19252TIP3   OH279170   3.404   1.481   4.255 -0.3052 -0.6181 -0.3331
19252TIP3    H179171   3.358   1.398   4.241  0.0509 -0.9852  0.6208
19252TIP3    H279172   3.340   1.537   4.298 -0.5916 -0.3371 -1.1045
19253TIP3   OH279173   3.557   0.649   2.396 -0.0173 -0.1082 -0.1616
19253TIP3    H179174   3.544   0.579   2.459 -1.9345 -0.7849 -1.2172
19253TIP3    H279175   3.547   0.607   2.311 -0.0376  1.2443 -0.8523
19254TIP3   OH279176   3.064   2.086   1.219 -0.0112 -0.3107  0.0735
19254TIP3    H179177   3.148   2.130   1.204 -0.5830  1.3856  1.5071
19254TIP3    H279178   3.040   2.051   1.134  2.0393 -0.6601 -0.4265
19255TIP3   OH279179   3.851   5.261   3.017 -0.2024 -0.3345  0.2091
19255TIP3    H179180   3.941   5.275   3.047 -0.8496  1.7429  1.4296
19255TIP3    H279181   3.799   5.260   3.098 -1.8284  3.7003 -0.5529
19256TIP3   OH279182   6.198   1.007  13.795  0.1012  0.3088 -0.0833
19256TIP3    H179183   6.177   1.071  13.863 -0.2647  1.6631 -1.4243
19256TIP3    H279184   6.279   1.040  13.754  1.0789 -1.2035  0.5283
19257TIP3   OH279185   0.791   5.360  11.164  0.4134  0.2402 -0.8561
19257TIP3    H179186   0.882   5.372  11.190  0.2370  1.6609 -0.8085
19257TIP3    H279187   0.785   5.402  11.078 -0.3284  0.6703 -0.6022
19258TIP3   OH279188   2.250   0.728   0.910  0.5161 -0.3744  0.1075
19258TIP3    H179189   2.210   0.700   0.992 -0.1612  1.1989  0.3682
19258TIP3    H279190   2.243   0.653   0.852  1.7567 -1.8076  1.7327
19259TIP3   OH279191   4.905   3.724   4.420 -0.1570 -0.3565 -0.1985
19259TIP3    H179192   4.980   3.666   4.407  0.0584  0.2846 -2.1571
19259TIP3    H279193   4.945   3.810   4.437 -0.4604 -0.3224  0.3509
19260TIP3   OH279194   2.397   3.226   1.978 -0.2767 -0.6341  0.6926
19260TIP3    H179195   2.387   3.133   1.957 -2.2951 -0.4455  0.5652
19260TIP3    H279196   2.309   3.253   2.006  0.5404  0.9778  1.8005
19261TIP3   OH279197   3.539   3.640   4.419  0.3042  0.1999 -0.2413
19261TIP3    H179198   3.484   3.683   4.484 -0.5764 -0.2805 -0.6456
19261TIP3    H279199   3.536   3.547   4.442  0.5403  0.1116 -0.5527
19262TIP3   OH279200   2.859   1.974  15.608  0.3398 -0.3722 -0.1486
19262TIP3    H179201   2.950   1.950  15.624  0.1353 -2.2538 -1.5214
19262TIP3    H279202   2.864   2.060  15.567  1.4431 -0.2157  0.2836
19263TIP3   OH279203   0.300   5.290  17.185 -0.6225  0.2815 -0.1551
19263TIP3    H179204   0.325   5.382  17.180  0.5810 -0.0259 -0.1443
19263TIP3    H279205   0.382   5.242  17.179 -0.8853 -0.7354  2.5173
19264TIP3   OH279206   0.402   5.481   1.553 -0.6501  0.3154 -0.6315
19264TIP3    H179207   0.493   5.505   1.569 -0.2564 -1.7419  0.6862
19264TIP3    H279208   0.355   5.564   1.551  0.9201  1.3344  1.0604
19265TIP3   OH279209   4.001   5.964  14.867 -0.3514 -0.4177 -0.1387
19265TIP3    H179210   4.095   5.961  14.880 -0.6171  0.4856  2.6795
19265TIP3    H279211   3.981   6.058  14.856 -0.8741 -0.6573 -1.4494
19266TIP3   OH279212   1.357   5.636  12.335 -0.4263 -0.7445 -0.5102
19266TIP3    H179213   1.371   5.721  12.293 -0.9698 -0.4318 -0.0595
19266TIP3    H279214   1.441   5.590  12.323  0.7978  0.8126  1.5187
19267TIP3   OH279215   4.718   4.504   2.375 -0.2972  0.6744 -0.8061
19267TIP3    H179216   4.798   4.480   2.329  2.2086  1.6729  2.6248
19267TIP3    H279217   4.688   4.584   2.331  0.9405  0.6507 -1.7464
19268TIP3   OH279218   5.210   1.203  10.546  0.0167 -0.2343  0.4547
19268TIP3    H179219   5.232   1.110  10.535  0.1050 -0.3302  1.3579
19268TIP3    H279220   5.267   1.248  10.484  1.1414 -0.6610  1.1556
19269TIP3   OH279221   0.955   4.329   1.838  0.2176 -0.0545  0.4913
19269TIP3    H179222   0.868   4.334   1.879 -0.1633  0.8984 -0.3893
19269TIP3    H279223   1.014   4.367   1.903 -0.0195 -0.6759  1.0841
19270TIP3   OH279224   2.144   3.288   2.042  0.3618  0.2029  0.5655
19270TIP3    H179225   2.073   3.236   2.004  0.8304 -0.3157  0.3853
19270TIP3    H279226   2.110   3.317   2.126 -0.2875  0.4610  0.2219
19271TIP3   OH279227   6.343   6.509  14.431 -0.6792 -0.1955 -0.2425
19271TIP3    H179228   6.338   6.603  14.444 -0.1937 -0.1119 -0.6473
19271TIP3    H279229   6.436   6.488  14.436 -0.8670 -0.8368  1.0470
19272TIP3   OH279230   5.050   4.979   3.831  0.0756 -0.4230  0.4780
19272TIP3    H179231   4.985   4.944   3.770 -0.4246 -0.2119  0.8899
19272TIP3    H279232   5.049   5.073   3.816  0.7383 -0.4750  0.0485
19273TIP3   OH279233   2.368   6.176  14.725 -0.6462 -0.0071  0.3062
19273TIP3    H179234   2.442   6.196  14.668  0.1610 -0.3836  1.1852
19273TIP3    H279235   2.336   6.262  14.753 -0.6465  0.1635 -0.2129
19274TIP3   OH279236   4.348   0.913   3.844  0.2443 -0.0535  0.4638
19274TIP3    H179237   4.444   0.914   3.845  0.2357  0.4109  1.0361
19274TIP3    H279238   4.326   0.865   3.764  0.9568 -0.5570  0.5574
19275TIP3   OH279239   4.619   4.093  13.141 -0.8711 -0.0028 -0.1990
19275TIP3    H179240   4.618   4.048  13.057  0.6523  0.2655 -0.3830
19275TIP3    H279241   4.621   4.022  13.206 -0.0746 -0.2091 -0.4448
19276TIP3   OH279242   3.231   5.110  11.612  0.3099  0.2350  0.1751
19276TIP3    H179243   3.202   5.196  11.643  0.4626  0.2121  0.3883
19276TIP3    H279244   3.156   5.074  11.566  0.1435  0.3576  0.3478
19277TIP3   OH279245   0.470   4.388  14.004  0.0974 -0.0005  0.5720
19277TIP3    H179246   0.471   4.469  13.953 -0.8626 -0.0613  0.4293
19277TIP3    H279247   0.536   4.332  13.963  1.2075  0.9244  1.0487
19278TIP3   OH279248   5.043   0.355  13.393 -0.0583  0.8117  0.3332
19278TIP3    H179249   5.091   0.325  13.316  0.0252  2.1785 -0.1775
19278TIP3    H279250   4.994   0.279  13.422 -0.3280  0.3438 -1.2484
19279TIP3   OH279251   3.626   3.901   0.190  0.2793  0.0684 -0.2897
19279TIP3    H179252   3.543   3.866   0.157 -0.0632 -0.0810  0.7019
19279TIP3    H279253   3.687   3.827   0.185 -0.0339 -0.2404  0.3330
19280TIP3   OH279254   2.450   0.031  15.906  0.0682 -0.0386  0.4825
19280TIP3    H179255   2.374   0.087  15.921  1.0170  1.3058  0.4531
19280TIP3    H279256   2.448   0.012  15.812 -0.5528 -0.5438  0.5824
19281TIP3   OH279257   3.721   1.052   3.553 -0.0509  0.5943  0.1044
19281TIP3    H179258   3.694   1.132   3.508  0.0474  0.6586  0.1587
19281TIP3    H279259   3.813   1.068   3.576  0.0274  0.3864 -0.0626
19282TIP3   OH279260   4.855   1.653   3.651  0.1533 -0.5497 -0.8166
19282TIP3    H179261   4.768   1.691   3.661  0.8354  0.7646  0.4797
19282TIP3    H279262   4.915   1.727   3.660  1.4896 -1.7495  0.9247
19283TIP3   OH279263   0.237   2.906   0.217 -0.2439 -0.0642  0.2872
19283TIP3    H179264   0.254   2.836   0.279 -0.1213  0.2254  0.5854
19283TIP3    H279265   0.314   2.907   0.160  0.5794  0.9413  1.3505
19284TIP3   OH279266   6.659   1.112  16.030 -0.0275  0.8724  0.1418
19284TIP3    H179267   6.730   1.052  16.048  2.1420  3.1036 -0.4015
19284TIP3    H279268   6.645   1.159  16.112 -1.9061 -0.4570  0.6518
19285TIP3   OH279269   3.429   3.758   4.873  0.0624  0.0770  0.3661
19285TIP3    H179270   3.474   3.725   4.794  1.7193  2.6619  0.1127
19285TIP3    H279271   3.336   3.760   4.848  0.5283  0.6582 -1.4727
19286TIP3   OH279272   3.256   2.832  15.606  0.9575 -0.3932  0.0831
19286TIP3    H179273   3.178   2.864  15.560  1.3300  0.7309  0.1841
19286TIP3    H279274   3.267   2.742  15.575  2.2643  0.8408 -3.5617
19287TIP3   OH279275   2.063   2.385   2.507 -0.1797  0.8483 -0.5849
19287TIP3    H179276   2.152   2.379   2.541 -0.0211  0.8874 -0.9898
19287TIP3    H279277   2.035   2.293   2.500 -0.5521  0.8646  0.5188
19288TIP3   OH279278   1.290   5.365   0.951 -0.8256 -0.1235  0.4821
19288TIP3    H179279   1.379   5.376   0.983 -1.0569  0.7315  0.8477
19288TIP3    H279280   1.236   5.368   1.031 -1.1312 -1.2928  0.3362
19289TIP3   OH279281   0.496   6.048  12.055 -0.7418 -0.1155  0.4065
19289TIP3    H179282   0.507   6.143  12.053  1.0336 -0.2908  0.8093
19289TIP3    H279283   0.449   6.032  12.137  2.1513  0.1973  2.2829
19290TIP3   OH279284   1.639   5.702  11.792  0.2230  0.4690 -0.2218
19290TIP3    H179285   1.695   5.658  11.856 -0.1149 -2.6533 -1.8277
19290TIP3    H279286   1.576   5.634  11.766 -0.6032  2.0649 -2.7021
19291TIP3   OH279287   5.375   2.232   3.495  0.1406  0.0933  0.5538
19291TIP3    H179288   5.455   2.181   3.508 -0.5912 -1.1988  0.1130
19291TIP3    H279289   5.406   2.323   3.490  1.4214 -0.2254  1.8640
19292TIP3   OH279290   5.166   3.693  13.594  0.0479 -0.5676  0.4468
19292TIP3    H179291   5.250   3.728  13.624 -0.2095 -0.2183  0.7546
19292TIP3    H279292   5.170   3.600  13.616  0.1974 -0.4754  0.8096
19293TIP3   OH279293   2.744   0.370   3.343 -0.1939  0.3363 -0.0150
19293TIP3    H179294   2.733   0.275   3.340 -1.4690  0.4277  0.6873
19293TIP3    H279295   2.833   0.384   3.374  0.1797 -0.6142 -0.6153
19294TIP3   OH279296   2.072   3.662   1.265  0.2469 -0.3048 -0.6958
19294TIP3    H179297   2.152   3.614   1.244  0.5501 -0.7721  1.3219
19294TIP3    H279298   2.079   3.680   1.359 -1.3177  0.9827 -0.7851
19295TIP3   OH279299   3.595   4.761   4.391  0.3910 -0.1146  0.4373
19295TIP3    H179300   3.543   4.716   4.324  1.2216 -2.4230  1.2526
19295TIP3    H279301   3.667   4.802   4.343 -1.2710  1.8799 -0.5216
19296TIP3   OH279302   1.545   2.834   0.003  0.1490 -0.1467 -0.2420
19296TIP3    H179303   1.494   2.852   0.082 -0.6442 -0.2704 -0.7176
19296TIP3    H279304   1.481   2.837  -0.068  0.7379 -0.7029 -0.8065
19297TIP3   OH279305   1.956   2.983  17.210 -0.1159 -0.5131 -0.0062
19297TIP3    H179306   1.973   2.975  17.116 -2.4653  0.3673 -0.5728
19297TIP3    H279307   1.977   3.073  17.231 -0.0634 -0.5737  0.2017
19298TIP3   OH279308   4.135   2.271   1.256  0.0809 -0.1031  0.7553
19298TIP3    H179309   4.213   2.306   1.214  1.2948 -2.0626  1.2244
19298TIP3    H279310   4.164   2.249   1.345 -1.4672  0.6403  1.4803
19299TIP3   OH279311   2.307   1.056   3.998 -0.7847  0.3010  0.1037
19299TIP3    H179312   2.284   1.027   3.910 -1.8072 -0.7244  0.6865
19299TIP3    H279313   2.261   0.995   4.056  1.7725 -0.6044  1.3536
19300TIP3   OH279314   2.985   0.779  13.562  0.3431  0.5590  0.0835
19300TIP3    H179315   3.042   0.823  13.625  0.3699 -2.3274  2.2818
19300TIP3    H279316   2.907   0.755  13.612 -0.7221  0.2680 -1.6391
19301TIP3   OH279317   2.658   6.674  15.336 -0.2626  0.2783  0.5342
19301TIP3    H179318   2.710   6.731  15.393  0.2386 -0.4332  0.8047
19301TIP3    H279319   2.689   6.694  15.248 -0.3397  0.6758  0.5950
19302TIP3   OH279320   4.682   5.262  11.830 -0.2226 -0.2698  0.1869
19302TIP3    H179321   4.675   5.225  11.918 -1.4177 -0.6013 -0.0225
19302TIP3    H279322   4.591   5.266  11.799 -0.1269  2.4160  0.0080
19303TIP3   OH279323   5.930   2.289  13.872  0.2080 -0.1982 -0.2374
19303TIP3    H179324   5.911   2.201  13.905  2.3911 -0.8063 -0.4334
19303TIP3    H279325   5.897   2.289  13.782  3.1189 -2.0764 -1.4530
19304TIP3   OH279326   4.980   0.193   1.487  0.3892 -0.6799  0.1571
19304TIP3    H179327   4.887   0.217   1.489 -0.1051 -2.4988  1.3039
19304TIP3    H279328   5.003   0.195   1.394 -0.2146  1.6908 -0.0231
19305TIP3   OH279329   0.329   3.538   5.026  0.3899  0.0899 -0.1361
19305TIP3    H179330   0.414   3.551   4.983 -0.6161  2.2597 -1.6522
19305TIP3    H279331   0.350   3.530   5.119  2.3278 -0.6974 -0.5810
19306TIP3   OH279332   3.103   6.474  13.961 -0.2156 -0.5550 -0.1508
19306TIP3    H179333   3.067   6.554  13.998 -1.8550 -0.6374 -1.4472
19306TIP3    H279334   3.189   6.500  13.926  0.7918 -0.1855  2.3497
19307TIP3   OH279335   3.982   4.129  11.180 -0.1283  0.0341 -0.3268
19307TIP3    H179336   4.049   4.097  11.119 -0.6798  0.3215 -1.0977
19307TIP3    H279337   4.031   4.174  11.248  0.5133 -0.4346 -0.4699
19308TIP3   OH279338   2.996   5.996  14.714 -0.0560  0.5596 -0.0387
19308TIP3    H179339   2.972   5.912  14.676  0.2078  0.5009 -0.0728
19308TIP3    H279340   2.937   6.059  14.670 -0.1905  0.4072 -0.0773
19309TIP3   OH279341   4.021   0.542   2.570 -0.0137 -0.5361  0.1630
19309TIP3    H179342   4.105   0.499   2.556 -0.5880 -1.3933 -0.8809
19309TIP3    H279343   4.010   0.544   2.665  1.2491 -0.2484  0.3216
19310TIP3   OH279344   5.357   6.118  16.560 -0.4530 -0.0565  0.2705
19310TIP3    H179345   5.322   6.130  16.471 -0.0235 -0.3043  0.0642
19310TIP3    H279346   5.354   6.023  16.574  1.5742 -0.2421 -0.3544
19311TIP3   OH279347   4.528   1.192  12.214  0.0740  0.1067  0.3409
19311TIP3    H179348   4.519   1.112  12.163  3.8442 -0.1959 -0.1285
19311TIP3    H279349   4.532   1.262  12.149  1.7779  0.0670  0.3716
19312TIP3   OH279350   0.091   6.697  14.654  0.2760 -0.3187 -0.4486
19312TIP3    H179351   0.078   6.782  14.695 -1.6204 -1.7732  2.3514
19312TIP3    H279352   0.185   6.680  14.662  0.6811  1.4925 -1.1060
19313TIP3   OH279353   3.158   0.904   4.470  0.7609 -0.2779 -0.0475
19313TIP3    H179354   3.070   0.870   4.457  0.6412 -0.2182  0.5622
19313TIP3    H279355   3.162   0.983   4.416  0.3134 -0.0807  0.2019
19314TIP3   OH279356   0.081   6.128  15.715  0.4839  0.1015  0.2516
19314TIP3    H179357   0.076   6.050  15.659  0.0049 -0.6353  1.2951
19314TIP3    H279358   0.026   6.107  15.790 -1.3700  2.2903 -0.4031
19315TIP3   OH279359   3.681   4.882   0.073  0.2308 -0.7732 -0.0787
19315TIP3    H179360   3.643   4.798   0.100  0.9559 -1.2505 -0.4881
19315TIP3    H279361   3.615   4.947   0.096  0.1135 -1.3339  1.2625
19316TIP3   OH279362   3.677   6.075   1.208 -0.5433 -0.1789 -0.1136
19316TIP3    H179363   3.629   6.017   1.268  0.6991  0.4540  1.5696
19316TIP3    H279364   3.763   6.034   1.198  0.6221  1.6227  1.6807
19317TIP3   OH279365   2.906   3.920   5.865 -0.4470  0.5858  0.5106
19317TIP3    H179366   2.950   3.837   5.846 -0.0345  0.5235  1.6390
19317TIP3    H279367   2.857   3.940   5.785  0.6742  0.0472 -0.3432
19318TIP3   OH279368   1.788   5.235  17.370 -0.0547  0.1922 -0.4957
19318TIP3    H179369   1.792   5.233  17.275 -0.9488 -0.8687 -0.5377
19318TIP3    H279370   1.742   5.316  17.391  0.6792  0.7344 -0.9264
19319TIP3   OH279371   0.353   4.105   2.427 -0.7033 -0.9443  0.0008
19319TIP3    H179372   0.313   4.162   2.361  0.1896  0.0722  0.3032
19319TIP3    H279373   0.438   4.082   2.390 -0.3447 -0.6623  0.6326
19320TIP3   OH279374   0.079   1.492  14.221 -0.2634  0.7476  0.0093
19320TIP3    H179375   0.118   1.580  14.213  1.1238  0.1828  0.2938
19320TIP3    H279376   0.148   1.439  14.262 -0.4495 -0.8756 -1.6318
19321TIP3   OH279377   0.108   0.448   0.200  0.1582  0.0887 -0.2844
19321TIP3    H179378   0.034   0.504   0.222  0.1541  0.3336 -0.8997
19321TIP3    H279379   0.184   0.493   0.239 -0.0677 -0.4295  0.7909
19322TIP3   OH279380   5.465   5.432  15.224  0.2824 -0.1591  0.4579
19322TIP3    H179381   5.536   5.417  15.162 -1.0536  2.4068 -1.8731
19322TIP3    H279382   5.438   5.344  15.251  2.0473 -1.3123 -1.2809
19323TIP3   OH279383   1.278   1.929  11.179 -0.0691  0.4025  0.0355
19323TIP3    H179384   1.368   1.905  11.160 -0.6247 -0.7259 -1.3437
19323TIP3    H279385   1.271   2.020  11.149  0.4795  0.3431 -0.2873
19324TIP3   OH279386   3.085   0.397  15.725 -0.2981 -0.7142  0.3131
19324TIP3    H179387   3.169   0.440  15.744 -1.0087  0.4798  0.9332
19324TIP3    H279388   3.059   0.358  15.808 -0.9443  0.0296  0.4789
19325TIP3   OH279389   1.053   1.183  12.919 -0.5076 -0.1589  0.4453
19325TIP3    H179390   0.980   1.245  12.919 -1.9535 -1.8048  0.1758
19325TIP3    H279391   1.113   1.217  12.986 -1.7717  0.9273  1.0677
19326TIP3   OH279392   3.812   5.215   2.641 -0.1018  0.2858  0.0553
19326TIP3    H179393   3.748   5.285   2.655  0.1184  0.7404 -1.0582
19326TIP3    H279394   3.794   5.152   2.710 -0.0047  1.6579  1.4000
19327TIP3   OH279395   1.908   4.846   4.089  0.8835  0.1936 -0.1503
19327TIP3    H179396   1.821   4.877   4.112  0.9331 -0.4437  0.9533
19327TIP3    H279397   1.905   4.833   3.994 -1.1018 -2.4013  0.1674
19328TIP3   OH279398   3.383   2.902   4.054  0.4289  0.7686  0.1423
19328TIP3    H179399   3.414   2.959   3.984 -0.3387 -0.4505 -1.2551
19328TIP3    H279400   3.364   2.961   4.127  2.8417  1.8904 -0.0603
19329TIP3   OH279401   1.762   4.308   1.338 -0.0607 -0.2170  0.0224
19329TIP3    H179402   1.759   4.274   1.427  1.6276  1.3676  0.7571
19329TIP3    H279403   1.733   4.399   1.345 -0.9346 -0.3641 -1.2433
19330TIP3   OH279404   0.181   5.639   5.660 -0.0282 -0.5606  0.3770
19330TIP3    H179405   0.198   5.656   5.752  0.4127 -0.3537  0.2570
19330TIP3    H279406   0.108   5.698   5.638 -0.2171 -0.7019  0.6235
19331TIP3   OH279407   5.584   2.354  12.584 -0.3575  0.6657 -0.1527
19331TIP3    H179408   5.601   2.324  12.495 -0.8515 -1.1381  0.3089
19331TIP3    H279409   5.670   2.354  12.626 -0.3729 -0.5030 -0.0793
19332TIP3   OH279410   2.091   4.498   3.432 -0.1754  0.0632  0.2965
19332TIP3    H179411   2.121   4.551   3.358  0.7968 -0.3874  0.3461
19332TIP3    H279412   2.015   4.545   3.466  0.0108  0.8453 -0.3260
19333TIP3   OH279413   2.771   3.144   3.990 -0.4798  0.3030 -0.0590
19333TIP3    H179414   2.813   3.204   3.928  0.4655  0.2500  0.5049
19333TIP3    H279415   2.755   3.065   3.939  1.1580 -0.0880 -0.0448
19334TIP3   OH279416   5.964   5.110  13.921 -0.2042 -1.0448 -0.2638
19334TIP3    H179417   6.004   5.042  13.867 -1.0633  0.4484 -2.9974
19334TIP3    H279418   6.035   5.140  13.979  1.5453 -1.1210 -2.2363
19335TIP3   OH279419   2.316   4.759   1.680 -0.1289  0.3496  0.4293
19335TIP3    H179420   2.263   4.699   1.628 -1.6506  2.5283 -0.7160
19335TIP3    H279421   2.256   4.792   1.747  0.5496  0.8718  0.7985
19336TIP3   OH279422   6.463   5.522  10.783 -0.1772 -0.2035  0.4517
19336TIP3    H179423   6.511   5.605  10.775 -0.5582 -0.0297 -0.0853
19336TIP3    H279424   6.459   5.506  10.877  0.9829 -0.2480  0.5103
19337TIP3   OH279425   5.880   0.274  15.728 -0.4461  0.4188 -0.2280
19337TIP3    H179426   5.913   0.282  15.818  2.2248  0.2931 -1.0926
19337TIP3    H279427   5.869   0.180  15.715  0.9972  0.2782 -0.5792
19338TIP3   OH279428   0.584   5.720  11.795  0.5926  0.4167  0.1698
19338TIP3    H179429   0.553   5.771  11.721  1.6338  0.3796 -0.3090
19338TIP3    H279430   0.674   5.697  11.773 -0.0080 -2.2053  0.0307
19339TIP3   OH279431   6.690   0.274   6.567 -0.7590  0.4971  0.0486
19339TIP3    H179432   6.686   0.261   6.662 -2.8103  1.3471  0.1334
19339TIP3    H279433   6.631   0.207   6.532 -2.8199  2.3720 -0.2997
19340TIP3   OH279434   6.330   3.583   4.556  0.9630 -0.5826 -0.1662
19340TIP3    H179435   6.262   3.518   4.571  1.0856 -0.8110 -0.5896
19340TIP3    H279436   6.331   3.635   4.636  1.9663 -2.1069  0.8687
19341TIP3   OH279437   4.859   6.683  13.648  0.8406  0.2396 -0.0284
19341TIP3    H179438   4.873   6.761  13.594  0.4906  1.2269  1.2671
19341TIP3    H279439   4.917   6.617  13.609 -0.0789  0.5975 -2.1787
19342TIP3   OH279440   6.522   3.980  15.590  0.7123 -0.1285  0.0856
19342TIP3    H179441   6.500   4.044  15.522  0.7372 -0.0588  0.1434
19342TIP3    H279442   6.613   3.958  15.574  1.3928  1.5381  1.4305
19343TIP3   OH279443   2.634   3.687   1.528  0.7182 -0.4238 -0.2427
19343TIP3    H179444   2.541   3.673   1.545  0.5297 -0.0197 -0.9180
19343TIP3    H279445   2.649   3.779   1.551  0.5890 -0.0351 -1.6727
19344TIP3   OH279446   4.780   4.804   2.401 -0.0218  0.1933  0.1592
19344TIP3    H179447   4.760   4.771   2.489 -1.4504 -0.9020 -0.5463
19344TIP3    H279448   4.821   4.730   2.356 -0.4090  0.3549 -0.4690
19345TIP3   OH279449   3.479   2.642   1.975 -0.0814  0.5908  0.0167
19345TIP3    H179450   3.401   2.598   2.011 -0.1821  0.0811 -0.8011
19345TIP3    H279451   3.475   2.624   1.881 -0.0318  2.2107 -0.3254
19346TIP3   OH279452   1.231   4.573  16.815 -0.1261  0.4511  0.0956
19346TIP3    H179453   1.286   4.503  16.777 -0.3795  1.0323 -1.4134
19346TIP3    H279454   1.199   4.536  16.897  0.6501 -0.7859 -0.1254
19347TIP3   OH279455   6.167   1.166   0.927 -0.2178 -0.3719  0.1692
19347TIP3    H179456   6.239   1.123   0.881 -0.3074  0.8205 -1.1593
19347TIP3    H279457   6.093   1.160   0.866 -0.9265 -0.5565  1.0313
19348TIP3   OH279458   5.006   3.564   3.903 -0.3995 -1.0187  0.1096
19348TIP3    H179459   5.073   3.557   3.971 -1.8567 -0.8606  1.6282
19348TIP3    H279460   4.936   3.505   3.932 -1.3529 -0.4279 -0.8961
19349TIP3   OH279461   1.500   4.719  15.710 -0.1987 -0.3300 -0.4567
19349TIP3    H179462   1.562   4.647  15.697  1.0387  0.5254  0.3831
19349TIP3    H279463   1.513   4.776  15.634  0.9951  0.4703  0.3036
19350TIP3   OH279464   0.972   6.522  14.783  1.0984 -0.1340  0.2667
19350TIP3    H179465   0.907   6.456  14.807 -1.3474  1.5596 -1.3778
19350TIP3    H279466   1.005   6.555  14.867 -1.4719  0.1750  1.2217
19351TIP3   OH279467   2.174   2.622  16.480 -0.1620 -0.2237  0.2161
19351TIP3    H179468   2.208   2.693  16.425 -2.5315  2.2223  1.6829
19351TIP3    H279469   2.227   2.626  16.559 -0.0447 -0.3604  0.1448
19352TIP3   OH279470   1.956   6.376  12.771 -0.0125  0.3857 -0.1147
19352TIP3    H179471   2.013   6.445  12.805  0.3306 -0.1669  0.4495
19352TIP3    H279472   1.975   6.373  12.677  1.0042  0.1132  0.0859
19353TIP3   OH279473   6.002   2.735   0.225  0.5364  0.4167 -0.0158
19353TIP3    H179474   6.003   2.652   0.178  1.1149  0.1217  0.5086
19353TIP3    H279475   6.043   2.797   0.165 -0.3989  0.4662 -0.6363
19354TIP3   OH279476   4.058   1.035  11.882  0.0243  0.1737 -0.1496
19354TIP3    H179477   4.004   1.061  11.956 -2.3300 -0.8984 -1.4052
19354TIP3    H279478   4.107   0.959  11.913 -2.8763 -1.9276 -0.3304
19355TIP3   OH279479   0.452   1.580   2.209  0.2917 -0.0406  0.5680
19355TIP3    H179480   0.491   1.501   2.248  1.5852 -0.0577 -0.6838
19355TIP3    H279481   0.480   1.651   2.266  2.7566  0.0270 -0.6102
19356TIP3   OH279482   0.533   3.724  11.859 -0.0188  0.1698 -0.1113
19356TIP3    H179483   0.487   3.731  11.774  0.3045 -0.3528 -0.3293
19356TIP3    H279484   0.625   3.720  11.836  0.0731  0.0699  0.2736
19357TIP3   OH279485   5.184   5.960  13.039  0.6710 -0.1137 -0.2586
19357TIP3    H179486   5.252   6.026  13.030 -1.3740  2.2246  0.3562
19357TIP3    H279487   5.185   5.912  12.956  2.7033  0.1157 -0.4262
19358TIP3   OH279488   6.453   4.536  12.863  0.7653 -0.5634 -0.2858
19358TIP3    H179489   6.495   4.583  12.790  0.7002  0.6983  0.4564
19358TIP3    H279490   6.522   4.528  12.929  0.2250  0.3100  0.3979
19359TIP3   OH279491   0.237   1.652   0.882  0.1985  0.3447  0.0221
19359TIP3    H179492   0.208   1.742   0.896  1.9692  0.9197  0.2253
19359TIP3    H279493   0.294   1.656   0.805 -0.2272 -0.7304 -0.3733
19360TIP3   OH279494   2.014   0.920  13.278 -0.4217 -0.1629  0.5758
19360TIP3    H179495   1.995   0.936  13.370  1.6050 -0.8754  1.1893
19360TIP3    H279496   2.108   0.938  13.270 -0.2409 -1.5722 -0.9927
19361TIP3   OH279497   0.444   2.459   6.451  0.5450  0.5268  0.1557
19361TIP3    H179498   0.418   2.494   6.366  1.2527  0.5775 -0.0455
19361TIP3    H279499   0.433   2.532   6.512  1.6949  1.0217 -0.2030
19362TIP3   OH279500   4.466   0.338  13.029 -0.0595 -0.4568  0.1687
19362TIP3    H179501   4.399   0.393  12.987 -1.2482 -0.3722  2.0388
19362TIP3    H279502   4.534   0.399  13.055  0.2031 -0.3695 -0.6852
19363TIP3   OH279503   1.087   5.695   3.432 -0.3583  0.7783 -0.1655
19363TIP3    H179504   1.088   5.617   3.488 -1.0311 -0.1463 -1.3753
19363TIP3    H279505   1.179   5.717   3.418 -0.1738  0.5554  0.6557
19364TIP3   OH279506   4.659   1.340  10.567  0.9243  0.7045  1.3850
19364TIP3    H179507   4.744   1.362  10.605  2.0774 -1.7933  0.4535
19364TIP3    H279508   4.628   1.265  10.619  0.2477  0.3240  0.4561
19365TIP3   OH279509   1.748   4.449   2.192  0.3248  0.3298 -0.0273
19365TIP3    H179510   1.752   4.527   2.138 -0.1295  1.3130  1.3040
19365TIP3    H279511   1.657   4.420   2.185  0.4786 -0.0578 -0.4729
19366TIP3   OH279512   5.299   1.693  13.852 -0.4176 -0.0141 -0.8217
19366TIP3    H179513   5.354   1.696  13.774 -1.5742 -0.8230 -1.7012
19366TIP3    H279514   5.340   1.628  13.909  1.6032  2.0293  0.2228
19367TIP3   OH279515   1.205   3.566   0.143 -0.0105 -0.1136  0.4636
19367TIP3    H179516   1.220   3.472   0.142 -1.0626 -0.3086  1.4514
19367TIP3    H279517   1.263   3.600   0.075 -1.3779 -1.7362 -1.6285
19368TIP3   OH279518   0.898   3.323   0.676 -0.1892  0.4061  0.3073
19368TIP3    H179519   0.803   3.331   0.683 -0.1618  0.8401  0.2095
19368TIP3    H279520   0.915   3.312   0.582 -0.0772  1.2718  0.2223
19369TIP3   OH279521   6.511   3.555   0.994  0.6184 -0.0347 -0.4100
19369TIP3    H179522   6.522   3.588   1.083 -0.3959 -1.5004  0.3109
19369TIP3    H279523   6.587   3.498   0.980  0.6328 -0.0205 -0.3900
19370TIP3   OH279524   1.977   2.987   5.525  0.2631 -0.2285 -0.1253
19370TIP3    H179525   1.958   2.896   5.503 -0.1890 -0.3981  0.9489
19370TIP3    H279526   1.893   3.024   5.552  0.1721  0.8895 -1.7688
19371TIP3   OH279527   6.564   1.791   5.650 -0.0890 -0.1563  0.1135
19371TIP3    H179528   6.655   1.775   5.627  0.9825  2.3225  2.0973
19371TIP3    H279529   6.537   1.712   5.699  0.8018 -1.1031 -0.8889
19372TIP3   OH279530   4.385   4.089   2.609  0.1900 -0.0628  0.4402
19372TIP3    H179531   4.385   4.117   2.700  0.2784 -1.5731  0.9264
19372TIP3    H279532   4.387   4.171   2.559 -0.1129  0.7898  1.7752
19373TIP3   OH279533   6.726   0.162  12.631 -0.8917 -0.9286 -0.3991
19373TIP3    H179534   6.798   0.098  12.624  1.3190  1.1678  1.4808
19373TIP3    H279535   6.693   0.170  12.541 -0.1898 -3.4837 -0.9733
19374TIP3   OH279536   3.290   3.160   5.429 -0.0622  0.0903  0.5949
19374TIP3    H179537   3.236   3.085   5.455  1.8188 -0.9430  1.7666
19374TIP3    H279538   3.284   3.162   5.334 -0.1902 -1.5383  0.5303
19375TIP3   OH279539   1.624   3.101   3.106  0.2916 -0.1365 -0.6386
19375TIP3    H179540   1.585   3.116   3.192 -0.1672  1.6029 -1.1048
19375TIP3    H279541   1.550   3.075   3.050  0.6553 -1.7010 -0.4531
19376TIP3   OH279542   3.279   3.515  13.186 -0.4036  0.3350 -0.1874
19376TIP3    H179543   3.266   3.506  13.092  1.4724 -1.1194 -0.3501
19376TIP3    H279544   3.273   3.426  13.220  2.9700  0.2272  0.4476
19377TIP3   OH279545   0.430   2.335   0.380  0.3548 -0.1990 -0.2633
19377TIP3    H179546   0.484   2.275   0.328  0.5424  0.1513 -0.4729
19377TIP3    H279547   0.475   2.341   0.465  0.0948 -0.7026 -0.0848
19378TIP3   OH279548   5.867   5.538  11.243  0.3859 -0.6466 -0.2689
19378TIP3    H179549   5.947   5.515  11.290  0.3015 -0.3163  0.0422
19378TIP3    H279550   5.897   5.589  11.168  0.4061  0.3283  0.3883
19379TIP3   OH279551   0.490   3.831  15.912  0.2836  0.3129 -0.0467
19379TIP3    H179552   0.408   3.787  15.892  0.3084 -0.0742  0.6489
19379TIP3    H279553   0.496   3.902  15.849  1.4266 -2.0924 -2.8842
19380TIP3   OH279554   0.785   3.062  15.618  0.1666  0.2621  0.1484
19380TIP3    H179555   0.867   3.013  15.621 -0.7640 -1.3382  1.7446
19380TIP3    H279556   0.742   3.033  15.537  0.2483 -0.5349  0.3838
19381TIP3   OH279557   0.203   2.976  16.794 -0.1832 -0.4819  0.4315
19381TIP3    H179558   0.290   2.942  16.772 -0.1076 -1.1841  1.7389
19381TIP3    H279559   0.166   2.911  16.853 -1.7277 -0.3291 -0.3260
19382TIP3   OH279560   5.658   4.366  10.839  0.0992 -0.2421  0.5801
19382TIP3    H179561   5.678   4.284  10.885  1.4531 -1.3858 -1.8331
19382TIP3    H279562   5.564   4.361  10.822  0.3032 -1.7526 -0.2690
19383TIP3   OH279563   5.487   3.493  16.812 -0.0120  0.2061 -0.2934
19383TIP3    H179564   5.543   3.415  16.820 -1.1745 -0.7767 -1.3661
19383TIP3    H279565   5.414   3.476  16.871  0.0437  0.7932 -0.0466
19384TIP3   OH279566   3.982   6.602   2.001 -0.0794 -0.5418 -0.8185
19384TIP3    H179567   3.900   6.608   2.050  0.7017 -1.0800  0.6032
19384TIP3    H279568   3.962   6.643   1.916 -1.2199  1.2598  0.2496
19385TIP3   OH279569   5.373   6.251  15.778  0.3876 -0.2947  0.0852
19385TIP3    H179570   5.452   6.264  15.726  0.2469 -1.7101 -0.5312
19385TIP3    H279571   5.391   6.294  15.861 -0.1067  3.7512 -1.6988
19386TIP3   OH279572   1.389   0.810   1.331 -0.2376  0.4588  0.5623
19386TIP3    H179573   1.373   0.832   1.239  2.1128 -0.5781 -0.1696
19386TIP3    H279574   1.360   0.719   1.339 -1.6554  0.9360  1.2456
19387TIP3   OH279575   6.574   6.073  13.278 -0.5834  0.5190  0.1548
19387TIP3    H179576   6.533   6.017  13.212  0.1449 -1.4295  1.2668
19387TIP3    H279577   6.574   6.020  13.358 -0.3605  2.3490  1.4347
19388TIP3   OH279578   4.015   6.137   0.081 -0.1600  1.0102 -0.3932
19388TIP3    H179579   3.946   6.097   0.029  0.7681  1.1635 -1.7751
19388TIP3    H279580   3.968   6.196   0.141 -1.3496 -0.3827  0.0969
19389TIP3   OH279581   2.053   0.598  13.935  0.8004  0.2989  0.4811
19389TIP3    H179582   2.083   0.514  13.969 -0.3538  1.0038  3.5939
19389TIP3    H279583   1.960   0.584  13.915  0.4691  0.9097  1.5039
19390TIP3   OH279584   4.828   5.565  14.761 -0.2003 -0.5798  0.2877
19390TIP3    H179585   4.899   5.522  14.713  0.7724  0.7483  0.4837
19390TIP3    H279586   4.798   5.498  14.823  0.8160 -1.2058  0.1327
19391TIP3   OH279587   4.155   6.028  12.529  0.3992  0.3880 -0.0591
19391TIP3    H179588   4.203   6.060  12.606  1.6322 -1.0054 -0.2073
19391TIP3    H279589   4.221   5.985  12.475 -0.7447 -0.1695 -1.0797
19392TIP3   OH279590   0.805   0.076  10.971 -0.1784 -0.5077  0.0692
19392TIP3    H179591   0.715   0.108  10.978 -1.3900 -2.1224 -4.7976
19392TIP3    H279592   0.797  -0.016  10.949  2.7916 -0.9869  0.4862
19393TIP3   OH279593   4.209   1.108   1.418  0.5628  0.0978  0.3356
19393TIP3    H179594   4.234   1.058   1.341  1.1458  1.1637 -0.1979
19393TIP3    H279595   4.254   1.192   1.407  0.4471  0.3612  1.7065
19394TIP3   OH279596   3.428   6.110  17.161 -0.4231 -0.4982 -0.2182
19394TIP3    H179597   3.494   6.132  17.227  1.4434 -0.9089 -1.8612
19394TIP3    H279598   3.346   6.104  17.210  0.6861  0.3619  1.8523
19395TIP3   OH279599   0.327   4.156   1.755  0.1290  0.0776  0.1446
19395TIP3    H179600   0.296   4.246   1.764 -0.8523 -0.3779  1.5304
19395TIP3    H279601   0.284   4.124   1.676 -1.7086 -0.0096  1.1301
19396TIP3   OH279602   2.730   5.553  13.680 -0.3461  0.0838  0.0239
19396TIP3    H179603   2.678   5.547  13.760 -1.1876  2.1826 -0.3016
19396TIP3    H279604   2.780   5.634  13.689  1.3459 -0.8324 -0.5949
19397TIP3   OH279605   5.455   4.460  14.388  0.2438  0.1086  0.1657
19397TIP3    H179606   5.392   4.532  14.398  1.2583  0.8493  1.3816
19397TIP3    H279607   5.519   4.493  14.325  0.2030 -0.0903  0.0199
19398TIP3   OH279608   0.554   6.217  12.671 -0.5085  0.2098 -0.1852
19398TIP3    H179609   0.595   6.139  12.635 -1.6285  0.4612 -2.1674
19398TIP3    H279610   0.484   6.184  12.727  0.2654 -0.1906  0.5644
19399TIP3   OH279611   2.956   0.944  12.383 -0.0927 -0.2076 -0.6329
19399TIP3    H179612   2.908   1.025  12.403 -0.8978 -1.1052  1.3353
19399TIP3    H279613   2.937   0.886  12.457  0.9352 -2.0023 -1.7064
19400TIP3   OH279614   2.491   3.678   0.178 -0.2724 -0.1431 -0.5061
19400TIP3    H179615   2.423   3.631   0.227  0.5377 -0.9543 -0.1280
19400TIP3    H279616   2.445   3.715   0.103 -0.8992 -1.8074 -0.9850
19401TIP3   OH279617   2.744   3.651   6.284  0.1408  0.2456  0.6840
19401TIP3    H179618   2.740   3.711   6.210 -2.0647  1.4084  1.6692
19401TIP3    H279619   2.660   3.662   6.329  0.0559 -2.8474  1.5040
19402TIP3   OH279620   3.277   3.123  16.444  0.4858 -0.0670  0.0547
19402TIP3    H179621   3.188   3.152  16.426  1.1046  1.4905 -0.6833
19402TIP3    H279622   3.269   3.061  16.516 -1.2105 -0.1328 -0.1685
19403TIP3   OH279623   6.545   4.031  13.931 -1.0862  0.0133 -0.5857
19403TIP3    H179624   6.465   4.060  13.887  0.2754  3.6193 -0.9742
19403TIP3    H279625   6.612   4.035  13.863 -0.1448 -0.7608  0.2732
19404TIP3   OH279626   5.502   3.021   4.675  0.0287  0.0267 -0.5569
19404TIP3    H179627   5.546   2.964   4.612 -0.9746 -0.2661 -1.0154
19404TIP3    H279628   5.409   3.012   4.654 -0.1695  1.7797 -0.5994
19405TIP3   OH279629   4.858   6.343  15.025  0.0085 -0.8059  0.4941
19405TIP3    H179630   4.887   6.322  14.936 -1.3892  1.2178 -0.5414
19405TIP3    H279631   4.886   6.434  15.038 -0.8929 -0.6754  1.6366
19406TIP3   OH279632   5.625   3.755  12.524  0.1352  0.6026 -0.1622
19406TIP3    H179633   5.629   3.661  12.543  0.1217  0.5723 -0.3093
19406TIP3    H279634   5.693   3.769  12.458  1.0206  0.9174  0.7762
19407TIP3   OH279635   1.585   5.407  16.812 -0.1964 -0.3113 -0.4307
19407TIP3    H179636   1.653   5.349  16.846 -0.2297  0.8405  1.7687
19407TIP3    H279637   1.510   5.349  16.796  0.6001 -1.2602 -0.8507
19408TIP3   OH279638   4.893   6.160  14.308 -0.6773  0.3330 -0.3351
19408TIP3    H179639   4.936   6.179  14.391  0.0125 -1.5747 -0.1936
19408TIP3    H279640   4.909   6.237  14.253  0.7677  0.6882  0.5581
19409TIP3   OH279641   3.977   4.699  11.927  0.6219  0.6460 -0.2917
19409TIP3    H179642   4.012   4.638  11.991 -0.9604  0.4323  0.4185
19409TIP3    H279643   4.013   4.669  11.843  0.9565 -0.4243  0.2122
19410TIP3   OH279644   1.734   4.712  16.045  0.5939  0.2789 -0.2165
19410TIP3    H179645   1.824   4.705  16.015  1.4411 -0.5146  2.2976
19410TIP3    H279646   1.695   4.626  16.027  0.3100  0.6147 -1.2806
19411TIP3   OH279647   2.730   2.711  13.879 -0.5920  0.6835  0.1540
19411TIP3    H179648   2.824   2.728  13.869 -0.2015 -0.9475  0.7049
19411TIP3    H279649   2.708   2.748  13.964 -0.4319  0.9810  0.0684
19412TIP3   OH279650   3.769   2.501  12.592 -0.2145  0.3203  0.1291
19412TIP3    H179651   3.780   2.538  12.680  1.4126 -0.2394  0.1887
19412TIP3    H279652   3.839   2.539  12.540  0.1243 -0.9494 -0.3792
19413TIP3   OH279653   6.139   2.219  15.927  0.4924 -0.1974  0.4896
19413TIP3    H179654   6.189   2.183  15.854  2.0408  0.7750  1.0184
19413TIP3    H279655   6.171   2.172  16.004  1.6301  1.3390  1.0135
19414TIP3   OH279656   1.880   2.577  15.832  0.2499 -0.4529 -0.5086
19414TIP3    H179657   1.820   2.540  15.768 -0.2388 -0.1642 -0.2232
19414TIP3    H279658   1.926   2.501  15.868 -1.0538 -0.8574  0.3875
19415TIP3   OH279659   3.553   0.732   0.897 -0.4200 -0.3913 -0.4788
19415TIP3    H179660   3.530   0.825   0.902  3.4685  0.6715  1.6899
19415TIP3    H279661   3.523   0.696   0.981  2.2379  0.2133  0.8533
19416TIP3   OH279662   0.813   6.368   6.015 -0.0289  0.1909 -0.3511
19416TIP3    H179663   0.821   6.351   5.921 -1.6271  0.1280 -0.5027
19416TIP3    H279664   0.742   6.432   6.022  0.1026  0.2297  0.8167
19417TIP3   OH279665   4.197   1.726  11.280  0.1954  0.3116  0.6986
19417TIP3    H179666   4.230   1.672  11.352 -1.9718 -0.9569  0.8377
19417TIP3    H279667   4.163   1.805  11.323  1.0009  0.6159  0.7874
19418TIP3   OH279668   4.516   1.874  13.806 -0.0742 -0.6676  0.4694
19418TIP3    H179669   4.538   1.890  13.897  0.4439 -1.6624  0.5323
19418TIP3    H279670   4.551   1.786  13.788 -0.9416 -0.8394 -0.4310
19419TIP3   OH279671   5.326   6.372   2.418 -0.3733 -0.1989 -0.0533
19419TIP3    H179672   5.354   6.281   2.409 -0.4902 -0.2678  0.2561
19419TIP3    H279673   5.242   6.377   2.371  0.2597  0.0625 -1.1795
19420TIP3   OH279674   5.249   4.606  11.709 -1.0580 -0.0364 -0.0272
19420TIP3    H179675   5.187   4.672  11.740  0.4051  1.9793 -1.1797
19420TIP3    H279676   5.265   4.551  11.786 -2.4673  0.8053  0.9206
19421TIP3   OH279677   1.758   3.162   1.205 -0.0681 -0.3722  0.3564
19421TIP3    H179678   1.666   3.181   1.185 -0.1346  0.3734  1.3234
19421TIP3    H279679   1.806   3.200   1.132 -0.4776 -0.0006  0.2735
19422TIP3   OH279680   1.945   1.968  13.473 -0.1364 -0.0143  0.2478
19422TIP3    H179681   1.992   2.038  13.428  0.2262 -0.1138  0.4682
19422TIP3    H279682   1.925   1.904  13.405 -0.1346  0.1250  0.1156
19423TIP3   OH279683   4.191   0.357   2.510 -0.1365 -0.1363 -0.5231
19423TIP3    H179684   4.280   0.384   2.487 -0.2392  1.1981  0.5183
19423TIP3    H279685   4.200   0.266   2.536  1.3630  0.5284  1.6111
19424TIP3   OH279686   1.677   5.761   5.361  0.2979  0.2547 -0.0735
19424TIP3    H179687   1.587   5.788   5.382  0.2801  0.2908 -0.1963
19424TIP3    H279688   1.677   5.666   5.370  0.6299  0.3656  1.4370
19425TIP3   OH279689   2.017   3.556   2.964 -0.1670 -0.4867  0.3351
19425TIP3    H179690   2.026   3.461   2.974  0.5302 -0.1674  3.7539
19425TIP3    H279691   1.926   3.574   2.987 -0.2070 -0.2716  0.0171
19426TIP3   OH279692   4.845   2.117  10.615 -0.2064 -0.0530 -0.6233
19426TIP3    H179693   4.874   2.177  10.546 -1.1159  2.2616  0.8959
19426TIP3    H279694   4.760   2.150  10.642 -0.6947 -1.9909  0.4197
19427TIP3   OH279695   1.059   3.025   2.987  0.5599 -0.6820 -0.2615
19427TIP3    H179696   1.145   3.068   2.995  0.6426 -0.9016  0.0403
19427TIP3    H279697   1.004   3.068   3.052  0.1277  0.1979 -1.1752
19428TIP3   OH279698   2.812   4.428   0.844  0.1780  0.2351 -0.0676
19428TIP3    H179699   2.808   4.375   0.923  0.9439  0.8863  0.4175
19428TIP3    H279700   2.812   4.364   0.772 -0.8587 -0.3414  0.4324
19429TIP3   OH279701   5.903   4.704  12.787  0.3282 -0.1199 -0.4345
19429TIP3    H179702   5.969   4.772  12.785  0.9477 -0.7255 -1.6310
19429TIP3    H279703   5.924   4.652  12.865  1.3354 -0.3617 -0.8527
19430TIP3   OH279704   1.787   5.539  15.714 -0.4767  0.4414 -0.3081
19430TIP3    H179705   1.797   5.576  15.802 -0.8830 -0.5233  0.1727
19430TIP3    H279706   1.804   5.445  15.726 -1.9133  0.0566 -0.9758
19431TIP3   OH279707   0.603   5.856   2.866 -0.7063  0.0367  0.2096
19431TIP3    H179708   0.609   5.922   2.797 -0.1760  0.6386  0.8080
19431TIP3    H279709   0.584   5.906   2.945  1.5967 -0.2456  1.0407
19432TIP3   OH279710   3.630   5.811  17.337  0.0909 -0.3730  0.0769
19432TIP3    H179711   3.618   5.816  17.432  0.6015  0.8802  0.0949
19432TIP3    H279712   3.543   5.794  17.303 -0.2419  0.0197  0.7125
19433TIP3   OH279713   4.570   3.309   3.353  0.5452 -1.0659 -0.4191
19433TIP3    H179714   4.512   3.293   3.427  0.0278  0.5484 -0.4317
19433TIP3    H279715   4.525   3.377   3.302  1.4861 -1.2493 -1.5411
19434TIP3   OH279716   0.915   4.042   2.747  0.0312 -0.4044  0.5012
19434TIP3    H179717   0.898   3.949   2.730 -1.1647 -0.3703  1.4035
19434TIP3    H279718   0.829   4.083   2.748  0.4432  0.4827  1.4228
19435TIP3   OH279719   0.332   4.411  11.557 -0.5032 -0.2565 -0.3308
19435TIP3    H179720   0.360   4.411  11.465  1.5587  0.1544  0.2336
19435TIP3    H279721   0.345   4.501  11.587  1.5050 -0.9250  1.0394
19436TIP3   OH279722   5.451   0.367  13.681  0.1177  0.4621 -0.8131
19436TIP3    H179723   5.466   0.452  13.641 -0.0841  1.3785  0.9504
19436TIP3    H279724   5.533   0.346  13.725 -0.0934  0.1390 -0.5645
19437TIP3   OH279725   6.325   2.705   5.914  0.0472 -0.3583 -0.0126
19437TIP3    H179726   6.239   2.732   5.948 -0.0063  0.0754 -0.4838
19437TIP3    H279727   6.345   2.624   5.960  0.8090  1.1259  2.4926
19438TIP3   OH279728   1.987   5.933   1.435  0.2081  0.2944  0.3091
19438TIP3    H179729   2.053   5.918   1.368  1.1431  0.4563  1.1743
19438TIP3    H279730   2.014   6.015   1.477 -0.7998  0.6049  0.3836
19439TIP3   OH279731   1.594   6.394   1.684  0.4588  0.4637 -0.3440
19439TIP3    H179732   1.537   6.370   1.611  1.4750 -0.1148 -0.9542
19439TIP3    H279733   1.667   6.441   1.644  2.3379 -2.0223 -0.0683
19440TIP3   OH279734   4.448   0.646  17.263  0.2144 -0.5046  0.0791
19440TIP3    H179735   4.421   0.674  17.176  2.5232  1.6215 -0.0673
19440TIP3    H279736   4.399   0.565  17.278 -1.8671  0.1784 -2.2648
19441TIP3   OH279737   1.286   1.324   0.434  0.3079  0.0811 -0.1800
19441TIP3    H179738   1.352   1.389   0.410  0.8637 -0.2279  0.4729
19441TIP3    H279739   1.306   1.248   0.380  0.3139  0.0838 -0.1817
19442TIP3   OH279740   5.220   5.522   0.020 -0.6670 -0.0433 -0.4136
19442TIP3    H179741   5.144   5.526  -0.038  0.3015 -0.0887 -1.7474
19442TIP3    H279742   5.211   5.597   0.078 -2.0656 -0.4276 -0.1068
19443TIP3   OH279743   3.534   3.086  15.477  0.6374  0.4472 -0.0455
19443TIP3    H179744   3.573   3.143  15.410 -1.0147  0.8887 -0.6895
19443TIP3    H279745   3.601   3.081  15.545  2.8297 -0.8418 -2.1198
19444TIP3   OH279746   6.252   0.396  15.607 -0.4227  0.0583  0.0327
19444TIP3    H179747   6.235   0.486  15.579  1.3021  0.9565  1.7021
19444TIP3    H279748   6.333   0.372  15.562 -0.9807 -0.7699 -0.5611
19445TIP3   OH279749   6.005   0.090  13.758  0.3664  0.4442 -0.6195
19445TIP3    H179750   6.076   0.141  13.797  0.2355  0.7134 -0.7257
19445TIP3    H279751   5.956   0.154  13.706  0.0217  0.2682 -0.5150
19446TIP3   OH279752   4.916   5.980   1.984 -0.8025  0.1022 -0.3579
19446TIP3    H179753   4.930   5.978   2.079 -1.6385 -0.7495 -0.2390
19446TIP3    H279754   4.998   5.948   1.947 -1.0300 -1.1502  0.1607
19447TIP3   OH279755   5.047   2.235  17.184  0.2585  0.0606 -0.2829
19447TIP3    H179756   4.957   2.261  17.202  0.7932  1.3613  0.6196
19447TIP3    H279757   5.060   2.254  17.092 -1.2463 -2.8645 -1.2522
19448TIP3   OH279758   3.679   6.330  13.678  0.2151  0.5476 -0.3819
19448TIP3    H179759   3.679   6.234  13.674 -1.4991  0.4817  0.3268
19448TIP3    H279760   3.729   6.357  13.601  0.8686 -0.9182 -0.5074
19449TIP3   OH279761   4.954   1.512   4.042  0.2565 -0.0604  0.6898
19449TIP3    H179762   5.025   1.526   4.105  0.9851  2.2309 -0.5109
19449TIP3    H279763   4.928   1.600   4.016 -3.8208 -0.6986  1.8192
19450TIP3   OH279764   2.048   0.677  15.764 -0.6170 -0.0121 -0.0427
19450TIP3    H179765   2.003   0.753  15.800  0.2583  0.5347 -0.0827
19450TIP3    H279766   1.987   0.642  15.699 -1.2170  0.3792  0.2970
19451TIP3   OH279767   6.114   1.270   0.473 -0.3415  0.2470 -0.0986
19451TIP3    H179768   6.092   1.194   0.420 -0.3962 -0.1523  0.4875
19451TIP3    H279769   6.208   1.280   0.463 -0.4811  0.7577 -1.0293
19452TIP3   OH279770   1.348   1.404   6.100  0.3508  0.5422 -0.0604
19452TIP3    H179771   1.376   1.470   6.036  0.9723  1.1303  0.8010
19452TIP3    H279772   1.290   1.452   6.160  0.9720  0.3700  0.6912
19453TIP3   OH279773   4.741   4.660  14.933 -0.3336 -0.4313 -0.2097
19453TIP3    H179774   4.684   4.733  14.956  0.7335  0.8484 -1.4224
19453TIP3    H279775   4.690   4.607  14.872 -1.1057 -0.7116  0.6591
19454TIP3   OH279776   3.825   0.471   3.998 -0.0354 -0.7538  0.5523
19454TIP3    H179777   3.860   0.558   3.978 -1.3495 -0.2374  0.4312
19454TIP3    H279778   3.902   0.414   3.995  1.1766  0.6520  2.3566
19455TIP3   OH279779   0.688   5.381   2.401 -0.3387  0.1644 -0.2123
19455TIP3    H179780   0.784   5.378   2.404 -0.3289  0.4992 -0.0131
19455TIP3    H279781   0.667   5.466   2.440 -0.6465  0.9071 -1.9112
19456TIP3   OH279782   0.739   5.037  17.269  0.0848  0.4181  0.3631
19456TIP3    H179783   0.760   4.949  17.301  0.1551 -0.1747 -1.2282
19456TIP3    H279784   0.818   5.088  17.284  1.5715 -0.8850 -2.3604
19457TIP3   OH279785   2.390   0.416  12.780 -0.1251  0.1627  0.0739
19457TIP3    H179786   2.437   0.342  12.820 -2.2414 -1.5016 -0.3948
19457TIP3    H279787   2.408   0.408  12.687 -2.4818 -1.4379 -0.3114
19458TIP3   OH279788   1.923   5.375  12.740  0.1234 -0.0660 -0.2403
19458TIP3    H179789   1.925   5.314  12.813  1.6861  1.5315  1.1395
19458TIP3    H279790   1.836   5.414  12.743  1.2748  2.8101  3.3920
19459TIP3   OH279791   1.173   6.571   4.077 -0.4598  0.1867  0.2804
19459TIP3    H179792   1.120   6.589   3.999 -1.3377  0.0180  0.8243
19459TIP3    H279793   1.182   6.655   4.121 -0.2808  0.2149  0.1886
19460TIP3   OH279794   4.885   3.866   4.861  0.0470 -0.0751 -0.0596
19460TIP3    H179795   4.913   3.913   4.940  0.1506 -0.6479  0.2478
19460TIP3    H279796   4.790   3.860   4.871  0.0969 -0.4632  0.2014
19461TIP3   OH279797   1.295   2.508  13.105 -0.0788 -0.6837  0.0342
19461TIP3    H179798   1.266   2.478  13.019 -0.5760 -0.4848  0.1312
19461TIP3    H279799   1.251   2.592  13.117  0.7318 -0.2526  0.0772
19462TIP3   OH279800   3.304   6.747   1.636  0.1831  0.0727 -0.1667
19462TIP3    H179801   3.279   6.807   1.706  1.7571 -0.9448  1.3715
19462TIP3    H279802   3.273   6.788   1.556 -0.9574  1.7001  1.0523
19463TIP3   OH279803   6.575   1.564  13.770  0.3528 -0.8328  0.4980
19463TIP3    H179804   6.589   1.489  13.712  1.2086 -0.3317  0.0540
19463TIP3    H279805   6.501   1.611  13.731 -0.5403 -1.7162  1.0704
19464TIP3   OH279806   4.342   3.074  15.659 -0.0663  0.0868  0.9653
19464TIP3    H179807   4.423   3.058  15.709  0.6195  2.0973  0.6229
19464TIP3    H279808   4.275   3.023  15.704  1.4544 -2.0290  0.9870
19465TIP3   OH279809   4.316   3.644   3.412  0.0586  0.2799 -0.1957
19465TIP3    H179810   4.276   3.713   3.465 -0.0254 -1.3377  1.9970
19465TIP3    H279811   4.405   3.674   3.398  0.0265  0.8680  0.7083
19466TIP3   OH279812   0.024   3.816   1.001 -0.1045 -0.3118  0.4733
19466TIP3    H179813   0.085   3.767   0.946 -0.8847 -0.4046 -0.3398
19466TIP3    H279814   0.026   3.905   0.966 -3.1711 -1.0625 -2.1207
19467TIP3   OH279815   4.425   2.217  15.954 -0.0587  0.0497  0.1235
19467TIP3    H179816   4.361   2.238  16.022  0.0075 -1.0432  0.5463
19467TIP3    H279817   4.382   2.152  15.899  0.5088 -0.3612  0.1462
19468TIP3   OH279818   5.382   4.331  16.546  0.4211 -0.2881 -0.0153
19468TIP3    H179819   5.315   4.265  16.567 -0.9333  0.6670 -1.1099
19468TIP3    H279820   5.378   4.393  16.619  0.2411 -0.3354  0.0165
19469TIP3   OH279821   0.402   6.444   1.216  0.2468  0.0209  0.3595
19469TIP3    H179822   0.325   6.411   1.262  0.8681 -0.2307  1.2511
19469TIP3    H279823   0.439   6.368   1.171  0.1951  0.0544  0.2614
19470TIP3   OH279824   1.258   6.411   3.223 -0.8858  0.1338  0.2090
19470TIP3    H179825   1.283   6.496   3.260  0.6207 -0.1445 -0.1003
19470TIP3    H279826   1.167   6.422   3.197 -0.9606  1.3883  0.9510
19471TIP3   OH279827   5.953   0.727   2.767 -0.9548 -0.0420  0.0192
19471TIP3    H179828   5.922   0.728   2.676 -1.0411 -0.5304  0.0443
19471TIP3    H279829   6.048   0.741   2.760 -0.9845  0.0866 -0.1341
19472TIP3   OH279830   1.947   4.459   3.976  0.0285 -0.1437 -0.0260
19472TIP3    H179831   1.946   4.367   3.951 -0.7655 -0.3616  0.7525
19472TIP3    H279832   1.855   4.483   3.984  0.2306  0.4642  0.6542
19473TIP3   OH279833   6.510   2.221   1.055  0.4359 -0.0754 -0.0197
19473TIP3    H179834   6.437   2.273   1.089 -0.3394 -0.4239 -1.1338
19473TIP3    H279835   6.549   2.181   1.133  0.2645  1.1455  0.7196
19474TIP3   OH279836   0.934   3.752  14.308  0.2968  0.4651  0.3725
19474TIP3    H179837   1.025   3.751  14.280  0.0543 -1.6557 -0.4823
19474TIP3    H279838   0.900   3.836  14.277  1.4834  0.4965 -0.9194
19475TIP3   OH279839   3.097   6.439  14.982  0.0070  0.6657  0.2904
19475TIP3    H179840   3.175   6.424  14.929  2.0870  1.3339  2.9492
19475TIP3    H279841   3.119   6.515  15.036 -1.6259 -0.3666  2.5960
19476TIP3   OH279842   0.365   6.508  14.179  0.1474  0.0392 -0.5558
19476TIP3    H179843   0.314   6.495  14.099 -0.5682 -0.0775 -0.0877
19476TIP3    H279844   0.405   6.423  14.195 -1.5932 -0.6379  0.4826
19477TIP3   OH279845   5.248   4.989  16.993  0.2212 -0.3162  0.0462
19477TIP3    H179846   5.226   5.081  17.005 -2.4651 -0.9221  0.4764
19477TIP3    H279847   5.337   4.981  17.028  0.7561  2.1938 -0.5756
19478TIP3   OH279848   1.050   3.075  16.812 -0.0426 -0.2948  0.3844
19478TIP3    H179849   0.994   3.153  16.822 -1.4696 -0.9180 -1.9949
19478TIP3    H279850   1.124   3.105  16.759  0.8246  0.0168  1.7214
19479TIP3   OH279851   2.161   6.228   2.647 -0.8533 -0.0569 -0.0889
19479TIP3    H179852   2.177   6.313   2.605  1.3185 -0.0082  0.7072
19479TIP3    H279853   2.144   6.250   2.739  1.2370 -0.5075  0.4562
19480TIP3   OH279854   3.227   5.203  14.907 -0.4691 -0.0982  0.1055
19480TIP3    H179855   3.276   5.154  14.973  1.0005  0.5054 -0.4814
19480TIP3    H279856   3.193   5.135  14.848 -1.2040 -0.5923  1.0776
19481TIP3   OH279857   5.379   2.254  16.552  0.6406  0.4100 -0.0984
19481TIP3    H179858   5.331   2.172  16.562  1.5877 -0.2891 -1.0531
19481TIP3    H279859   5.330   2.317  16.604 -0.9133 -0.4259 -0.4886
19482TIP3   OH279860   1.480   2.344  16.137  0.4586 -0.7204  0.0223
19482TIP3    H179861   1.430   2.263  16.132 -0.0665 -0.3810 -0.3271
19482TIP3    H279862   1.571   2.317  16.132  0.2687 -1.2415 -0.7385
19483TIP3   OH279863   1.489   6.553  11.815  0.1653  0.5067 -0.4529
19483TIP3    H179864   1.575   6.590  11.836  0.0854  0.9445 -0.8735
19483TIP3    H279865   1.456   6.608  11.745 -0.8352  0.8701  0.2816
19484TIP3   OH279866   1.789   6.211  15.003 -0.5910  0.1950 -0.3654
19484TIP3    H179867   1.727   6.257  14.947 -1.2613  0.3770  0.5018
19484TIP3    H279868   1.862   6.272  15.013 -0.6089  0.2856 -0.7794
19485TIP3   OH279869   2.291   1.894  17.305 -0.0606  0.5577 -0.2867
19485TIP3    H179870   2.300   1.955  17.232  1.0630  0.6347 -0.1009
19485TIP3    H279871   2.319   1.810  17.269 -2.3862 -0.0720 -0.7829
19486TIP3   OH279872   4.432   5.434  12.157  0.2245 -0.2754  0.3026
19486TIP3    H179873   4.523   5.414  12.176  0.2570  0.4764  1.0374
19486TIP3    H279874   4.430   5.456  12.064  0.2876 -2.9406 -0.3906
19487TIP3   OH279875   1.835   4.250   4.960 -0.4314 -0.0444  0.4443
19487TIP3    H179876   1.759   4.211   5.004 -1.9134 -0.1103 -2.0161
19487TIP3    H279877   1.906   4.187   4.975 -1.7557 -1.7376 -0.0746
19488TIP3   OH279878   2.175   2.623   4.303  0.2030  0.5069 -0.1931
19488TIP3    H179879   2.102   2.679   4.275 -0.7194 -1.8852 -3.0874
19488TIP3    H279880   2.137   2.536   4.312  2.4363 -0.5916 -0.5638
19489TIP3   OH279881   0.703   5.415   5.579 -0.5680  0.0110  0.3416
19489TIP3    H179882   0.668   5.421   5.490 -1.5508  0.3977  0.7340
19489TIP3    H279883   0.674   5.496   5.621  0.2858  0.0401  0.8802
19490TIP3   OH279884   6.515   4.231   0.708 -0.1943 -0.8654  0.2988
19490TIP3    H179885   6.453   4.254   0.638 -0.8884  1.1396  1.5067
19490TIP3    H279886   6.556   4.150   0.677 -2.7917 -1.8287 -0.9454
19491TIP3   OH279887   6.359   3.124   5.343 -0.5043 -0.2516  0.1944
19491TIP3    H179888   6.449   3.151   5.329 -0.4601  0.0101  0.9402
19491TIP3    H279889   6.341   3.062   5.272  0.4947 -0.8542  0.4495
19492TIP3   OH279890   1.915   0.471  14.704  0.7236 -0.0675  0.2531
19492TIP3    H179891   1.979   0.502  14.640 -1.4259  0.8148 -1.6049
19492TIP3    H279892   1.935   0.378  14.716  1.6554 -0.0569 -1.1078
19493TIP3   OH279893   4.760   5.217   6.107  0.1660 -0.1951 -0.1765
19493TIP3    H179894   4.817   5.210   6.030 -1.1879 -0.1466 -1.2089
19493TIP3    H279895   4.690   5.276   6.080  0.0677  0.4227  1.3593
19494TIP3   OH279896   4.822   4.252  17.252 -0.1887  0.1822  0.0998
19494TIP3    H179897   4.889   4.313  17.283 -0.1211  0.3858 -0.4302
19494TIP3    H279898   4.863   4.207  17.177 -0.9162  0.9036 -0.7614
19495TIP3   OH279899   1.752   2.168  12.316  0.8400 -0.5199  0.5598
19495TIP3    H179900   1.681   2.114  12.351  1.8696 -1.8208  0.7672
19495TIP3    H279901   1.831   2.116  12.333  1.6139 -0.1932 -1.7236
19496TIP3   OH279902   1.144   1.618  11.434  0.2928  0.3143 -0.6209
19496TIP3    H179903   1.221   1.672  11.413  0.1818  0.8083  0.1966
19496TIP3    H279904   1.180   1.533  11.459  0.4664 -0.0451 -1.9870
19497TIP3   OH279905   3.060   1.526  13.932 -0.3601  0.0960  0.7285
19497TIP3    H179906   3.070   1.621  13.926  2.0762 -0.1441 -0.1361
19497TIP3    H279907   3.054   1.497  13.841 -1.2882 -0.5958  0.9937
19498TIP3   OH279908   3.315   4.228  15.414  0.3160 -0.9528  0.1069
19498TIP3    H179909   3.400   4.184  15.423  1.2719  0.1586 -2.5769
19498TIP3    H279910   3.330   4.316  15.449  0.6221 -0.4212 -1.3018
19499TIP3   OH279911   2.368   1.649   0.894  0.1030  0.0656  0.0586
19499TIP3    H179912   2.418   1.568   0.901  0.2021  0.0863 -0.3705
19499TIP3    H279913   2.286   1.623   0.853 -0.0676  0.1024  0.3734
19500TIP3   OH279914   5.683   2.918  13.191 -0.1243  0.3052  0.3658
19500TIP3    H179915   5.697   3.012  13.188 -0.4896  0.3634  0.4135
19500TIP3    H279916   5.770   2.880  13.180 -0.1687  0.6267 -1.3073
19501TIP3   OH279917   3.376   3.264   5.167  0.1533 -0.3086  0.1407
19501TIP3    H179918   3.359   3.350   5.127  0.6933  0.3244  1.2341
19501TIP3    H279919   3.342   3.201   5.103 -0.9763  0.7351 -0.3353
19502TIP3   OH279920   0.017   3.481  15.616 -0.0419  0.1618 -0.0597
19502TIP3    H179921  -0.039   3.418  15.570  0.2718 -1.0147  1.0936
19502TIP3    H279922  -0.029   3.497  15.699 -0.7646  2.4937 -0.8190
19503TIP3   OH279923   5.381   6.545   5.277  0.3690 -0.1325  0.0270
19503TIP3    H179924   5.346   6.538   5.188 -0.4824  1.3533  0.2079
19503TIP3    H279925   5.464   6.591   5.266  1.1444 -1.5392 -0.1609
19504TIP3   OH279926   5.334   3.575   6.729 -0.0785  0.8120 -0.1122
19504TIP3    H179927   5.326   3.503   6.666 -0.0315  0.0258  0.7500
19504TIP3    H279928   5.409   3.626   6.698  2.0509 -1.3987  1.0431
19505TIP3   OH279929   3.366   3.064   6.276 -0.7807  0.0689 -0.1813
19505TIP3    H179930   3.330   3.140   6.231 -1.6067 -0.6456 -0.7615
19505TIP3    H279931   3.294   3.032   6.330 -0.2615  0.0224  0.4961
19506TIP3   OH279932   0.380   1.363  17.039 -0.0222 -0.0791  0.1181
19506TIP3    H179933   0.302   1.418  17.033 -0.5870 -0.7977  0.8113
19506TIP3    H279934   0.356   1.282  16.993  0.9220  0.3535 -1.2027
19507TIP3   OH279935   3.868   4.522  13.188  0.1321  0.0431  0.3448
19507TIP3    H179936   3.827   4.547  13.105  0.5698 -0.8408 -0.1483
19507TIP3    H279937   3.813   4.563  13.255  0.1882  1.3749 -0.3885
19508TIP3   OH279938   2.732   6.614  12.955  0.2716 -0.0157  0.6981
19508TIP3    H179939   2.815   6.579  12.987 -0.8214 -1.3608  2.2884
19508TIP3    H279940   2.667   6.547  12.980 -1.2638  0.9093 -0.6305
19509TIP3   OH279941   2.979   4.087   5.453 -0.2136  0.0916  0.4275
19509TIP3    H179942   2.997   4.180   5.452  0.2369  0.0144  1.3674
19509TIP3    H279943   2.970   4.064   5.360  0.2527  0.9437  0.1643
19510TIP3   OH279944   3.516   5.551  10.871  0.0322  0.0275 -0.2346
19510TIP3    H179945   3.584   5.613  10.897 -1.0600  1.5316 -0.8343
19510TIP3    H279946   3.561   5.487  10.817  1.0528  0.7714 -0.2965
19511TIP3   OH279947   5.143   4.460  13.628  0.1572  0.2980 -0.3552
19511TIP3    H179948   5.192   4.484  13.707 -2.0668 -3.0974  2.3116
19511TIP3    H279949   5.074   4.526  13.621  0.3554  0.6115  0.5555
19512TIP3   OH279950   4.743   0.819   1.361 -0.2746 -0.3345 -0.3849
19512TIP3    H179951   4.756   0.789   1.271  2.0807  0.9529 -0.5358
19512TIP3    H279952   4.786   0.752   1.414  0.1613 -0.0514 -0.3735
19513TIP3   OH279953   5.099   2.143   0.837 -0.7835  1.0601 -0.3370
19513TIP3    H179954   5.024   2.118   0.891  0.1119  2.1659  1.5301
19513TIP3    H279955   5.088   2.237   0.824  0.3831  1.2916  0.1974
19514TIP3   OH279956   5.319   4.965   1.120  0.1374 -0.2184  0.6929
19514TIP3    H179957   5.291   5.005   1.038  1.0616  0.7500  0.8211
19514TIP3    H279958   5.401   4.920   1.099  2.0796  2.5836  1.6196
19515TIP3   OH279959   3.021   1.947  12.906 -0.0856  0.6715  0.1673
19515TIP3    H179960   3.116   1.954  12.922 -0.1898 -0.6332  1.6184
19515TIP3    H279961   3.014   1.892  12.828  0.3535 -0.5211  0.9420
19516TIP3   OH279962   6.162   0.050   2.712 -0.5380 -0.1898 -0.2135
19516TIP3    H179963   6.244   0.068   2.667  0.7633 -0.5176  1.8416
19516TIP3    H279964   6.141   0.131   2.758 -1.5320 -0.0203 -0.9559
19517TIP3   OH279965   1.171   6.728   4.676 -0.7042  0.2560 -0.6709
19517TIP3    H179966   1.095   6.691   4.633 -0.3093 -0.6465 -0.6124
19517TIP3    H279967   1.173   6.820   4.648 -2.0073  0.3844 -0.3840
19518TIP3   OH279968   2.905   1.060  16.959 -0.1697 -0.1358  0.1774
19518TIP3    H179969   2.818   1.073  16.997  0.2841  3.9510  0.2613
19518TIP3    H279970   2.891   1.064  16.865  0.0038  2.6856  0.1827
19519TIP3   OH279971   3.850   0.042  12.306  0.0025  0.1973  0.1355
19519TIP3    H179972   3.855   0.137  12.297  0.6885  0.1503 -0.0607
19519TIP3    H279973   3.871   0.025  12.397 -0.7448  0.2659  0.3323
19520TIP3   OH279974   4.594   5.448   5.685  0.2743  0.4094  0.5642
19520TIP3    H179975   4.561   5.363   5.716 -0.1387  0.0655 -0.7592
19520TIP3    H279976   4.620   5.432   5.595 -3.0040  2.4269 -0.9390
19521TIP3   OH279977   4.720   6.135  15.465 -0.3743  0.2124 -0.1341
19521TIP3    H179978   4.717   6.215  15.413  0.2403  0.4868  0.2436
19521TIP3    H279979   4.677   6.158  15.548 -1.8676 -0.3829 -0.7012
19522TIP3   OH279980   2.496   6.626   6.514 -0.1503  0.0926 -0.0784
19522TIP3    H179981   2.553   6.570   6.462 -0.6027 -0.6122  0.1688
19522TIP3    H279982   2.516   6.715   6.485  0.8586 -0.1622 -0.2005
19523TIP3   OH279983   0.563   2.166  17.215 -0.0531 -0.0138 -0.6649
19523TIP3    H179984   0.528   2.119  17.290 -0.1123 -0.5726 -1.0330
19523TIP3    H279985   0.658   2.157  17.223  0.1295  2.5285  0.9956
19524TIP3   OH279986   3.441   5.691   6.185 -0.2015 -0.1890  0.3347
19524TIP3    H179987   3.532   5.702   6.159 -0.2689 -0.3404  0.0176
19524TIP3    H279988   3.444   5.680   6.280  0.2331 -1.3805  0.2041
19525TIP3   OH279989   6.580   6.611  16.496  0.1195  0.0559 -0.4031
19525TIP3    H179990   6.537   6.602  16.411  0.4242 -1.0946 -0.4510
19525TIP3    H279991   6.510   6.596  16.559  0.1307 -0.2713 -0.4658
19526TIP3   OH279992   5.305   3.982   1.838 -0.0236  0.3691 -0.4182
19526TIP3    H179993   5.322   3.980   1.744 -1.5109 -2.1095 -0.7030
19526TIP3    H279994   5.210   3.990   1.845 -0.0627 -0.8502  0.8142
19527TIP3   OH279995   4.704   2.935  16.845  0.7065 -0.1832  0.1390
19527TIP3    H179996   4.726   2.844  16.822  0.5299 -0.2981  0.4159
19527TIP3    H279997   4.608   2.938  16.839  0.7448  0.1174 -0.3479
19528TIP3   OH279998   0.545   5.944  14.886  0.3387  0.4725 -0.7632
19528TIP3    H179999   0.565   5.963  14.794 -3.5672  2.8344 -1.3436
19528TIP3    H280000   0.458   5.904  14.884 -0.2407  1.3908  1.9170
19529TIP3   OH280001   6.153   4.531   2.625  0.4706  0.0171 -0.2067
19529TIP3    H180002   6.141   4.620   2.659 -0.1022 -0.4066  0.7674
19529TIP3    H280003   6.164   4.477   2.703 -0.2461 -0.9144 -0.7263
19530TIP3   OH280004   1.370   5.462  16.592 -0.3629  0.1060 -0.2652
19530TIP3    H180005   1.332   5.496  16.673 -2.2922 -0.5777 -0.8380
19530TIP3    H280006   1.357   5.367  16.597  0.2214 -0.0295 -1.0254
19531TIP3   OH280007   4.357   1.310  16.258  0.5256 -0.0122  0.2979
19531TIP3    H180008   4.447   1.330  16.230  0.7454  0.9883  1.6309
19531TIP3    H280009   4.310   1.294  16.176  2.0132 -1.0529 -0.4029
19532TIP3   OH280010   3.788   4.358   0.835 -0.1127 -0.3630  0.2136
19532TIP3    H180011   3.807   4.283   0.777 -0.0906 -0.1980  0.0074
19532TIP3    H280012   3.874   4.384   0.868 -0.1909 -0.8728  0.8407
19533TIP3   OH280013   5.425   5.861   1.727  0.3644 -0.1647 -0.5073
19533TIP3    H180014   5.352   5.866   1.665  0.7895 -0.5980 -1.0560
19533TIP3    H280015   5.503   5.851   1.672  0.7836 -0.2481  0.0886
19534TIP3   OH280016   5.869   4.405   0.749  0.0812  0.0059 -0.4347
19534TIP3    H180017   5.840   4.466   0.681  1.0075 -0.3048 -1.1313
19534TIP3    H280018   5.837   4.320   0.719  0.1611 -0.0773 -0.2822
19535TIP3   OH280019   4.733   2.368  11.921 -0.1438 -0.3660  0.2671
19535TIP3    H180020   4.651   2.385  11.875  0.2102 -0.9039 -0.5921
19535TIP3    H280021   4.749   2.448  11.972  0.3447  1.0130 -1.9126
19536TIP3   OH280022   5.246   4.349   4.064 -0.3167  0.0184 -0.3462
19536TIP3    H180023   5.292   4.432   4.071  0.5038 -0.3674 -0.9919
19536TIP3    H280024   5.302   4.295   4.008 -1.2832 -0.6585 -0.6849
19537TIP3   OH280025   6.420   5.612  11.616  0.0537  0.1907  0.0521
19537TIP3    H180026   6.363   5.686  11.594  1.1113  0.7119 -1.0908
19537TIP3    H280027   6.363   5.535  11.608 -1.0264  0.8424  1.1215
19538TIP3   OH280028   2.366   1.889  15.831 -0.2097  0.1983 -0.1424
19538TIP3    H180029   2.388   1.971  15.786 -1.3991  0.3941 -0.4014
19538TIP3    H280030   2.371   1.910  15.924  0.4006  0.3028 -0.1916
19539TIP3   OH280031   2.134   1.234   0.535 -0.4199  0.0406 -0.0728
19539TIP3    H180032   2.178   1.176   0.473  1.0526  0.4749  0.5271
19539TIP3    H280033   2.183   1.316   0.531 -0.2275  0.0537  1.6967
19540TIP3   OH280034   4.186   2.632  12.966 -0.7097  0.7531 -0.0169
19540TIP3    H180035   4.120   2.660  13.030  0.0632  0.1021  1.1049
19540TIP3    H280036   4.191   2.537  12.976  0.4381  0.7904 -0.0016
19541TIP3   OH280037   0.934   4.343  14.513 -0.0185  0.6385 -0.1177
19541TIP3    H180038   0.949   4.333  14.607 -1.9124 -2.1280  0.0324
19541TIP3    H280039   0.868   4.412  14.506 -1.3468 -0.4621  0.8425
19542TIP3   OH280040   6.111   6.248   3.743  0.2189 -0.0623  0.0538
19542TIP3    H180041   6.138   6.272   3.832  0.3188  0.0783 -0.0129
19542TIP3    H280042   6.037   6.305   3.724  0.5951  0.3544 -0.1868
19543TIP3   OH280043   0.745   0.589   1.358  0.0561  0.0245  0.6344
19543TIP3    H180044   0.839   0.603   1.369  0.0962 -0.0447  0.3986
19543TIP3    H280045   0.704   0.651   1.418  0.2601 -0.7703  1.6284
19544TIP3   OH280046   5.932   3.314  16.897  0.3714  0.4011  0.0085
19544TIP3    H180047   6.018   3.322  16.856  1.0181 -0.7587  1.0550
19544TIP3    H280048   5.945   3.251  16.968 -1.1020  1.0324  0.8855
19545TIP3   OH280049   6.344   5.654   1.320 -0.5370 -0.2730  0.1568
19545TIP3    H180050   6.321   5.629   1.230 -4.1613  1.6140  0.3522
19545TIP3    H280051   6.315   5.746   1.327  2.4283  0.6407  2.4333
19546TIP3   OH280052   4.395   0.716   2.894  0.4991 -0.0737 -0.0992
19546TIP3    H180053   4.311   0.693   2.933  1.0714  0.1653  1.3237
19546TIP3    H280054   4.389   0.809   2.876  0.3481 -0.1178 -0.2750
19547TIP3   OH280055   0.832   1.223  13.243 -0.3818  0.2691  0.1375
19547TIP3    H180056   0.857   1.252  13.156 -0.6606 -2.3837 -0.9227
19547TIP3    H280057   0.752   1.172  13.230  0.0365 -0.9119  1.7853
19548TIP3   OH280058   0.708   3.494   5.633  0.6973  0.4763  0.0763
19548TIP3    H180059   0.802   3.493   5.617  0.6389  1.5454 -0.4278
19548TIP3    H280060   0.699   3.527   5.723  0.8964 -2.7353  1.4336
19549TIP3   OH280061   2.972   0.329  13.261 -0.8817  0.5654  0.0093
19549TIP3    H180062   2.930   0.248  13.290 -0.6101  0.1058 -0.8422
19549TIP3    H280063   3.003   0.370  13.341  0.6595 -1.0992  0.3241
19550TIP3   OH280064   3.041   2.084   5.984 -0.0332  0.0027 -0.0606
19550TIP3    H180065   3.051   2.019   5.914 -1.0633 -0.8156  0.5105
19550TIP3    H280066   3.004   2.161   5.942  1.3184  0.2929 -0.7743
19551TIP3   OH280067   5.527   3.844   6.874 -0.0237  0.0878 -0.6423
19551TIP3    H180068   5.507   3.840   6.780  0.2908  0.3548 -0.7178
19551TIP3    H280069   5.604   3.787   6.885 -0.5913 -0.6605 -0.4028
19552TIP3   OH280070   5.854   0.937  12.074  0.6236 -0.3815 -0.9586
19552TIP3    H180071   5.946   0.911  12.064  1.2623  1.3289  0.0710
19552TIP3    H280072   5.828   0.966  11.986  0.9098 -1.2786 -1.3554
19553TIP3   OH280073   4.412   5.652  16.952  0.2441  0.2906  0.2269
19553TIP3    H180074   4.479   5.710  16.987  0.8744 -0.5542  0.4603
19553TIP3    H280075   4.460   5.576  16.919 -0.5573 -0.1092 -0.0595
19554TIP3   OH280076   0.881   5.843  12.242 -0.3100  0.3334  0.3703
19554TIP3    H180077   0.815   5.828  12.175  0.9249  1.4274 -1.1615
19554TIP3    H280078   0.937   5.912  12.206  0.7030  0.6032  2.3177
19555TIP3   OH280079   2.204   2.869   6.170 -0.0012 -0.4722 -0.2382
19555TIP3    H180080   2.172   2.845   6.083  0.5441 -1.2424 -0.2306
19555TIP3    H280081   2.205   2.787   6.219 -3.1304  0.3285  1.4788
19556TIP3   OH280082   6.638   2.736   5.946  0.5563  0.0942 -0.9060
19556TIP3    H180083   6.543   2.738   5.936  0.3215 -0.5199  0.8250
19556TIP3    H280084   6.663   2.646   5.925  0.5634 -0.1151 -0.0329
19557TIP3   OH280085   4.477   1.807  11.117 -0.0057  0.1109 -0.3898
19557TIP3    H180086   4.401   1.816  11.174 -1.7629 -0.2757 -2.5454
19557TIP3    H280087   4.535   1.879  11.143 -1.2145  0.6029  1.0958
19558TIP3   OH280088   1.746   4.494  11.898 -0.6263 -0.5687 -0.0468
19558TIP3    H180089   1.765   4.584  11.869 -1.6033  0.1723  1.4771
19558TIP3    H280090   1.656   4.478  11.870 -1.7640  0.3327  2.7458
19559TIP3   OH280091   4.261   5.959  16.509 -0.0470 -0.1350 -0.2699
19559TIP3    H180092   4.322   6.024  16.474 -1.4357  1.2770 -0.1495
19559TIP3    H280093   4.198   5.945  16.438 -0.7974  0.0159  0.3620
19560TIP3   OH280094   4.406   0.078  14.385 -0.0858  0.2743  0.0234
19560TIP3    H180095   4.358   0.159  14.401  0.0057  0.2735  0.3043
19560TIP3    H280096   4.412   0.072  14.290  0.0037  0.6574  0.0032
19561TIP3   OH280097   4.275   6.700   4.585 -0.2565 -0.3795  0.2305
19561TIP3    H180098   4.294   6.703   4.491  1.4161  0.8902  0.5547
19561TIP3    H280099   4.360   6.715   4.627 -0.4699 -3.4507  2.0199
19562TIP3   OH280100   0.239   4.234  12.249  0.2763 -0.4241 -0.1041
19562TIP3    H180101   0.259   4.241  12.343 -0.3592  0.1382 -0.0045
19562TIP3    H280102   0.147   4.260  12.242 -0.1241 -1.9223 -0.6893
19563TIP3   OH280103   3.939   1.555   0.092 -0.1243  0.5638  0.4519
19563TIP3    H180104   3.933   1.628   0.030 -2.3804 -0.5574 -0.7571
19563TIP3    H280105   3.854   1.551   0.134  0.1397 -1.0282  0.9024
19564TIP3   OH280106   1.425   4.048   3.806  0.2324  0.0097 -0.5730
19564TIP3    H180107   1.393   4.105   3.876 -0.7523 -0.2331 -0.8099
19564TIP3    H280108   1.519   4.042   3.821  0.3396  1.5579 -0.4386
19565TIP3   OH280109   4.640   5.034   1.273  0.5222 -0.2607 -0.2875
19565TIP3    H180110   4.635   4.999   1.361 -1.1570 -0.9386 -0.6035
19565TIP3    H280111   4.550   5.029   1.240  0.9525  0.7285 -1.7466
19566TIP3   OH280112   0.250   2.448  16.962 -0.4476  0.0597 -0.7636
19566TIP3    H180113   0.300   2.445  17.043  1.6068 -1.4768 -1.9836
19566TIP3    H280114   0.163   2.415  16.986  0.5449 -1.7895  0.5756
19567TIP3   OH280115   1.123   3.864   1.164 -0.0001  0.5039 -0.1002
19567TIP3    H180116   1.115   3.777   1.123 -1.0357  1.1893 -1.4183
19567TIP3    H280117   1.164   3.846   1.249 -0.1832 -1.2720 -0.3400
19568TIP3   OH280118   0.037   0.281  15.452  0.5093  0.2816  0.3707
19568TIP3    H180119  -0.047   0.236  15.461  0.9572 -0.6471 -0.0032
19568TIP3    H280120   0.027   0.335  15.373  0.1540  0.4133  0.5077
19569TIP3   OH280121   2.613   5.572  15.151  0.1892  0.0672 -0.0991
19569TIP3    H180122   2.605   5.565  15.055 -0.2629  0.3556 -0.0833
19569TIP3    H280123   2.532   5.615  15.179  0.9965  1.4196  0.2536
19570TIP3   OH280124   5.468   0.309  14.676  0.3586  0.0201 -0.4413
19570TIP3    H180125   5.461   0.232  14.619 -0.4188  0.6910 -1.2681
19570TIP3    H280126   5.556   0.302  14.714  0.1790 -1.4733 -0.2039
19571TIP3   OH280127   2.561   4.469  14.494  0.4177 -0.3598 -0.0968
19571TIP3    H180128   2.590   4.499  14.580  1.9201  0.3941 -0.8083
19571TIP3    H280129   2.621   4.512  14.433 -0.1777 -1.4091 -1.4770
19572TIP3   OH280130   1.201   6.712  14.807  0.5235 -0.0902 -0.2443
19572TIP3    H180131   1.200   6.619  14.830 -0.5099 -0.2606 -0.9322
19572TIP3    H280132   1.141   6.719  14.733  0.6647  1.1150 -0.2590
19573TIP3   OH280133   0.455   5.910   0.411  0.0906  0.3708 -0.2807
19573TIP3    H180134   0.537   5.864   0.429  0.4561  1.0753 -0.1131
19573TIP3    H280135   0.427   5.942   0.497  0.7427  1.9417 -0.6276
19574TIP3   OH280136   0.177   0.113   3.010  0.1517 -0.6335  0.1166
19574TIP3    H180137   0.127   0.134   2.932  0.7531 -0.6704 -0.2855
19574TIP3    H280138   0.216   0.027   2.991  0.0937 -0.7585  0.5576
19575TIP3   OH280139   5.379   0.161   0.664  0.4454  0.1069 -0.1210
19575TIP3    H180140   5.468   0.130   0.681  0.1002 -1.3757 -0.8921
19575TIP3    H280141   5.332   0.144   0.746  0.8421  0.8633  0.2772
19576TIP3   OH280142   5.018   1.495   2.479  0.5155 -0.3267  0.8453
19576TIP3    H180143   5.005   1.412   2.434  0.2766  0.8721 -1.4822
19576TIP3    H280144   5.093   1.535   2.434 -1.7529  2.3717 -0.8691
19577TIP3   OH280145   5.582   0.606  13.630 -0.2474 -0.1024 -0.0704
19577TIP3    H180146   5.522   0.650  13.570 -0.8116 -1.1534 -0.3007
19577TIP3    H280147   5.654   0.668  13.642 -1.7340  1.5445  0.8727
19578TIP3   OH280148   4.011   2.343   3.959  0.2060 -0.4121  0.3497
19578TIP3    H180149   3.955   2.389   3.898  0.3158 -0.9743 -0.1891
19578TIP3    H280150   4.077   2.407   3.985 -0.0371 -0.0731  0.1334
19579TIP3   OH280151   1.460   2.101  14.401 -0.5651 -0.6427  0.1261
19579TIP3    H180152   1.476   2.015  14.363 -0.1360  0.5807 -2.7000
19579TIP3    H280153   1.384   2.135  14.353  0.4544  1.2814 -0.2323
19580TIP3   OH280154   6.038   2.404  16.097  0.2748  0.3545 -0.3112
19580TIP3    H180155   5.960   2.363  16.134  0.7069 -0.5242 -0.3309
19580TIP3    H280156   6.075   2.337  16.040  0.0133  1.4374 -1.8032
19581TIP3   OH280157   6.677   2.125  15.115  0.2270 -0.6217 -0.1926
19581TIP3    H180158   6.651   2.035  15.097 -0.1703 -0.2992 -1.2877
19581TIP3    H280159   6.638   2.145  15.200  0.6136 -1.5904  0.2213
19582TIP3   OH280160   2.889   4.810   6.205  0.2305  0.0075 -0.1846
19582TIP3    H180161   2.930   4.743   6.260 -0.6930  0.3996  1.0346
19582TIP3    H280162   2.900   4.891   6.254  0.3061  0.5559 -1.0910
19583TIP3   OH280163   3.214   3.606  15.264 -0.1049  0.1369  0.2267
19583TIP3    H180164   3.208   3.524  15.216 -0.5488 -0.4675  1.2754
19583TIP3    H280165   3.124   3.624  15.292  0.0341  0.8412  0.2303
19584TIP3   OH280166   3.939   1.332  14.481  0.6281 -0.1743 -0.5132
19584TIP3    H180167   3.962   1.261  14.541  1.5259  0.3375 -0.2222
19584TIP3    H280168   3.990   1.407  14.512  1.1641  0.0920 -1.9408
19585TIP3   OH280169   1.992   4.121  14.163 -0.8794 -0.0169  0.0536
19585TIP3    H180170   1.991   4.183  14.089  2.4353 -0.8656 -0.8849
19585TIP3    H280171   2.041   4.046  14.130 -0.4575 -1.0136  2.7208
19586TIP3   OH280172   5.427   1.666  16.145 -0.0916 -0.0414 -0.1673
19586TIP3    H180173   5.514   1.642  16.178 -0.3258  0.7991  1.1179
19586TIP3    H280174   5.417   1.614  16.065  0.1989 -2.7553  1.4347
19587TIP3   OH280175   1.657   4.910  17.327  0.1848  0.0236  0.1402
19587TIP3    H180176   1.633   4.994  17.366  0.5539  1.1146 -1.8498
19587TIP3    H280177   1.638   4.846  17.396 -0.6860  1.6487  1.5092
19588TIP3   OH280178   2.973   5.186   5.094  0.4660 -0.8760  0.1709
19588TIP3    H180179   3.013   5.109   5.054  0.5956 -0.4973 -0.4498
19588TIP3    H280180   3.012   5.260   5.047 -0.2099 -0.4595  0.2457
19589TIP3   OH280181   0.591   5.270  17.173 -0.1361  0.1623 -0.7950
19589TIP3    H180182   0.631   5.332  17.113 -0.0728 -1.4010 -2.4608
19589TIP3    H280183   0.658   5.204  17.188 -0.7034 -0.3254 -0.3363
19590TIP3   OH280184   2.426   2.235   6.226 -0.6062  0.1293  0.3613
19590TIP3    H180185   2.376   2.155   6.239  0.4891 -0.7497 -0.6150
19590TIP3    H280186   2.477   2.219   6.146  1.9355  0.5820  1.7716
19591TIP3   OH280187   0.986   6.241  13.801 -0.0540  0.2665  0.1142
19591TIP3    H180188   0.901   6.216  13.838 -0.6539 -0.7166 -1.7584
19591TIP3    H280189   0.966   6.267  13.711  1.4771  1.3171  0.0377
19592TIP3   OH280190   4.589   1.362  13.478  0.4544  0.2580 -0.1919
19592TIP3    H180191   4.641   1.282  13.490  0.0703 -0.0865 -0.7590
19592TIP3    H280192   4.653   1.433  13.483  0.6470  0.0103  1.4522
19593TIP3   OH280193   5.206   5.960  16.994 -0.1844 -0.5987  0.0644
19593TIP3    H180194   5.243   5.984  16.909  0.3988 -2.2360 -0.1728
19593TIP3    H280195   5.176   6.043  17.031  1.0497  0.3705 -1.0208
19594TIP3   OH280196   2.439   4.036  12.120  0.0036  0.0946  0.0592
19594TIP3    H180197   2.530   4.006  12.131  0.0010  0.0753  0.0271
19594TIP3    H280198   2.395   4.007  12.200 -0.2984 -1.0750 -0.5093
19595TIP3   OH280199   4.683   0.862  11.756 -0.3839 -0.0424 -0.0549
19595TIP3    H180200   4.771   0.841  11.724 -0.1036  0.2678  0.4843
19595TIP3    H280201   4.625   0.838  11.685 -0.0016 -1.6613  0.1274
19596TIP3   OH280202   0.484   3.866   2.589  0.7222  0.2712  0.4353
19596TIP3    H180203   0.523   3.913   2.516 -3.3392 -0.3061 -2.4285
19596TIP3    H280204   0.480   3.930   2.660  0.6147  2.4050 -1.3987
19597TIP3   OH280205   3.797   2.093  15.224 -0.2660 -0.0219  0.3838
19597TIP3    H180206   3.768   2.033  15.293 -2.2392  1.4580  0.9277
19597TIP3    H280207   3.717   2.137  15.196  1.1095  2.4336  0.0870
19598TIP3   OH280208   6.349   6.169   4.270  0.0332 -0.1662  0.0460
19598TIP3    H180209   6.272   6.130   4.310  0.9626 -1.2521  0.8503
19598TIP3    H280210   6.363   6.119   4.190  0.7038 -0.9443  0.6253
19599TIP3   OH280211   0.404   5.830   3.775  0.4626 -0.2164 -0.4809
19599TIP3    H180212   0.480   5.826   3.717  0.1738  0.0390 -0.8784
19599TIP3    H280213   0.364   5.915   3.757 -1.0955 -1.1709 -1.7692
19600TIP3   OH280214   3.078   2.120   3.849 -0.4009  0.0174  0.4578
19600TIP3    H180215   2.996   2.111   3.801 -1.4878  3.2940  1.4850
19600TIP3    H280216   3.062   2.078   3.933 -0.9099  0.4002  0.5484
19601TIP3   OH280217   5.345   1.756   4.497  0.3913 -0.6185  0.5715
19601TIP3    H180218   5.370   1.709   4.418 -1.3435  0.6039 -0.7596
19601TIP3    H280219   5.410   1.826   4.506 -0.7261  0.6918 -1.1454
19602TIP3   OH280220   4.262   6.619   1.175 -0.5115 -0.3441 -0.0696
19602TIP3    H180221   4.281   6.652   1.087  1.3208 -0.8059  0.1269
19602TIP3    H280222   4.191   6.555   1.162 -0.4411 -0.2173 -1.1569
19603TIP3   OH280223   5.080   0.257  17.116 -0.1818  0.3663  0.9115
19603TIP3    H180224   5.171   0.227  17.123  0.0581  1.2806  2.2645
19603TIP3    H280225   5.080   0.343  17.160 -1.8681 -0.0112  1.7285
19604TIP3   OH280226   1.149   5.046  12.958 -0.2407 -0.4618 -0.2385
19604TIP3    H180227   1.078   4.984  12.941 -0.5973 -0.8167  2.2651
19604TIP3    H280228   1.109   5.132  12.947 -0.7094 -0.6654 -0.1326
19605TIP3   OH280229   1.964   1.477   0.696  0.1573  0.7244 -0.0851
19605TIP3    H180230   1.916   1.399   0.669  0.9687 -0.0170  0.5877
19605TIP3    H280231   2.012   1.504   0.617 -0.5827  0.8996 -0.4834
19606TIP3   OH280232   2.255   5.523  15.612  0.3309  0.2949  0.0227
19606TIP3    H180233   2.251   5.617  15.628  2.5656  0.2207  1.4110
19606TIP3    H280234   2.260   5.516  15.516 -0.5520  1.5214 -0.1387
19607TIP3   OH280235   2.556   6.652  12.368 -0.3478 -0.2875  0.0810
19607TIP3    H180236   2.528   6.734  12.328  0.1576 -0.2629 -0.2297
19607TIP3    H280237   2.516   6.584  12.313  1.7466 -0.2869 -1.5871
19608TIP3   OH280238   1.530   0.704  14.069  0.0643  0.0771  0.0547
19608TIP3    H180239   1.556   0.627  14.121  0.2049 -0.7658 -1.2032
19608TIP3    H280240   1.590   0.773  14.098  0.3473 -0.4530  0.7800
19609TIP3   OH280241   4.578   0.221  13.862 -0.1065  0.2346 -0.0569
19609TIP3    H180242   4.488   0.244  13.882 -0.0087  1.0395 -0.4950
19609TIP3    H280243   4.573   0.169  13.782 -0.2621 -0.6421  0.5091
19610TIP3   OH280244   3.300   5.343  13.479  0.2241  0.4034 -0.1373
19610TIP3    H180245   3.224   5.306  13.434 -0.6888  1.2947  0.6225
19610TIP3    H280246   3.273   5.432  13.502  2.1371  1.3880 -1.3984
19611TIP3   OH280247   5.635   3.629   6.216 -0.2435 -0.6777 -0.1086
19611TIP3    H180248   5.708   3.584   6.260 -0.4329  0.6691  1.6909
19611TIP3    H280249   5.591   3.559   6.168  2.8692 -1.3571 -2.3011
19612TIP3   OH280250   6.503   2.172   0.594 -0.0134  0.4831  0.5753
19612TIP3    H180251   6.443   2.102   0.617 -1.7040  1.7122  0.1019
19612TIP3    H280252   6.508   2.227   0.673  1.4825 -0.2575  1.0245
19613TIP3   OH280253   4.371   2.824  12.914 -0.6904 -0.0722 -0.2278
19613TIP3    H180254   4.462   2.799  12.895  0.6768  2.4725  2.2171
19613TIP3    H280255   4.323   2.741  12.913  2.0612 -1.8345  0.5460
19614TIP3   OH280256   4.636   3.559  11.984  0.1258  0.1887  0.1241
19614TIP3    H180257   4.549   3.564  11.946  1.3288 -0.1944 -2.9740
19614TIP3    H280258   4.664   3.469  11.968  1.0366  0.2588  1.1992
19615TIP3   OH280259   5.366   0.563  11.394  0.1480 -0.3509 -0.3453
19615TIP3    H180260   5.409   0.640  11.357 -1.4552  0.1457 -1.2691
19615TIP3    H280261   5.332   0.593  11.479  0.0125 -0.2080 -0.4501
19616TIP3   OH280262   6.088   2.738  12.606 -0.2158 -0.3154  0.2460
19616TIP3    H180263   6.110   2.665  12.664  0.8548  1.1486  1.7773
19616TIP3    H280264   5.998   2.761  12.629  0.1245  0.1093  1.1814
19617TIP3   OH280265   6.186   4.379  15.387 -0.2848  0.1888 -0.2486
19617TIP3    H180266   6.277   4.365  15.359  0.2244 -0.3450  1.5608
19617TIP3    H280267   6.176   4.475  15.388  1.1765  0.4027  2.1089
19618TIP3   OH280268   3.623   5.453   0.461  0.1500 -0.0309  0.9400
19618TIP3    H180269   3.658   5.463   0.550  3.0859 -0.4282 -0.0564
19618TIP3    H280270   3.605   5.360   0.452  1.6452 -0.3111  0.5737
19619TIP3   OH280271   2.109   4.719  13.968  0.3391 -0.1664  0.1244
19619TIP3    H180272   2.142   4.808  13.951 -1.6633  1.4955  3.7405
19619TIP3    H280273   2.145   4.697  14.054 -0.4573 -2.2602 -0.0319
19620TIP3   OH280274   5.335   5.100   0.828  0.0506  0.2412  0.0427
19620TIP3    H180275   5.276   5.091   0.753  0.7239  2.3489 -0.8122
19620TIP3    H280276   5.280   5.135   0.898 -0.3893 -0.9309  0.3144
19621TIP3   OH280277   0.700   1.199  12.192  0.8818 -0.3341 -0.3227
19621TIP3    H180278   0.684   1.217  12.099  0.0748 -1.1027 -0.3366
19621TIP3    H280279   0.726   1.284  12.228  1.5527 -0.0983 -1.3145
19622TIP3   OH280280   5.267   5.129  11.772 -0.4908  0.1956  0.1387
19622TIP3    H180281   5.271   5.036  11.795 -3.2192 -0.2343 -0.7589
19622TIP3    H280282   5.350   5.147  11.729  0.4256 -1.6093  1.0472
19623TIP3   OH280283   2.495   1.097   0.058  0.3099 -0.6026 -0.3410
19623TIP3    H180284   2.574   1.151   0.070 -0.1237 -0.1496  0.6840
19623TIP3    H280285   2.423   1.154   0.087 -0.1785 -1.6754  0.6669
19624TIP3   OH280286   2.113   2.839   6.462 -0.0347 -0.1284  0.3057
19624TIP3    H180287   2.158   2.795   6.390 -1.8456 -0.9764 -0.3602
19624TIP3    H280288   2.079   2.768   6.516 -1.5424  0.4411  0.1524
19625TIP3   OH280289   2.557   3.196   3.769 -0.6655  0.0043  0.3943
19625TIP3    H180290   2.480   3.145   3.746 -0.3834 -0.9852  1.5358
19625TIP3    H280291   2.543   3.281   3.727 -1.6629 -0.6407 -0.6405
19626TIP3   OH280292   1.781   5.268   6.038 -0.7571  0.0140  0.9680
19626TIP3    H180293   1.850   5.203   6.022 -0.6099  0.4273 -0.1674
19626TIP3    H280294   1.712   5.219   6.083 -1.1627 -1.2441 -0.9084
19627TIP3   OH280295   4.390   0.637   0.840  0.6943  0.3257  0.1592
19627TIP3    H180296   4.316   0.697   0.827  1.0110  0.2260 -2.8581
19627TIP3    H280297   4.377   0.601   0.927 -2.3569  0.9518  0.0618
19628TIP3   OH280298   4.417   1.858  16.094  0.4059  0.0953  0.2082
19628TIP3    H180299   4.418   1.901  16.180 -0.4999 -2.2828  1.5041
19628TIP3    H280300   4.329   1.875  16.060 -0.3759 -1.5700  1.2539
19629TIP3   OH280301   1.296   2.878  11.178 -0.1063  0.2760 -0.2344
19629TIP3    H180302   1.204   2.884  11.204 -0.1768 -2.1565  0.3291
19629TIP3    H280303   1.303   2.933  11.100 -1.9252  0.8343 -0.0393
19630TIP3   OH280304   3.792   4.784  14.661  0.4487  0.1681  0.2099
19630TIP3    H180305   3.838   4.700  14.668 -0.9942 -0.7719 -0.9920
19630TIP3    H280306   3.701   4.764  14.681  0.0437  1.4183 -0.2591
19631TIP3   OH280307   0.462   2.712  12.140 -0.1677  0.5829 -0.1669
19631TIP3    H180308   0.513   2.783  12.179 -3.1975  3.4259 -0.8510
19631TIP3    H280309   0.475   2.722  12.045 -1.9684  1.4908 -0.3660
19632TIP3   OH280310   6.119   0.684  14.104 -0.1946 -0.4607  0.1241
19632TIP3    H180311   6.109   0.760  14.161  0.4980 -0.3863  0.1509
19632TIP3    H280312   6.170   0.622  14.155  1.1245 -0.0840 -0.6841
19633TIP3   OH280313   2.294   1.542  14.173 -0.1973  0.4037 -0.4557
19633TIP3    H180314   2.201   1.520  14.181  0.1146 -0.5527  0.8571
19633TIP3    H280315   2.339   1.458  14.182  0.8149  0.8584 -1.0617
19634TIP3   OH280316   3.326   5.203  13.035  0.0769 -0.5092 -0.1146
19634TIP3    H180317   3.367   5.175  12.953 -0.1000  2.3584 -1.3032
19634TIP3    H280318   3.249   5.253  13.007 -0.1005  0.3692  1.8079
19635TIP3   OH280319   6.042   4.140   2.248  0.6128  1.0569 -0.2712
19635TIP3    H180320   6.076   4.201   2.313 -0.4921 -0.0959  1.4980
19635TIP3    H280321   5.978   4.191   2.198  2.1871  2.2255 -1.1704
19636TIP3   OH280322   3.700   1.083   4.426 -0.4154  0.1649 -0.4432
19636TIP3    H180323   3.716   1.158   4.484 -0.1714  0.6448 -1.1166
19636TIP3    H280324   3.605   1.082   4.414 -0.3837  0.6667 -0.8047
19637TIP3   OH280325   4.227   2.645  13.881 -0.3855 -0.0905 -0.0798
19637TIP3    H180326   4.136   2.674  13.880 -0.2337  0.4111 -1.2850
19637TIP3    H280327   4.222   2.550  13.867 -0.7448 -0.1904  0.6635
19638TIP3   OH280328   1.054   1.092   3.204  0.3171 -0.3574  0.3063
19638TIP3    H180329   1.135   1.094   3.255  0.2381 -1.9244  0.5293
19638TIP3    H280330   1.014   1.178   3.219  1.5503  0.1542  0.8096
19639TIP3   OH280331   5.524   4.190  14.416 -0.3521 -0.0652 -0.1695
19639TIP3    H180332   5.592   4.186  14.349 -0.3766 -0.2374 -0.1844
19639TIP3    H280333   5.498   4.282  14.418 -0.7466 -0.1578 -0.8020
19640TIP3   OH280334   0.320   2.229   1.540  0.3711 -0.3265  0.0781
19640TIP3    H180335   0.373   2.181   1.476  0.8747  0.0870  0.1805
19640TIP3    H280336   0.383   2.259   1.605 -0.0245 -0.0119  0.3160
19641TIP3   OH280337   2.312   5.581  11.982  0.5332  0.0990 -0.0490
19641TIP3    H180338   2.292   5.487  11.982  0.4325  0.0636  2.1206
19641TIP3    H280339   2.406   5.585  11.994  0.6064  0.2830 -0.6742
19642TIP3   OH280340   2.788   0.311   5.110 -0.1121 -0.2327 -0.2799
19642TIP3    H180341   2.721   0.288   5.174 -0.4387  1.5272  0.0665
19642TIP3    H280342   2.867   0.328   5.162 -0.6680  2.3075 -0.1439
19643TIP3   OH280343   5.781   5.642   5.014 -0.0114 -0.4427  0.5023
19643TIP3    H180344   5.697   5.682   5.034  0.5244  0.4270  1.0612
19643TIP3    H280345   5.815   5.692   4.940  0.2370 -0.4531  0.6052
19644TIP3   OH280346   5.001   2.179   4.419 -0.4383 -0.4971 -0.4313
19644TIP3    H180347   5.007   2.100   4.472 -0.8574 -0.1498  0.1354
19644TIP3    H280348   5.033   2.152   4.333  2.5033 -0.5062  0.5526
19645TIP3   OH280349   6.278   0.775  15.503 -0.2999  0.0620 -0.2587
19645TIP3    H180350   6.321   0.833  15.565  0.8851 -1.0417 -0.0100
19645TIP3    H280351   6.189   0.766  15.536 -0.4166  1.4675 -0.1416
19646TIP3   OH280352   5.800   1.218  13.414  0.0124  0.4634 -0.0140
19646TIP3    H180353   5.739   1.289  13.436 -0.3581  0.1768 -0.1066
19646TIP3    H280354   5.882   1.243  13.457 -0.3231  0.5805  0.5679
19647TIP3   OH280355   1.451   1.586   3.000 -0.2644 -0.5332  0.0655
19647TIP3    H180356   1.398   1.662   2.977 -0.9793 -1.4561 -1.5399
19647TIP3    H280357   1.390   1.512   2.998  0.8059 -1.4441 -0.5568
19648TIP3   OH280358   4.841   5.934   3.147 -0.3516 -0.1309 -0.0870
19648TIP3    H180359   4.882   5.849   3.134  0.0025 -0.1782  1.1841
19648TIP3    H280360   4.793   5.951   3.066  0.6888 -0.9071 -0.8835
19649TIP3   OH280361   6.299   2.920   5.189 -0.0087  0.1526  0.3226
19649TIP3    H180362   6.212   2.887   5.169 -0.1408 -1.1190  2.7308
19649TIP3    H280363   6.357   2.872   5.130 -0.8666  0.7625 -1.0596
19650TIP3   OH280364   1.434   5.470   6.271 -0.0427 -0.3246  0.6311
19650TIP3    H180365   1.339   5.456   6.268 -0.4368  0.9557  3.6843
19650TIP3    H280366   1.446   5.540   6.335  2.9283  0.4581 -0.6132
19651TIP3   OH280367   4.367   1.895  16.367 -0.1185  0.7773 -0.0944
19651TIP3    H180368   4.398   1.969  16.419 -2.1694  2.4415 -1.0585
19651TIP3    H280369   4.281   1.874  16.405  0.0793 -0.6147 -0.3550
19652TIP3   OH280370   1.552   0.079   5.295  0.0304  0.4754 -0.0922
19652TIP3    H180371   1.643   0.107   5.299 -0.3615  1.9126 -0.4253
19652TIP3    H280372   1.519   0.091   5.384  0.7135 -2.2554  0.6308
19653TIP3   OH280373   6.334   2.057  11.872  0.0161  0.7700 -0.3953
19653TIP3    H180374   6.361   1.979  11.920 -0.9087  1.0413  0.6008
19653TIP3    H280375   6.274   2.025  11.805 -1.5200  0.7334  0.9349
19654TIP3   OH280376   2.807   2.272  12.620  0.2033 -0.6085 -0.0704
19654TIP3    H180377   2.834   2.266  12.528 -0.2871 -1.4392 -0.1681
19654TIP3    H280378   2.734   2.211  12.628 -1.0383  0.8627  0.4161
19655TIP3   OH280379   0.121   6.150  11.497 -0.4530 -1.1604  0.0853
19655TIP3    H180380   0.113   6.192  11.583 -1.9622 -1.6303  0.2133
19655TIP3    H280381   0.063   6.202  11.440  0.0362 -1.2385 -0.4903
19656TIP3   OH280382   5.223   2.420  13.130 -0.2080 -0.1961 -0.1915
19656TIP3    H180383   5.300   2.468  13.100  0.2851  0.3312  1.7343
19656TIP3    H280384   5.245   2.328  13.115  0.9352 -0.0661  0.5457
19657TIP3   OH280385   6.162   4.110  14.530  0.2353  0.7151  0.9677
19657TIP3    H180386   6.250   4.120  14.493  0.7234  1.1833  2.2075
19657TIP3    H280387   6.106   4.100  14.454  1.7131 -2.9575  0.1467
19658TIP3   OH280388   4.802   3.573   3.495 -0.1946  0.0556  0.3275
19658TIP3    H180389   4.715   3.587   3.459  0.0866 -1.8652 -1.2613
19658TIP3    H280390   4.862   3.606   3.427  0.3344  0.3364  0.9184
19659TIP3   OH280391   5.532   6.651   0.969  0.5743  0.2042  0.1024
19659TIP3    H180392   5.572   6.697   0.895  3.3725 -1.3419  0.5159
19659TIP3    H280393   5.493   6.573   0.930  0.5474  0.2397  0.0580
19660TIP3   OH280394   1.657   2.066  11.788  0.1616 -0.0831 -0.2413
19660TIP3    H180395   1.668   1.982  11.832  3.4865  1.2996  1.9790
19660TIP3    H280396   1.590   2.112  11.839  1.6767  0.2761  1.5282
19661TIP3   OH280397   0.971   2.138   5.416 -0.4772 -0.9109 -0.1697
19661TIP3    H180398   1.000   2.121   5.506  2.8667  0.3467 -0.8680
19661TIP3    H280399   1.006   2.064   5.365 -2.3107 -1.5941 -0.5118
19662TIP3   OH280400   0.683   0.710  11.664  0.2068  0.1395 -0.3952
19662TIP3    H180401   0.695   0.750  11.578 -1.3374 -0.0510 -0.7253
19662TIP3    H280402   0.601   0.660  11.656  0.7346 -0.9670  0.7858
19663TIP3   OH280403   1.557   6.066   1.466  0.6316 -0.1145  0.0697
19663TIP3    H180404   1.524   6.154   1.449 -0.5574 -0.2411  1.5547
19663TIP3    H280405   1.639   6.061   1.416  1.5464  2.3853  1.1782
19664TIP3   OH280406   1.842   0.823  11.985  0.5767  0.3328  0.4372
19664TIP3    H180407   1.885   0.819  12.071  1.4933  0.0894 -0.0211
19664TIP3    H280408   1.759   0.867  12.002  0.1493 -0.8900  1.6866
19665TIP3   OH280409   0.515   0.993   4.767 -0.2562 -0.4953  0.4074
19665TIP3    H180410   0.421   1.000   4.748 -0.5895  0.5803  2.1515
19665TIP3    H280411   0.558   1.032   4.691 -1.2914 -0.0064  0.0480
19666TIP3   OH280412   6.333   0.533  10.879 -0.7176 -0.0482  0.4119
19666TIP3    H180413   6.240   0.552  10.879 -0.7366 -0.1009 -0.4324
19666TIP3    H280414   6.375   0.618  10.866 -0.7055 -0.2119 -0.6653
19667TIP3   OH280415   3.289   4.018   4.748  0.1553  0.2494  0.1259
19667TIP3    H180416   3.360   4.051   4.804  0.4392 -0.5147  0.2349
19667TIP3    H280417   3.229   3.974   4.809 -0.4709  0.9729  0.0439
19668TIP3   OH280418   4.132   0.410  11.108  0.5925 -0.1223  0.5073
19668TIP3    H180419   4.153   0.365  11.190  3.1236 -0.9886 -0.5041
19668TIP3    H280420   4.107   0.339  11.048 -0.6068  0.4383  0.3118
19669TIP3   OH280421   3.589   3.704  15.221 -0.2136 -0.1004 -0.1928
19669TIP3    H180422   3.596   3.613  15.192  0.5707 -0.2848  0.5164
19669TIP3    H280423   3.571   3.698  15.315  1.2696  0.4459  0.1570
19670TIP3   OH280424   2.240   3.653   4.392  0.2105 -0.6377 -0.6619
19670TIP3    H180425   2.319   3.654   4.446 -0.1110 -0.4667 -0.1847
19670TIP3    H280426   2.235   3.741   4.355  0.1086 -0.5724 -0.4925
19671TIP3   OH280427   1.478   5.973   4.924  0.1796 -0.1268 -0.5158
19671TIP3    H180428   1.535   6.030   4.975 -1.8175  1.9742 -0.4494
19671TIP3    H280429   1.524   5.961   4.841  2.3434 -1.5847  0.7895
19672TIP3   OH280430   0.632   0.186   3.598  0.3979 -0.0643  0.0048
19672TIP3    H180431   0.549   0.233   3.602 -1.5701 -3.2068 -0.6005
19672TIP3    H280432   0.669   0.210   3.513 -0.2941  0.7309 -0.0853
19673TIP3   OH280433   2.572   1.427   5.082 -0.6752 -0.4256 -0.4821
19673TIP3    H180434   2.596   1.428   4.989  0.7136 -0.2778 -0.1403
19673TIP3    H280435   2.480   1.455   5.083 -0.1978  1.3734 -1.6606
19674TIP3   OH280436   3.251   0.740   3.659  0.0732 -0.1228  0.2667
19674TIP3    H180437   3.278   0.831   3.669  0.4474 -0.1580 -0.3842
19674TIP3    H280438   3.286   0.714   3.575 -1.7318 -0.2656 -0.4946
19675TIP3   OH280439   3.512   0.022  17.044 -0.2014  0.0214  0.3450
19675TIP3    H180440   3.452   0.080  17.090 -0.7766 -2.5296  3.1510
19675TIP3    H280441   3.598   0.039  17.083  0.1604  0.7190 -0.6900
19676TIP3   OH280442   5.341   0.649  13.840 -0.0149 -0.8639  0.2295
19676TIP3    H180443   5.327   0.606  13.924  0.5571 -1.6905 -0.0891
19676TIP3    H280444   5.352   0.577  13.778 -2.4361 -0.3509 -0.9452
19677TIP3   OH280445   0.428   0.172  12.338  0.3217  0.8916 -0.0854
19677TIP3    H180446   0.476   0.132  12.265  0.4519 -1.4896  1.2021
19677TIP3    H280447   0.454   0.264  12.336  3.0071  0.2099 -0.9697
19678TIP3   OH280448   4.238   5.739   0.316  0.0162  0.5921  0.1099
19678TIP3    H180449   4.287   5.765   0.238 -2.7264  2.0322 -1.3052
19678TIP3    H280450   4.174   5.809   0.328 -2.4219 -1.6389  1.1194
19679TIP3   OH280451   0.616   1.742  16.459  0.6329 -0.7289  0.6624
19679TIP3    H180452   0.673   1.682  16.505  2.1651 -0.3710 -0.6806
19679TIP3    H280453   0.658   1.827  16.467  0.6585 -0.5623 -0.8830
19680TIP3   OH280454   3.745   6.637  14.113  0.8237  0.1209  0.1066
19680TIP3    H180455   3.725   6.644  14.020  0.9524 -1.6733 -0.0923
19680TIP3    H280456   3.816   6.573  14.118  0.1121 -0.6248  1.4792
19681TIP3   OH280457   0.088   1.130  11.861  0.2013  0.8075  0.3030
19681TIP3    H180458   0.144   1.129  11.939  0.6060  0.8932  0.0156
19681TIP3    H280459   0.149   1.128  11.788 -0.1913  0.2450 -0.0142
19682TIP3   OH280460   1.756   0.787   1.249  0.4105  0.1501  0.3147
19682TIP3    H180461   1.682   0.728   1.265  0.3321  0.8225  2.9695
19682TIP3    H280462   1.736   0.830   1.166 -1.4332 -0.7503  0.2516
19683TIP3   OH280463   5.929   1.767  11.434  0.3822 -0.0379 -0.4328
19683TIP3    H180464   6.023   1.784  11.425  0.7672 -0.1083  2.4577
19683TIP3    H280465   5.891   1.852  11.457  0.0519 -0.3522  0.2094
19684TIP3   OH280466   2.020   1.651   4.004 -0.4426 -0.0596  0.0506
19684TIP3    H180467   2.040   1.558   3.997  2.5857  0.3347  1.6546
19684TIP3    H280468   1.977   1.673   3.922 -0.6110 -2.7108 -0.6523
19685TIP3   OH280469   0.351   0.288   0.077  0.8911  0.1649 -0.1147
19685TIP3    H180470   0.290   0.318   0.145  1.5769  0.8540  0.2116
19685TIP3    H280471   0.297   0.237   0.017  0.4417 -1.2768  1.4579
19686TIP3   OH280472   6.313   0.964   3.321 -0.1574 -0.1540 -0.6567
19686TIP3    H180473   6.381   0.969   3.254  0.0575 -0.8426 -0.4953
19686TIP3    H280474   6.358   0.982   3.403 -0.1155 -0.8430 -0.5216
19687TIP3   OH280475   4.197   0.841  17.303  0.7134  0.2142  0.0107
19687TIP3    H180476   4.218   0.748  17.305  0.5364  0.0521 -2.3617
19687TIP3    H280477   4.110   0.847  17.343  1.2942 -0.4242  1.4066
19688TIP3   OH280478   1.494   3.156  15.835  0.0503  0.5282  0.4261
19688TIP3    H180479   1.531   3.068  15.844 -0.3361  0.1484 -1.3702
19688TIP3    H280480   1.528   3.204  15.911  1.0122 -0.9008  0.9388
19689TIP3   OH280481   1.283   0.193  14.921 -0.3756  0.6110 -0.2475
19689TIP3    H180482   1.320   0.151  14.999 -0.0621  2.1682  0.4977
19689TIP3    H280483   1.237   0.123  14.875 -1.6612 -0.1569  1.9972
19690TIP3   OH280484   2.778   1.582   1.779  0.1484 -0.6545  0.0618
19690TIP3    H180485   2.792   1.488   1.785  0.4773 -0.5848  0.4171
19690TIP3    H280486   2.809   1.605   1.692  0.0588 -0.8746 -0.0293
19691TIP3   OH280487   1.158   1.305  13.133  0.4077 -0.6955 -0.6395
19691TIP3    H180488   1.232   1.258  13.172  1.3177  0.5187 -0.8604
19691TIP3    H280489   1.098   1.317  13.206  0.9431 -0.6845 -0.1882
19692TIP3   OH280490   6.245   2.479  17.112 -0.3416 -0.7956  0.2046
19692TIP3    H180491   6.179   2.543  17.083  2.0014  2.5591  1.7361
19692TIP3    H280492   6.327   2.512  17.077  1.3827 -1.3579  3.3884
19693TIP3   OH280493   5.042   1.357  13.479  0.2657 -0.5583 -0.0590
19693TIP3    H180494   5.032   1.328  13.570  2.3000 -0.8915  0.1210
19693TIP3    H280495   5.135   1.379  13.472  0.0735 -0.2175 -1.9793
19694TIP3   OH280496   1.434   5.775   4.085 -0.0811  0.2295 -0.2472
19694TIP3    H180497   1.344   5.744   4.088  0.5136 -1.5485  0.6689
19694TIP3    H280498   1.475   5.724   4.015  0.9047 -1.1167  1.2398
19695TIP3   OH280499   5.641   5.888  13.183 -0.0095  0.4978 -0.2059
19695TIP3    H180500   5.630   5.856  13.273  0.6708  0.5757 -0.0850
19695TIP3    H280501   5.677   5.814  13.135 -0.7828  0.3227 -0.5226
19696TIP3   OH280502   4.845   2.823  14.333  0.0815 -0.0476 -0.2195
19696TIP3    H180503   4.931   2.832  14.375  0.2000 -0.7278 -0.3054
19696TIP3    H280504   4.864   2.818  14.240  0.1758 -2.5626 -0.1232
19697TIP3   OH280505   3.545   1.613   1.428 -0.1205 -0.1115 -0.2703
19697TIP3    H180506   3.526   1.520   1.415 -0.3115 -0.1036 -0.0470
19697TIP3    H280507   3.485   1.658   1.368 -0.7096 -0.0929  0.3252
19698TIP3   OH280508   5.473   4.593  12.422 -0.1243 -0.7592  0.7184
19698TIP3    H180509   5.456   4.681  12.388 -1.9906 -0.1402  2.9736
19698TIP3    H280510   5.528   4.607  12.499 -0.0539 -1.6200  0.8296
19699TIP3   OH280511   2.668   4.175   1.970  0.3405 -0.1352  0.5877
19699TIP3    H180512   2.628   4.100   2.014  0.4044 -1.2993 -1.2288
19699TIP3    H280513   2.604   4.201   1.903  1.1714  0.1272 -0.1277
19700TIP3   OH280514   1.013   3.094  16.473 -0.3381  0.0854 -0.2525
19700TIP3    H180515   1.004   3.187  16.495 -1.1665 -0.2611  0.9352
19700TIP3    H280516   0.973   3.048  16.546  2.0972 -1.3018  0.2846
19701TIP3   OH280517   5.483   2.478  14.748  0.0121 -0.2596  0.2709
19701TIP3    H180518   5.467   2.386  14.725  1.7525 -0.2380 -1.2985
19701TIP3    H280519   5.531   2.513  14.673 -2.4000  2.5486 -0.1325
19702TIP3   OH280520   5.233   0.814  11.432 -0.1263 -0.2220  0.2526
19702TIP3    H180521   5.190   0.730  11.449 -1.9321  0.5299 -0.3458
19702TIP3    H280522   5.194   0.844  11.350 -1.2970  2.3143  1.6455
19703TIP3   OH280523   5.215   3.763  14.013  0.2151  0.3990 -0.0164
19703TIP3    H180524   5.152   3.708  13.966  0.9127 -0.9743  0.5709
19703TIP3    H280525   5.285   3.778  13.950 -0.1537  0.9642 -0.3020
19704TIP3   OH280526   2.947   4.005  12.875  0.0429 -0.0430 -0.1113
19704TIP3    H180527   2.853   3.998  12.887  0.3181  0.1016  2.8486
19704TIP3    H280528   2.960   3.998  12.780 -3.1332  2.7714 -0.9447
19705TIP3   OH280529   3.992   0.433   4.248  0.1586 -0.1571 -0.5662
19705TIP3    H180530   3.923   0.378   4.212 -0.9010  0.9746 -0.3292
19705TIP3    H280531   3.996   0.508   4.189 -0.9875  1.2885  1.0960
19706TIP3   OH280532   3.271   2.694   1.772  0.0400  0.5712 -0.4076
19706TIP3    H180533   3.189   2.696   1.723 -0.7633 -1.3846  0.7182
19706TIP3    H280534   3.337   2.673   1.706 -0.4589  1.3658 -1.1939
19707TIP3   OH280535   4.447   2.379  13.256 -0.3553  0.4105 -0.2839
19707TIP3    H180536   4.354   2.394  13.272 -0.3007 -0.7443  1.2779
19707TIP3    H280537   4.467   2.297  13.301  1.0369 -0.3332 -2.0936
19708TIP3   OH280538   2.350   1.707   2.640 -0.5440  0.2426 -0.1762
19708TIP3    H180539   2.412   1.694   2.712 -0.1218  0.9067 -0.4122
19708TIP3    H280540   2.404   1.716   2.562 -0.9070  1.0863 -0.3487
19709TIP3   OH280541   3.624   4.228  13.117  0.2725 -0.1426 -0.0879
19709TIP3    H180542   3.600   4.249  13.207 -0.2869  2.0584 -0.6811
19709TIP3    H280543   3.540   4.223  13.071  0.5832 -0.7090 -0.6076
19710TIP3   OH280544   1.304   1.566   0.648 -0.0853 -0.1874 -0.0261
19710TIP3    H180545   1.306   1.493   0.586 -0.4973  1.2443 -1.8106
19710TIP3    H280546   1.236   1.542   0.711 -1.0487 -0.8197 -1.2575
19711TIP3   OH280547   2.997   4.348   5.396  0.5347  0.3957 -0.5466
19711TIP3    H180548   2.988   4.404   5.473  0.3335  0.1460 -0.3889
19711TIP3    H280549   3.055   4.397   5.338  0.6776  0.5912 -0.2424
19712TIP3   OH280550   1.679   3.138  10.950  0.2201  0.1935  0.0382
19712TIP3    H180551   1.658   3.194  10.875 -0.1379  0.7363  0.5385
19712TIP3    H280552   1.594   3.110  10.984  0.2261  2.1156  1.8546
19713TIP3   OH280553   1.331   1.742  13.427 -0.0662 -0.8844 -0.0151
19713TIP3    H180554   1.261   1.801  13.452 -0.3809 -1.5232  0.6518
19713TIP3    H280555   1.304   1.656  13.460  0.7589 -1.2496 -0.2417
19714TIP3   OH280556   6.392   6.263   4.754  0.3733  0.8992  0.7841
19714TIP3    H180557   6.411   6.357   4.765 -0.0176  1.3324 -1.6956
19714TIP3    H280558   6.307   6.261   4.711  1.3272 -0.4645 -1.2062
19715TIP3   OH280559   4.299   5.070  13.444 -0.1341 -0.1768  0.3647
19715TIP3    H180560   4.235   5.106  13.382 -0.3177  0.7727  1.0817
19715TIP3    H280561   4.330   4.990  13.403 -0.9434 -0.0471 -0.5259
19716TIP3   OH280562   4.731   6.496  12.860 -0.0787 -0.1840 -0.4913
19716TIP3    H180563   4.790   6.567  12.836 -1.4508  1.0742 -0.2643
19716TIP3    H280564   4.760   6.468  12.947  0.8370 -0.3329 -0.8351
19717TIP3   OH280565   2.383   2.708   1.619 -0.6996 -0.0002  0.2492
19717TIP3    H180566   2.426   2.652   1.684 -0.7102  0.1159  0.3581
19717TIP3    H280567   2.398   2.664   1.535  1.2168  0.9416  0.0387
19718TIP3   OH280568   2.879   1.832  12.029  0.2951  0.5780  0.3610
19718TIP3    H180569   2.902   1.761  11.969  0.4506  1.6345 -0.8885
19718TIP3    H280570   2.784   1.825  12.038 -0.1519  1.9389 -2.1756
19719TIP3   OH280571   1.493   2.792   6.612  0.0862  0.3270 -0.5639
19719TIP3    H180572   1.530   2.739   6.541 -0.0137 -0.3503 -0.1274
19719TIP3    H280573   1.557   2.784   6.683 -0.6587 -0.4755  0.0357
19720TIP3   OH280574   1.275   2.137   2.616 -0.3205 -0.2491  0.6180
19720TIP3    H180575   1.294   2.146   2.709  0.5680 -0.8187  0.5029
19720TIP3    H280576   1.316   2.214   2.576  1.4782 -1.2677  0.4196
19721TIP3   OH280577   3.455   4.217   5.136  0.1683  0.1321  0.7182
19721TIP3    H180578   3.471   4.290   5.077 -0.1282  0.9561  1.6316
19721TIP3    H280579   3.398   4.158   5.087  1.6184 -0.2505 -0.5871
19722TIP3   OH280580   1.907   0.185  12.282 -0.2457 -0.1609 -0.1978
19722TIP3    H180581   1.932   0.178  12.375  1.2113 -2.3806 -0.6866
19722TIP3    H280582   1.981   0.148  12.235 -1.0342  0.7921 -2.2800
19723TIP3   OH280583   4.475   5.677  14.982 -0.1105 -0.5432 -0.2377
19723TIP3    H180584   4.531   5.600  14.982 -0.6667 -0.9606 -0.7951
19723TIP3    H280585   4.394   5.648  14.940 -0.3215  0.3472 -0.4817
19724TIP3   OH280586   5.574   0.380  13.275  0.4500  0.0012  0.7430
19724TIP3    H180587   5.652   0.369  13.329  0.0681  3.5963  2.3520
19724TIP3    H280588   5.564   0.297  13.229  4.3510 -1.1100  1.5621
19725TIP3   OH280589   0.468   5.890  12.825  0.3194  0.1795  0.4875
19725TIP3    H180590   0.440   5.831  12.895  1.0376  0.5444  1.0973
19725TIP3    H280591   0.397   5.953  12.817 -1.9949 -2.4831 -2.3345
19726TIP3   OH280592   3.757   6.512   6.398  0.0398  0.6630 -0.0226
19726TIP3    H180593   3.755   6.601   6.363  0.6902  0.5672 -0.3042
19726TIP3    H280594   3.673   6.475   6.371  0.6971  0.4429 -1.9097
19727TIP3   OH280595   0.955   6.318  13.509  0.0341 -0.2326  0.3785
19727TIP3    H180596   0.867   6.332  13.474  0.3199 -0.6143 -0.5449
19727TIP3    H280597   1.002   6.399  13.489  0.1819 -0.4296 -0.0821
19728TIP3   OH280598   0.666   6.101   2.734 -0.4200  0.6415 -0.6752
19728TIP3    H180599   0.608   6.145   2.796 -0.9442 -0.5041 -0.3485
19728TIP3    H280600   0.754   6.129   2.760 -0.6473  0.3674  0.4341
19729TIP3   OH280601   1.505   2.312   5.939  0.2918  0.4748  0.3863
19729TIP3    H180602   1.518   2.325   5.844 -0.2015 -1.4796  0.0240
19729TIP3    H280603   1.413   2.290   5.948  0.8166 -1.6589  1.0116
19730TIP3   OH280604   4.340   5.498   5.885  0.2179 -0.1010 -0.1558
19730TIP3    H180605   4.262   5.554   5.890 -0.7149 -1.4088  0.4120
19730TIP3    H280606   4.333   5.454   5.801 -1.3635 -2.5388  1.1368
19731TIP3   OH280607   1.990   1.187  11.527  0.3237  0.0866 -0.1605
19731TIP3    H180608   1.982   1.123  11.457 -2.0639  0.8244 -0.6832
19731TIP3    H280609   1.959   1.140  11.605  1.0689 -0.1484 -0.0027
19732TIP3   OH280610   5.541   3.523  12.217  0.2817  0.1100  0.5072
19732TIP3    H180611   5.621   3.491  12.176 -0.0852 -0.8240  0.4973
19732TIP3    H280612   5.481   3.449  12.214 -0.7180  0.9073  0.1763
19733TIP3   OH280613   0.122   6.478  16.920 -0.0295  0.1976  0.1993
19733TIP3    H180614   0.117   6.398  16.972  0.7627 -1.1873 -1.7305
19733TIP3    H280615   0.082   6.545  16.975 -0.8100 -1.5296  1.8510
19734TIP3   OH280616   2.927   4.650  10.772 -0.6006  0.3954  0.0281
19734TIP3    H180617   3.014   4.683  10.751 -0.4522 -0.8543 -1.4845
19734TIP3    H280618   2.877   4.661  10.691 -0.9831 -1.5542 -0.0556
19735TIP3   OH280619   4.961   1.448   5.692 -0.0307 -0.0580  0.5574
19735TIP3    H180620   5.037   1.395   5.715 -0.4714 -1.8803 -1.7972
19735TIP3    H280621   4.997   1.526   5.650  0.5609  0.7603  2.4578
19736TIP3   OH280622   2.604   2.143  14.023  0.5150  0.5382  0.7179
19736TIP3    H180623   2.670   2.180  13.964  0.4984  0.2607  0.5184
19736TIP3    H280624   2.598   2.205  14.096  0.5876  0.8503  0.4615
19737TIP3   OH280625   4.849   0.732   0.080 -0.6173 -0.1599 -0.2146
19737TIP3    H180626   4.791   0.665   0.044 -1.1195  0.5520 -0.7562
19737TIP3    H280627   4.916   0.682   0.127 -0.7328 -1.0553 -0.9621
19738TIP3   OH280628   2.706   0.429  16.546 -0.3742  0.2385 -0.3507
19738TIP3    H180629   2.735   0.473  16.466 -1.4726 -0.3248 -1.0825
19738TIP3    H280630   2.748   0.343  16.543  1.0717  0.8685  0.6395
19739TIP3   OH280631   3.828   4.085   0.754  0.2541 -0.3354 -0.8351
19739TIP3    H180632   3.891   4.015   0.736  0.7195 -0.6028  1.6034
19739TIP3    H280633   3.780   4.056   0.831  0.3416  1.9551  0.1595
19740TIP3   OH280634   2.926   0.994   6.033 -0.4461 -0.2328 -0.1108
19740TIP3    H180635   2.840   1.023   6.062 -0.7269 -0.2178 -0.9460
19740TIP3    H280636   2.916   0.899   6.022 -0.5547 -0.1351 -0.8744
19741TIP3   OH280637   4.653   5.473   0.017 -0.1726  0.2951  0.5685
19741TIP3    H180638   4.630   5.386   0.049 -0.0627  0.5753  1.4331
19741TIP3    H280639   4.606   5.534   0.074  0.2247  0.8173  0.3544
19742TIP3   OH280640   5.672   5.306   2.754  0.5387 -0.2421  0.1798
19742TIP3    H180641   5.740   5.370   2.731 -0.6331  1.7128  1.7909
19742TIP3    H280642   5.605   5.317   2.687  0.6710 -0.3535  0.0266
19743TIP3   OH280643   2.744   5.063   0.590 -0.8508 -0.3699 -0.3920
19743TIP3    H180644   2.778   5.039   0.677 -0.7956  0.6273 -0.1280
19743TIP3    H280645   2.799   5.136   0.562 -1.8167  0.2841 -0.6115
19744TIP3   OH280646   5.484   2.867   3.044 -0.2719 -0.2941 -0.1844
19744TIP3    H180647   5.578   2.847   3.054  0.0453  1.0258 -0.4065
19744TIP3    H280648   5.482   2.957   3.012 -1.6004 -0.5878 -1.0025
19745TIP3   OH280649   0.412   1.326   5.842 -0.3926  0.1452  0.5727
19745TIP3    H180650   0.472   1.256   5.817 -1.8920 -1.6438  1.7050
19745TIP3    H280651   0.459   1.375   5.910  0.8592  0.5863 -0.5638
19746TIP3   OH280652   3.344   0.471  14.165 -0.4090  0.2411 -0.0554
19746TIP3    H180653   3.337   0.567  14.168 -1.7501  0.1242  1.7404
19746TIP3    H280654   3.421   0.450  14.217  0.6645  0.3806 -1.5393
19747TIP3   OH280655   4.510   5.478   0.405  0.7947  0.7891 -0.0003
19747TIP3    H180656   4.519   5.546   0.338  2.6853 -2.0392 -2.9194
19747TIP3    H280657   4.582   5.493   0.465  1.1918  1.3885 -0.6154
19748TIP3   OH280658   6.204   5.928   0.161  0.0517  0.3766 -0.2579
19748TIP3    H180659   6.152   5.891   0.089  0.9366 -0.2912 -0.5681
19748TIP3    H280660   6.231   6.015   0.129  2.2769 -0.7595 -1.6953
19749TIP3   OH280661   4.713   1.016   2.911 -0.3949  0.3373 -0.3007
19749TIP3    H180662   4.709   0.981   3.000 -2.4091 -0.3380 -0.6259
19749TIP3    H280663   4.787   1.077   2.914 -0.4901  0.4438  1.8638
19750TIP3   OH280664   1.194   2.230  12.360  0.3753  0.7928 -0.6009
19750TIP3    H180665   1.112   2.202  12.319 -0.3309  1.3576  0.3840
19750TIP3    H280666   1.167   2.292  12.427  1.3947 -0.7291  1.3256
19751TIP3   OH280667   5.823   0.699   4.970  0.4391  0.2246  0.1995
19751TIP3    H180668   5.845   0.606   4.971 -0.2228  0.0617  1.3590
19751TIP3    H280669   5.908   0.743   4.981  0.9036 -0.1785 -1.5518
19752TIP3   OH280670   4.010   1.128  17.216  0.9162 -0.4220  0.2594
19752TIP3    H180671   4.088   1.126  17.272  1.0661 -2.2440  0.0292
19752TIP3    H280672   4.014   1.047  17.165 -1.1519 -0.6146  0.2936
19753TIP3   OH280673   2.942   4.849  12.769 -0.0905  0.2138 -0.0823
19753TIP3    H180674   2.956   4.757  12.749  1.0900  0.3080  0.2542
19753TIP3    H280675   2.864   4.873  12.719 -1.3211 -1.3379  0.9972
19754TIP3   OH280676   1.353   6.487  14.217 -0.2613  0.4594 -0.1342
19754TIP3    H180677   1.299   6.533  14.153 -1.9262  0.0136  0.8944
19754TIP3    H280678   1.333   6.529  14.301  1.5808  0.7733  0.2102
19755TIP3   OH280679   3.451   0.184  13.187  0.6084  0.0968 -0.0641
19755TIP3    H180680   3.394   0.258  13.210  2.3159  1.4177  0.1454
19755TIP3    H280681   3.394   0.123  13.141 -1.5631  0.1398  2.3819
19756TIP3   OH280682   5.989   2.368   2.282 -0.5436  0.1640 -0.0730
19756TIP3    H180683   5.980   2.328   2.196 -1.0862 -0.7089  0.3736
19756TIP3    H280684   6.068   2.421   2.276 -2.7812  3.7506 -2.4998
19757TIP3   OH280685   4.374   4.995   1.212  0.4907 -0.3959 -0.5477
19757TIP3    H180686   4.285   5.000   1.247  0.2500  1.3336 -1.2994
19757TIP3    H280687   4.375   4.914   1.161 -0.3635 -0.8850  0.1742
19758TIP3   OH280688   6.591   3.665   1.297 -0.4875 -0.2432 -0.5699
19758TIP3    H180689   6.682   3.693   1.305 -0.7753  0.7621 -0.6683
19758TIP3    H280690   6.576   3.609   1.374 -0.3165  1.1342  0.5073
19759TIP3   OH280691   1.002   2.045  14.475  0.1761  0.0777 -0.1290
19759TIP3    H180692   1.049   2.088  14.404  0.4612  0.4076  0.2521
19759TIP3    H280693   1.038   1.957  14.478  1.6222  0.6614  0.8996
19760TIP3   OH280694   2.995   0.122  12.224 -0.6223 -0.4636  0.4194
19760TIP3    H180695   2.903   0.107  12.203 -0.8631  1.1509  0.1428
19760TIP3    H280696   2.994   0.196  12.285  0.4825 -0.4107  0.4043
19761TIP3   OH280697   6.250   5.871   5.781 -0.6155  0.1377 -0.0638
19761TIP3    H180698   6.218   5.947   5.732  0.7625  0.4319 -0.5412
19761TIP3    H280699   6.170   5.827   5.810 -1.4524  1.5947 -0.0249
19762TIP3   OH280700   4.249   0.284  14.415  0.0038 -0.0080  0.3929
19762TIP3    H180701   4.219   0.329  14.494  0.1005  0.3945  0.2048
19762TIP3    H280702   4.177   0.295  14.353  1.1412  2.3765 -0.6098
19763TIP3   OH280703   6.365   5.102  14.594 -0.5941 -0.7182  0.3623
19763TIP3    H180704   6.297   5.066  14.537 -0.9200 -0.2001  0.4135
19763TIP3    H280705   6.437   5.039  14.589 -0.6513 -0.7181 -0.5483
19764TIP3   OH280706   5.884   5.286  10.166 -0.0522 -0.3072 -0.0832
19764TIP3    H180707   5.922   5.373  10.178  1.7232 -1.1889  1.3550
19764TIP3    H280708   5.868   5.255  10.256 -0.1967 -1.6362 -0.5470
19765TIP3   OH280709   4.371   5.089  16.008  0.0829  0.0476 -0.3663
19765TIP3    H180710   4.436   5.159  16.020  0.4168 -0.1700 -0.8477
19765TIP3    H280711   4.406   5.015  16.057  0.5816 -0.3025 -1.2332
19766TIP3   OH280712   0.826   2.186  17.239  0.6654  0.3805 -0.4624
19766TIP3    H180713   0.893   2.155  17.300  0.3915  0.9799  0.1504
19766TIP3    H280714   0.862   2.268  17.203  0.3461  0.5955 -0.2875
19767TIP3   OH280715   1.044   2.994  12.432  0.3523 -0.1251  0.0619
19767TIP3    H180716   0.991   3.073  12.442  0.0073 -0.1612 -1.3790
19767TIP3    H280717   1.106   3.014  12.363 -0.0763 -1.2808 -0.6909
19768TIP3   OH280718   5.392   4.212  16.289 -0.0871  0.5233  0.5532
19768TIP3    H180719   5.409   4.282  16.352 -0.9780  1.4773 -0.2285
19768TIP3    H280720   5.477   4.192  16.251 -0.1620  3.5358 -1.5801
19769TIP3   OH280721   2.245   1.523  16.524 -0.1037 -0.5569  0.1871
19769TIP3    H180722   2.259   1.572  16.443  0.5385 -1.3080 -0.1630
19769TIP3    H280723   2.161   1.479  16.511  0.1229 -0.8809 -0.1713
19770TIP3   OH280724   1.658   5.979   2.629  0.1801 -0.4916 -0.5122
19770TIP3    H180725   1.609   6.060   2.644  1.5816  0.0768  1.2069
19770TIP3    H280726   1.748   6.007   2.612  1.1895 -1.6970  2.2886
19771TIP3   OH280727   2.230   2.285   6.642  0.3221 -0.2835  0.5573
19771TIP3    H180728   2.158   2.244   6.594  1.1700 -1.0440 -0.0876
19771TIP3    H280729   2.308   2.238   6.613  0.8899 -0.6384  2.5142
19772TIP3   OH280730   4.505   1.885   0.423  0.3242  0.3250  0.2848
19772TIP3    H180731   4.488   1.870   0.330 -0.9565  0.7754  0.4222
19772TIP3    H280732   4.465   1.811   0.468  1.0381  0.0493  0.4845
19773TIP3   OH280733   5.735   5.401  12.137  0.2697 -0.7334 -0.1101
19773TIP3    H180734   5.746   5.431  12.228  2.3119 -2.0716  0.1532
19773TIP3    H280735   5.640   5.392  12.126 -0.0287 -0.4136  1.8534
19774TIP3   OH280736   3.968   0.417  12.831  0.3417 -0.4814  0.4191
19774TIP3    H180737   3.900   0.359  12.864  0.9070 -1.0827  0.5439
19774TIP3    H280738   4.045   0.397  12.884  0.7117 -0.0567  0.0515
19775TIP3   OH280739   6.146   1.549   2.708  0.0122  0.5038  0.4596
19775TIP3    H180740   6.151   1.638   2.673 -0.5801 -0.1624 -1.4999
19775TIP3    H280741   6.212   1.500   2.659 -2.3030 -0.9445 -1.4702
19776TIP3   OH280742   0.335   5.485  13.626  0.4134 -0.1916  0.3884
19776TIP3    H180743   0.272   5.455  13.560 -1.6306  1.9899  1.1917
19776TIP3    H280744   0.413   5.508  13.576  0.0379 -1.4545 -0.8534
19777TIP3   OH280745   6.410   1.347  16.960  0.3464 -0.0108 -0.2130
19777TIP3    H180746   6.496   1.310  16.939  0.5379 -1.0513  2.0950
19777TIP3    H280747   6.348   1.275  16.946 -0.1005  0.5775 -1.3533
19778TIP3   OH280748   5.358   2.621   1.962  0.2826 -0.5119 -0.7275
19778TIP3    H180749   5.402   2.702   1.988 -0.2270 -0.3370 -0.3941
19778TIP3    H280750   5.321   2.640   1.876 -0.6412 -0.0736 -0.2400
19779TIP3   OH280751   2.124   3.347   0.726 -0.1622 -0.3300  0.2221
19779TIP3    H180752   2.071   3.416   0.686 -2.0873  0.4815  3.7568
19779TIP3    H280753   2.094   3.267   0.683 -2.3512  0.4228  0.2058
19780TIP3   OH280754   5.195   0.520   1.262 -0.0577  0.2250 -0.1541
19780TIP3    H180755   5.117   0.466   1.270 -0.3869  0.4556 -1.6078
19780TIP3    H280756   5.262   0.462   1.226 -0.1286  0.5191 -0.7743
19781TIP3   OH280757   2.482   6.745  17.365 -0.5485  0.6424 -0.1264
19781TIP3    H180758   2.462   6.795  17.445  0.4558  2.3740 -0.9132
19781TIP3    H280759   2.553   6.687  17.390 -2.1078 -0.9285  0.9590
19782TIP3   OH280760   3.231   3.186  17.204 -0.5199  0.6692  0.0971
19782TIP3    H180761   3.145   3.148  17.222  0.4173 -1.7661 -0.2407
19782TIP3    H280762   3.232   3.199  17.109 -0.1486 -0.3992 -0.0662
19783TIP3   OH280763   3.687   5.769  13.997 -0.4673 -0.4216 -0.6392
19783TIP3    H180764   3.649   5.831  14.059 -0.5048 -0.2989 -0.7830
19783TIP3    H280765   3.678   5.683  14.039  0.1290 -0.2619 -0.1819
19784TIP3   OH280766   1.720   2.205   3.773  0.3113 -0.0717 -0.4467
19784TIP3    H180767   1.799   2.159   3.742 -0.1011 -0.8423 -0.3845
19784TIP3    H280768   1.688   2.251   3.695  0.9578  0.4605 -0.4109
19785TIP3   OH280769   0.584   0.396   2.734  0.2376 -0.1748  0.2106
19785TIP3    H180770   0.537   0.315   2.752  0.7736 -0.5156  0.1099
19785TIP3    H280771   0.667   0.367   2.694  0.5250  0.4047  0.3769
19786TIP3   OH280772   2.199   4.916  16.091  0.4352 -0.4554  0.4417
19786TIP3    H180773   2.145   4.853  16.138  0.8088 -1.5243 -0.5261
19786TIP3    H280774   2.262   4.863  16.042 -0.4953  0.5317 -1.9737
19787TIP3   OH280775   1.378   2.156   5.083  0.2386 -0.4395 -0.2886
19787TIP3    H180776   1.421   2.144   4.998  0.5183  1.5681 -0.4867
19787TIP3    H280777   1.450   2.180   5.143  0.1919 -2.7096  0.7861
19788TIP3   OH280778   1.720   2.685   5.662  0.1864 -0.0649 -0.0851
19788TIP3    H180779   1.635   2.641   5.655  0.6480 -0.7475 -2.1795
19788TIP3    H280780   1.742   2.681   5.755 -1.1601 -1.6464  0.2152
19789TIP3   OH280781   6.391   4.420  16.854 -0.1560  0.2819  0.1451
19789TIP3    H180782   6.388   4.499  16.800 -1.8237 -0.1614 -0.4770
19789TIP3    H280783   6.302   4.385  16.850  0.4897 -1.5220  0.5844
19790TIP3   OH280784   4.817   2.783  14.991 -0.3428  0.0154  1.0026
19790TIP3    H180785   4.912   2.775  14.992 -0.3900 -0.6138  2.0938
19790TIP3    H280786   4.797   2.837  15.068 -0.7412  2.1892 -0.5180
19791TIP3   OH280787   2.872   3.914   2.363  0.1344  0.0211 -0.0218
19791TIP3    H180788   2.801   3.976   2.346  0.0055 -0.1375 -0.0589
19791TIP3    H280789   2.941   3.967   2.403 -0.0308  0.1603  0.0757
19792TIP3   OH280790   5.040   4.702  15.881  0.3413  0.4982 -0.2306
19792TIP3    H180791   5.131   4.721  15.860  0.3886  1.2662  0.5755
19792TIP3    H280792   5.041   4.677  15.973 -0.2229  0.2041 -0.2957
19793TIP3   OH280793   2.676   3.109   5.453  0.7466  0.1170 -0.1606
19793TIP3    H180794   2.649   3.144   5.538  1.1360 -1.4220  0.6329
19793TIP3    H280795   2.595   3.075   5.414  0.6635  0.3120 -0.1602
19794TIP3   OH280796   0.902   4.954  15.994 -0.5384 -0.3857  0.5276
19794TIP3    H180797   0.995   4.944  15.972 -1.0444 -1.1786 -1.5231
19794TIP3    H280798   0.900   4.956  16.090  1.5570 -0.6170  0.6315
19795TIP3   OH280799   4.831   5.794   1.010  0.0233  0.5886 -0.1880
19795TIP3    H180800   4.788   5.760   1.088  0.0871  1.3769  0.1964
19795TIP3    H280801   4.919   5.756   1.012 -0.7489 -1.3984 -1.2150
19796TIP3   OH280802   3.166   6.206  16.817  0.7519  0.8530 -0.1362
19796TIP3    H180803   3.171   6.159  16.734 -0.0814  0.5871 -0.0471
19796TIP3    H280804   3.257   6.213  16.846  1.0905  1.2202 -1.2181
19797TIP3   OH280805   5.887   2.619   2.178 -0.2320  0.3308 -0.5983
19797TIP3    H180806   5.917   2.537   2.219  0.1962  0.3454 -0.8675
19797TIP3    H280807   5.801   2.634   2.215 -0.3151 -0.2457 -0.5387
19798TIP3   OH280808   0.273   3.789   2.977 -0.3786  0.0002  0.1791
19798TIP3    H180809   0.310   3.811   3.063  0.8918  0.6373 -0.5048
19798TIP3    H280810   0.274   3.693   2.975 -0.4091 -0.0171  0.8701
19799TIP3   OH280811   2.346   5.617   1.205 -0.1575  0.1385  0.2915
19799TIP3    H180812   2.292   5.623   1.283  1.6709  2.0014  1.4977
19799TIP3    H280813   2.294   5.659   1.136 -1.0290  0.1088  0.9189
19800TIP3   OH280814   5.303   2.222  12.166  0.7046  0.2418  0.0880
19800TIP3    H180815   5.228   2.164  12.157  2.2226 -1.7631 -0.2992
19800TIP3    H280816   5.328   2.216  12.258  1.4770 -0.5853 -0.1560
19801TIP3   OH280817   1.206   3.937  15.549  0.4884 -0.2567 -0.3055
19801TIP3    H180818   1.154   3.950  15.629 -1.1093 -1.2104 -1.1348
19801TIP3    H280819   1.166   3.995  15.485  0.5602 -0.8540 -0.9020
19802TIP3   OH280820   4.082   4.695  13.325  0.1252  0.0402  0.1984
19802TIP3    H180821   4.095   4.713  13.231 -1.4539 -0.3669 -0.1205
19802TIP3    H280822   4.171   4.681  13.358  0.9602  2.4373 -0.7330
19803TIP3   OH280823   3.590   2.189   5.273  0.6117 -0.3955  0.7515
19803TIP3    H180824   3.666   2.221   5.322 -0.0859 -0.8540  2.1686
19803TIP3    H280825   3.553   2.268   5.232  1.9721 -0.2007 -0.1801
19804TIP3   OH280826   0.406   0.773   0.343 -0.1705 -0.5024 -0.4112
19804TIP3    H180827   0.467   0.769   0.417  0.7283  2.1282 -0.8726
19804TIP3    H280828   0.463   0.778   0.266 -1.0576 -1.0766 -1.1132
19805TIP3   OH280829   4.922   3.451  14.781  0.0593 -0.7644 -0.4537
19805TIP3    H180830   4.926   3.538  14.741 -0.6635 -0.0175  1.0171
19805TIP3    H280831   5.005   3.410  14.757  0.3593  0.2761 -1.2861
19806TIP3   OH280832   5.823   3.641  12.126 -0.4442 -0.2466  0.6917
19806TIP3    H180833   5.886   3.576  12.157 -0.5367 -0.8398 -0.3097
19806TIP3    H280834   5.819   3.706  12.196  0.1025 -1.0071  1.4530
19807TIP3   OH280835   1.402   3.005   6.488  0.1089 -0.3497  0.6216
19807TIP3    H180836   1.431   2.939   6.551  0.4370 -0.0265  0.8152
19807TIP3    H280837   1.474   3.068   6.485 -0.8113  0.8008  1.5702
19808TIP3   OH280838   6.122   0.390  13.974 -0.1490  0.0695 -0.3522
19808TIP3    H180839   6.167   0.305  13.967  0.8581  0.6277 -0.7859
19808TIP3    H280840   6.187   0.449  14.010 -0.4613  0.9481 -1.1899
19809TIP3   OH280841   0.457   0.197   1.213 -0.0405  0.1522 -0.6090
19809TIP3    H180842   0.473   0.109   1.248  1.8356  0.2130 -1.2211
19809TIP3    H280843   0.487   0.256   1.282 -2.4572  0.4046  0.3377
19810TIP3   OH280844   6.515   5.623   1.553  0.2153 -0.1117  0.3995
19810TIP3    H180845   6.575   5.686   1.514 -0.6480  2.0648  2.3636
19810TIP3    H280846   6.449   5.607   1.485  1.8736 -1.0616 -1.0830
19811TIP3   OH280847   2.583   0.281  13.037  0.3562 -0.2460  0.6381
19811TIP3    H180848   2.516   0.220  13.006 -0.5591  0.6995  0.7061
19811TIP3    H280849   2.647   0.284  12.966 -0.6950  0.3472 -0.3167
19812TIP3   OH280850   2.059   6.472  15.179 -0.2027 -0.6133  0.1555
19812TIP3    H180851   2.145   6.433  15.197 -0.0122  0.1806  1.0776
19812TIP3    H280852   2.046   6.533  15.252 -0.8545  0.4099 -0.7988
19813TIP3   OH280853   3.108   1.269  15.559  0.5056 -0.8704 -0.5087
19813TIP3    H180854   3.150   1.216  15.627 -0.4388 -0.9677  0.0060
19813TIP3    H280855   3.019   1.283  15.590  0.9124  1.6421 -0.2719
19814TIP3   OH280856   2.105   6.466  16.628  0.2088 -0.1535  0.1127
19814TIP3    H180857   2.080   6.497  16.541 -0.2999  0.5958  0.5176
19814TIP3    H280858   2.046   6.512  16.688 -0.2457 -1.5577  0.7761
19815TIP3   OH280859   1.466   6.741  16.214  0.1089  0.4064  0.3346
19815TIP3    H180860   1.448   6.649  16.198  0.8081  0.2529  0.4184
19815TIP3    H280861   1.542   6.741  16.272 -1.3429  0.9726  2.3465
19816TIP3   OH280862   5.016   3.499   2.226 -0.6810  0.1035  0.1987
19816TIP3    H180863   5.022   3.472   2.318 -0.1134  0.1167  0.1675
19816TIP3    H280864   4.980   3.588   2.230 -0.5603  0.1437  0.4150
19817TIP3   OH280865   3.285   1.163   0.917  0.1830 -0.0179 -0.0804
19817TIP3    H180866   3.191   1.149   0.907  0.5805 -2.0888 -1.6421
19817TIP3    H280867   3.300   1.161   1.012 -1.1634 -1.3487  0.1372
19818TIP3   OH280868   4.060   3.826   1.585 -0.0928 -0.0302 -0.1232
19818TIP3    H180869   4.155   3.816   1.585  0.0257  0.2310  2.6990
19818TIP3    H280870   4.027   3.746   1.627 -1.0893  0.0451 -0.7291
19819TIP3   OH280871   0.797   6.443   4.261  0.8977  0.4056 -0.2255
19819TIP3    H180872   0.821   6.372   4.321  0.2005  0.8230  0.5809
19819TIP3    H280873   0.704   6.426   4.242  0.8368  0.8704 -0.3407
19820TIP3   OH280874   3.419   5.195  10.816 -0.1329  0.1993  0.1645
19820TIP3    H180875   3.336   5.152  10.840  0.3591 -0.3242  0.9809
19820TIP3    H280876   3.481   5.123  10.807  0.5231  0.6821  0.7678
19821TIP3   OH280877   6.300   1.798  12.921 -0.1145 -0.1574  0.4391
19821TIP3    H180878   6.280   1.890  12.900 -1.4516 -0.6472 -0.5918
19821TIP3    H280879   6.317   1.757  12.837  0.7448 -0.8228  0.9182
19822TIP3   OH280880   0.354   0.695   2.425 -0.5444  0.4436 -0.0374
19822TIP3    H180881   0.429   0.678   2.482 -1.5323  0.0949  1.2044
19822TIP3    H280882   0.390   0.748   2.354  1.1108 -0.6497 -0.0860
19823TIP3   OH280883   5.834   1.348  12.704 -0.3825 -0.1978 -0.5346
19823TIP3    H180884   5.829   1.253  12.715  0.7863 -0.0702  1.3486
19823TIP3    H280885   5.897   1.377  12.769 -0.7978  1.9065 -1.0040
19824TIP3   OH280886   6.458   1.246  12.066  1.2466 -0.3705  0.8489
19824TIP3    H180887   6.416   1.238  12.152 -0.1655 -0.7156  0.1453
19824TIP3    H280888   6.454   1.158  12.029 -1.5220  0.4548 -1.0788
19825TIP3   OH280889   0.448   2.541  15.986  0.7597 -0.9421 -0.2781
19825TIP3    H180890   0.519   2.605  15.998  0.7111 -0.6224 -1.5714
19825TIP3    H280891   0.419   2.554  15.896 -2.5429  0.5308  0.8635
19826TIP3   OH280892   1.813   5.090  14.232  0.2898 -0.5045 -0.0990
19826TIP3    H180893   1.759   5.146  14.176  1.7187 -0.4178 -1.4528
19826TIP3    H280894   1.827   5.142  14.311  0.2596  0.4024 -0.6697
19827TIP3   OH280895   4.434   2.200   0.315 -0.8411 -0.0612 -0.0398
19827TIP3    H180896   4.409   2.280   0.359  1.2360 -0.2371  1.5863
19827TIP3    H280897   4.390   2.130   0.364  1.3079 -0.2404  1.8315
19828TIP3   OH280898   0.792   5.757   1.285 -0.1944 -0.3544  0.0315
19828TIP3    H180899   0.822   5.783   1.197 -0.4804 -0.2521 -0.0364
19828TIP3    H280900   0.859   5.792   1.344  0.9622 -1.9772 -0.2661
19829TIP3   OH280901   3.102   1.184  11.294 -0.1593 -0.3011  0.6737
19829TIP3    H180902   3.043   1.182  11.219 -0.2634  1.5517  0.6798
19829TIP3    H280903   3.105   1.093  11.324  0.2473 -1.1911 -1.8270
19830TIP3   OH280904   0.230   6.186   5.722  0.6019 -0.5081 -0.3097
19830TIP3    H180905   0.241   6.115   5.785  0.5616 -1.2776 -1.1429
19830TIP3    H280906   0.135   6.197   5.714  0.6046 -0.4977 -0.3271
19831TIP3   OH280907   6.681   5.452  11.564  0.3479  0.2664 -0.0442
19831TIP3    H180908   6.592   5.486  11.561  0.3243  0.2152  0.0769
19831TIP3    H280909   6.700   5.443  11.658  0.9578  1.5402 -0.0149
19832TIP3   OH280910   2.860   6.056   1.218  0.1064 -0.5552  0.3293
19832TIP3    H180911   2.834   5.985   1.159 -1.1157  0.1334  0.0024
19832TIP3    H280912   2.950   6.077   1.193  0.7905 -2.5086  0.9741
19833TIP3   OH280913   1.621   0.666  16.227  0.6356  0.7434  0.0269
19833TIP3    H180914   1.615   0.648  16.320  0.6181  1.4608  0.1740
19833TIP3    H280915   1.579   0.591  16.185  0.8430  0.3110  0.5848
19834TIP3   OH280916   1.540   5.922  16.654 -0.0606 -0.3876 -0.2074
19834TIP3    H180917   1.612   5.970  16.695  0.7373 -0.8477 -1.0281
19834TIP3    H280918   1.514   5.976  16.580  1.2725 -1.4510 -1.5248
19835TIP3   OH280919   1.821   5.989  12.954  0.0728 -0.3955  0.0020
19835TIP3    H180920   1.749   6.041  12.917 -0.8062 -0.5098  1.4655
19835TIP3    H280921   1.900   6.030  12.918 -0.6515  0.9907 -0.1111
19836TIP3   OH280922   2.358   2.270   3.204  0.0778 -1.3403  0.1197
19836TIP3    H180923   2.343   2.176   3.213 -1.6815 -1.0146  0.9732
19836TIP3    H280924   2.339   2.289   3.112 -0.7793 -1.6323  0.2300
19837TIP3   OH280925   0.941   4.644   2.943 -0.6840  0.0013  0.1286
19837TIP3    H180926   0.991   4.632   3.024  1.3591  1.5435 -0.8311
19837TIP3    H280927   0.889   4.723   2.958 -2.3427 -1.1631  0.8321
19838TIP3   OH280928   6.618   2.220  13.542 -0.0935  0.1742 -0.3638
19838TIP3    H180929   6.628   2.309  13.575 -0.7587 -0.0546  0.4895
19838TIP3    H280930   6.676   2.167  13.597 -1.8060 -0.3304  1.0449
19839TIP3   OH280931   5.719   3.265   1.960  0.3851  0.2683 -0.3062
19839TIP3    H180932   5.634   3.308   1.971 -0.8714 -1.4588 -2.5270
19839TIP3    H280933   5.778   3.337   1.938 -0.9132  1.3039 -0.5847
19840TIP3   OH280934   4.272   1.829   5.516 -0.1508  0.8110  0.0584
19840TIP3    H180935   4.296   1.890   5.585  1.4806  2.0423 -1.4993
19840TIP3    H280936   4.353   1.812   5.469 -0.8759 -1.3153 -0.5676
19841TIP3   OH280937   3.526   2.108  13.506  0.6091 -0.0683 -0.6189
19841TIP3    H180938   3.488   2.196  13.512 -1.1484 -0.7448 -0.9802
19841TIP3    H280939   3.594   2.106  13.573  0.0832  1.2857 -0.0047
19842TIP3   OH280940   5.542   0.753   4.282  0.4542  0.6760 -0.0340
19842TIP3    H180941   5.515   0.789   4.198  0.1852  2.1486  0.6447
19842TIP3    H280942   5.461   0.752   4.334  0.9106  1.2252  0.6962
19843TIP3   OH280943   3.547   2.079   0.685 -0.0933 -0.0076  0.5756
19843TIP3    H180944   3.580   2.118   0.604 -1.0404  0.0509  0.2140
19843TIP3    H280945   3.560   2.146   0.752 -0.2615  0.3300  0.2680
19844TIP3   OH280946   1.873   3.547   0.274  0.7482 -0.5974  0.2677
19844TIP3    H180947   1.937   3.482   0.304  0.3545 -1.2547 -0.2983
19844TIP3    H280948   1.850   3.519   0.186 -0.8111 -0.7454  0.7059
19845TIP3   OH280949   6.729   0.497  11.207 -0.4657  0.1142  0.1261
19845TIP3    H180950   6.659   0.472  11.147  0.1086 -1.1539 -0.0533
19845TIP3    H280951   6.796   0.537  11.152 -0.6671  0.5147  0.1710
19846TIP3   OH280952   5.691   5.580  16.618 -0.6535  0.0363 -0.0280
19846TIP3    H180953   5.710   5.548  16.530  0.9243 -0.8745  0.5979
19846TIP3    H280954   5.623   5.521  16.651 -0.0608 -0.6596 -0.0434
19847TIP3   OH280955   3.515   4.566   1.708  0.3931  0.2207 -0.5849
19847TIP3    H180956   3.506   4.532   1.797 -1.3718  1.0146 -0.4083
19847TIP3    H280957   3.591   4.521   1.672 -0.5738 -2.2964  0.3444
19848TIP3   OH280958   1.414   2.677   1.721 -0.5787  0.0555  0.7411
19848TIP3    H180959   1.346   2.734   1.756 -0.4569 -0.6359  2.1751
19848TIP3    H280960   1.476   2.667   1.793  0.4094 -0.3342 -0.1278
19849TIP3   OH280961   2.016   4.054   5.951  0.0918 -0.0906  0.1225
19849TIP3    H180962   2.061   4.084   5.872  0.3011 -1.1315 -0.1632
19849TIP3    H280963   2.040   4.118   6.017  0.3802  0.4754 -0.5170
19850TIP3   OH280964   3.503   6.712  12.280 -0.0735 -0.4461  0.5849
19850TIP3    H180965   3.431   6.735  12.338 -0.9009 -1.5992  0.0628
19850TIP3    H280966   3.510   6.785  12.219 -0.3644 -0.0296  1.0538
19851TIP3   OH280967   4.240   5.620  12.583 -0.2891 -0.6116  0.1632
19851TIP3    H180968   4.169   5.655  12.530 -0.4415 -0.8833  0.1854
19851TIP3    H280969   4.316   5.621  12.525  0.0762  1.1354  0.6095
19852TIP3   OH280970   1.849   1.816   1.582  0.2167  0.1081  0.1110
19852TIP3    H180971   1.771   1.839   1.532  0.6512 -0.4592 -0.8559
19852TIP3    H280972   1.845   1.721   1.591 -0.3805  0.2753  2.0686
19853TIP3   OH280973   1.192   2.497   3.759  0.4765 -0.5188 -0.3221
19853TIP3    H180974   1.160   2.489   3.669  2.4047 -0.4558 -1.0554
19853TIP3    H280975   1.123   2.457   3.813 -0.9738 -0.0286 -1.7536
19854TIP3   OH280976   4.998   3.383   5.044  0.4001 -0.3104  0.4466
19854TIP3    H180977   5.016   3.299   5.085  2.9415 -2.2811 -3.9418
19854TIP3    H280978   4.909   3.375   5.010  0.6475 -1.3433  0.0103
19855TIP3   OH280979   1.864   5.560   2.906  0.3445 -0.5408  0.2755
19855TIP3    H180980   1.884   5.481   2.856  1.7006  0.1566 -0.3397
19855TIP3    H280981   1.860   5.629   2.840 -0.7269 -0.0723  0.8141
19856TIP3   OH280982   1.607   2.102   2.189 -0.2017 -0.2287  0.6617
19856TIP3    H180983   1.595   2.008   2.198  1.9968 -0.4891  1.6573
19856TIP3    H280984   1.633   2.131   2.276 -0.1641  1.1862  0.2023
19857TIP3   OH280985   6.445   3.120  12.875 -0.0648 -0.1463 -0.7145
19857TIP3    H180986   6.397   3.194  12.837  0.7062 -0.4644 -2.3874
19857TIP3    H280987   6.378   3.053  12.888 -0.4937  0.2715 -0.7265
19858TIP3   OH280988   5.218   2.449   0.943 -0.2382 -0.0651 -0.3720
19858TIP3    H180989   5.256   2.407   0.866 -2.3403  0.1035 -1.6025
19858TIP3    H280990   5.135   2.402   0.957 -0.7292  1.0609  0.6915
19859TIP3   OH280991   5.955   5.010   5.441  0.4593 -0.0745 -0.4697
19859TIP3    H180992   5.990   5.062   5.368  0.0545  0.6192 -0.1859
19859TIP3    H280993   6.018   5.025   5.512  0.3925 -0.0563 -0.4153
19860TIP3   OH280994   3.200   0.777   6.143  0.2555  0.0033 -0.4905
19860TIP3    H180995   3.219   0.869   6.161 -0.1687 -0.2639  1.7217
19860TIP3    H280996   3.110   0.765   6.174 -0.0322 -0.9516 -1.6168
19861TIP3   OH280997   6.190   5.918  11.854  0.2432  0.0106  0.6719
19861TIP3    H180998   6.115   5.886  11.904 -0.0484  1.3536  1.1375
19861TIP3    H280999   6.165   6.007  11.829  0.5537 -0.4860 -1.5461
19862TIP3   OH281000   5.601   1.560   3.133 -0.0545  0.2439  0.1916
19862TIP3    H181001   5.574   1.582   3.223 -0.4554 -3.0355  1.0149
19862TIP3    H281002   5.684   1.515   3.144 -1.0009 -1.8811 -0.8113
19863TIP3   OH281003   6.540   4.721  16.244  0.3391  0.5869 -0.2214
19863TIP3    H181004   6.542   4.629  16.272  0.8826  0.5147 -0.4743
19863TIP3    H281005   6.465   4.759  16.289  0.4599  0.1615  0.3400
19864TIP3   OH281006   4.153   5.189  10.456  0.2496 -0.4066  0.0131
19864TIP3    H181007   4.197   5.274  10.462 -1.5528  0.4518  2.3094
19864TIP3    H281008   4.156   5.155  10.545  1.1602 -2.9554 -0.9122
19865TIP3   OH281009   5.262   2.145  13.469  0.0611 -0.3235 -0.7469
19865TIP3    H181010   5.350   2.118  13.495 -0.0621  0.0112  0.0195
19865TIP3    H281011   5.277   2.212  13.402  0.3856 -0.2581 -0.6112
19866TIP3   OH281012   6.169   5.950   6.333 -0.1122  0.4929 -0.1097
19866TIP3    H181013   6.107   6.015   6.301 -0.6581  0.4826  0.8888
19866TIP3    H281014   6.247   6.000   6.358 -0.6215  0.7924  0.8818
19867TIP3   OH281015   1.369   2.064  10.393  0.0069 -0.1133 -0.5342
19867TIP3    H181016   1.446   2.096  10.347  0.0625  0.3084 -0.1528
19867TIP3    H281017   1.307   2.138  10.392  0.3392  0.2104  0.8113
19868TIP3   OH281018   5.811   5.290  13.386 -0.2272  0.4434 -0.1281
19868TIP3    H181019   5.748   5.329  13.447 -1.6562 -1.7163 -0.1036
19868TIP3    H281020   5.896   5.302  13.428 -0.9530  0.8020  1.3081
19869TIP3   OH281021   5.176   2.558  12.210 -0.6267  0.1057 -0.3265
19869TIP3    H181022   5.116   2.483  12.214  0.2713 -0.5775  0.6366
19869TIP3    H281023   5.127   2.625  12.162 -2.4497 -0.1717  1.0597
19870TIP3   OH281024   6.610   1.507   0.496  0.8212 -0.5260  0.5449
19870TIP3    H181025   6.537   1.556   0.533  1.0685  1.0717 -0.9507
19870TIP3    H281026   6.679   1.513   0.562  0.3705 -0.0896  0.9842
19871TIP3   OH281027   0.526   3.491  13.527  0.0598 -0.4382 -0.8711
19871TIP3    H181028   0.587   3.473  13.598 -1.0367 -0.6956  0.0413
19871TIP3    H281029   0.452   3.535  13.569 -0.5334 -0.4290 -1.8795
19872TIP3   OH281030   0.152   0.942   4.217  0.3410 -0.3469  0.0657
19872TIP3    H181031   0.079   0.926   4.277  0.3529  0.2896  0.2567
19872TIP3    H281032   0.110   0.970   4.135  0.3568 -0.3221  0.0660
19873TIP3   OH281033   1.566   5.033  14.904  0.9103 -0.0104  0.0838
19873TIP3    H181034   1.594   5.076  14.823  1.4613  0.4379  0.5036
19873TIP3    H281035   1.492   5.086  14.935  0.2249 -0.6011 -0.4895
19874TIP3   OH281036   3.940   2.387   4.870 -0.2125 -0.7494 -0.1553
19874TIP3    H181037   3.987   2.389   4.953 -0.4443 -0.8969 -0.0199
19874TIP3    H281038   4.003   2.354   4.807 -0.4229 -1.8691  0.2103
19875TIP3   OH281039   3.813   4.554  13.979  0.3504 -0.7534  0.4670
19875TIP3    H181040   3.804   4.582  13.887  1.0178  3.1907  1.4040
19875TIP3    H281041   3.881   4.486  13.977  1.0892 -0.0361 -1.8682
19876TIP3   OH281042   1.482   2.920   2.368  0.0717  0.1871 -0.3421
19876TIP3    H181043   1.547   2.928   2.299  0.3792  0.0373 -0.0722
19876TIP3    H281044   1.499   2.993   2.427 -0.2304  0.3513 -0.4544
19877TIP3   OH281045   2.095   3.776   5.958 -0.4055 -0.2658 -0.3728
19877TIP3    H181046   2.016   3.725   5.973  0.3475 -1.0974  1.0450
19877TIP3    H281047   2.076   3.862   5.993 -0.0965 -1.0053  1.7904
19878TIP3   OH281048   0.743   6.643  15.500  0.2376 -0.1934 -0.0962
19878TIP3    H181049   0.680   6.586  15.544  1.0805 -1.4344 -0.4547
19878TIP3    H281050   0.704   6.660  15.414 -0.3003  0.2965  0.2337
19879TIP3   OH281051   6.616   5.658   3.201 -0.3813 -0.2983  0.1043
19879TIP3    H181052   6.656   5.744   3.212  0.9870 -0.9292  0.3231
19879TIP3    H281053   6.569   5.643   3.283 -2.2806  1.0188 -0.6770
19880TIP3   OH281054   1.143   6.623  10.982  0.1993 -0.5814 -0.2291
19880TIP3    H181055   1.134   6.685  10.909 -0.7658 -1.2641 -0.7149
19880TIP3    H281056   1.158   6.539  10.939  0.7121 -0.8215  0.4069
19881TIP3   OH281057   2.851   4.541  13.026 -0.0047 -0.0090  0.5203
19881TIP3    H181058   2.936   4.585  13.035 -0.5083  0.6905  2.3448
19881TIP3    H281059   2.822   4.527  13.116 -1.7548 -0.3785 -0.0642
19882TIP3   OH281060   0.046   6.451   5.600 -0.2659  0.0081  0.5431
19882TIP3    H181061   0.080   6.407   5.522  1.0718 -0.8906  1.5772
19882TIP3    H281062  -0.016   6.388   5.638  0.0760 -0.1243  0.8934
19883TIP3   OH281063   6.733   2.791  16.139 -0.0826  0.0209  0.8191
19883TIP3    H181064   6.752   2.713  16.192 -0.3251  0.7802  2.0497
19883TIP3    H281065   6.813   2.843  16.144 -0.1101  0.1003  0.4323
19884TIP3   OH281066   6.105   1.193  13.973  0.3438 -0.0947  0.4498
19884TIP3    H181067   6.024   1.238  13.996  0.2902  0.3188 -0.5105
19884TIP3    H281068   6.160   1.200  14.051  0.6224  2.2759  0.1025
19885TIP3   OH281069   5.700   3.174  15.290  0.4122  0.2088 -0.7491
19885TIP3    H181070   5.677   3.128  15.371  0.0123  0.9519 -0.4398
19885TIP3    H281071   5.774   3.124  15.255  0.1195 -0.5475 -0.3098
19886TIP3   OH281072   5.542   5.379  12.519  0.0507  0.4692  0.2718
19886TIP3    H181073   5.629   5.377  12.479  0.7796 -2.3071  1.7419
19886TIP3    H281074   5.503   5.461  12.489  1.0292 -0.6391 -4.8982
19887TIP3   OH281075   2.958   5.744  16.646  0.0326 -0.0299 -0.6327
19887TIP3    H181076   2.981   5.806  16.576  0.2855  0.4028 -0.1776
19887TIP3    H281077   2.974   5.658  16.608 -0.7039  0.1656 -1.4103
19888TIP3   OH281078   2.790   6.210  17.379 -0.4904  0.0565 -0.1059
19888TIP3    H181079   2.870   6.255  17.406  0.1477 -0.4257 -1.0825
19888TIP3    H281080   2.798   6.204  17.283 -1.5094 -0.3506 -0.1775
19889TIP3   OH281081   2.470   0.145   2.678 -0.0578  0.5069 -0.2909
19889TIP3    H181082   2.440   0.213   2.617 -0.6553  0.2272 -0.3155
19889TIP3    H281083   2.479   0.067   2.624 -1.1259  0.1178  0.0682
19890TIP3   OH281084   4.852   2.945  14.655 -0.1528  0.1953 -0.2211
19890TIP3    H181085   4.772   2.904  14.623 -0.7314  1.7451 -0.8566
19890TIP3    H281086   4.844   3.037  14.629  1.9328  0.3461 -0.4720
19891TIP3   OH281087   1.421   4.850  12.107  0.5493  0.3142 -0.1341
19891TIP3    H181088   1.380   4.925  12.064 -0.2992  0.1290  0.3159
19891TIP3    H281089   1.436   4.787  12.037 -0.8724 -0.0052 -0.1987
19892TIP3   OH281090   0.576   6.685   4.331 -0.6261 -0.9260 -0.1374
19892TIP3    H181091   0.553   6.592   4.342 -1.6264 -0.5822  0.9591
19892TIP3    H281092   0.638   6.702   4.401  0.2907 -0.9778 -0.9201
19893TIP3   OH281093   6.704   2.948   2.359 -0.4421  0.8386  0.5260
19893TIP3    H181094   6.716   3.029   2.310 -2.6834  1.2229  0.4811
19893TIP3    H281095   6.666   2.977   2.442  1.2494  0.0165  1.6388
19894TIP3   OH281096   3.538   5.152   4.970 -0.2827  0.0446 -0.1014
19894TIP3    H181097   3.609   5.206   5.004 -0.8781  1.7951 -1.4543
19894TIP3    H281098   3.518   5.191   4.884 -2.2531 -0.9571 -0.1551
19895TIP3   OH281099   1.303   1.868  16.540 -0.2856 -0.0696  0.2203
19895TIP3    H181100   1.298   1.863  16.635 -2.3839 -0.8636  0.1083
19895TIP3    H281101   1.396   1.856  16.520 -0.0079 -1.3679  2.0829
19896TIP3   OH281102   3.042   6.266   2.351  0.2186  0.2853  0.0552
19896TIP3    H181103   3.096   6.273   2.272 -0.6061 -1.3535 -0.7068
19896TIP3    H281104   2.961   6.311   2.329  1.2306  2.8595  1.2460
19897TIP3   OH281105   5.284   4.791  17.335  0.0390  0.2098 -0.4629
19897TIP3    H181106   5.351   4.774  17.269  1.5534  0.1299  1.0271
19897TIP3    H281107   5.267   4.885  17.328  0.6130  0.3075 -0.5793
19898TIP3   OH281108   2.608   1.362   3.684 -0.0065 -0.2360 -0.0269
19898TIP3    H181109   2.701   1.344   3.674  0.3314  1.1501  0.4326
19898TIP3    H281110   2.580   1.306   3.756  0.7603  0.2749  0.6740
19899TIP3   OH281111   5.633   1.055   5.567  0.2405 -0.2167 -0.6037
19899TIP3    H181112   5.656   0.971   5.526 -0.0847 -1.3988  1.4535
19899TIP3    H281113   5.538   1.056   5.568  0.2343 -0.4225  0.4507
19900TIP3   OH281114   6.680   4.693   6.309 -0.7698  0.2810  0.2457
19900TIP3    H181115   6.760   4.674   6.359 -0.3170 -0.2274 -0.6394
19900TIP3    H281116   6.648   4.776   6.345  0.5375  0.8450  0.1795
19901TIP3   OH281117   1.207   2.221  14.885  0.5861 -0.0546 -0.0799
19901TIP3    H181118   1.131   2.223  14.827  0.0475  0.6362  0.6290
19901TIP3    H281119   1.216   2.310  14.917  2.4248  0.1614 -1.0393
19902TIP3   OH281120   0.292   3.139   5.702  0.5657 -0.5039 -0.8711
19902TIP3    H181121   0.251   3.079   5.764  1.1209 -1.6342 -1.5725
19902TIP3    H281122   0.240   3.219   5.709  0.8370 -0.4615  1.3139
19903TIP3   OH281123   4.598   3.957   1.110  0.1131  0.2826 -0.3419
19903TIP3    H181124   4.569   3.900   1.182  0.0960  1.1520  0.3586
19903TIP3    H281125   4.519   4.003   1.083  0.0990 -0.1150 -1.0042
19904TIP3   OH281126   2.566   2.938   2.035 -0.2011  0.0658 -0.0665
19904TIP3    H181127   2.555   3.010   2.098  0.8658  1.1127 -1.0096
19904TIP3    H281128   2.478   2.920   2.003 -0.5180  0.8172  0.3508
19905TIP3   OH281129   3.061   5.514  11.564 -0.7755 -0.6410 -0.2958
19905TIP3    H181130   3.121   5.522  11.490 -0.6902  0.6945 -0.1184
19905TIP3    H281131   2.980   5.479  11.526 -0.2409 -1.4033 -0.7365
19906TIP3   OH281132   1.137   0.599   5.177  0.1365  0.2021 -0.0019
19906TIP3    H181133   1.100   0.588   5.089  1.8987 -1.9588 -0.5952
19906TIP3    H281134   1.078   0.549   5.234  0.1658 -0.2217 -0.3354
19907TIP3   OH281135   1.913   0.609   4.467  0.5926  0.2691 -0.2818
19907TIP3    H181136   1.981   0.620   4.401 -0.2891  1.1575 -1.0682
19907TIP3    H281137   1.854   0.683   4.454 -0.8679 -0.8041 -0.0226
19908TIP3   OH281138   6.299   1.394  12.820  0.1615  0.0106 -0.4327
19908TIP3    H181139   6.368   1.459  12.823 -0.7100  0.9523  2.0690
19908TIP3    H281140   6.333   1.320  12.870 -0.6125  0.5598  0.9950
19909TIP3   OH281141   4.877   4.397   0.969 -0.2608 -0.2109 -0.5343
19909TIP3    H181142   4.905   4.395   0.878 -0.2421 -0.1316 -0.5310
19909TIP3    H281143   4.783   4.416   0.966 -0.0946  0.6601 -0.5133
19910TIP3   OH281144   2.217   6.244   4.778 -0.9909 -0.3393 -0.3397
19910TIP3    H181145   2.282   6.178   4.803 -1.7798 -0.4228  1.7462
19910TIP3    H281146   2.269   6.324   4.765 -0.3104 -0.7434 -0.1895
19911TIP3   OH281147   1.950   5.408  16.672  0.1008 -0.1898 -0.3253
19911TIP3    H181148   1.927   5.434  16.583 -2.4821  0.0413  0.3256
19911TIP3    H281149   1.866   5.394  16.715  1.2544  0.3081  2.2794
19912TIP3   OH281150   0.870   6.138  10.769 -0.3798  0.3864 -0.3409
19912TIP3    H181151   0.780   6.122  10.799  0.1394 -0.0342  1.0545
19912TIP3    H281152   0.917   6.165  10.847  0.7261  0.5760 -1.0555
19913TIP3   OH281153   4.500   0.516   6.263  0.3045  0.8882 -0.0201
19913TIP3    H181154   4.472   0.429   6.234  1.0561  0.1018  1.4509
19913TIP3    H281155   4.449   0.532   6.343  1.1502  1.1618  0.4853
19914TIP3   OH281156   4.304   2.908   0.111 -0.3336 -0.1933  0.0427
19914TIP3    H181157   4.224   2.914   0.059  0.0823 -0.0640 -0.5902
19914TIP3    H281158   4.274   2.912   0.202 -0.9295  1.8390 -0.1786
19915TIP3   OH281159   3.682   2.902   6.731  0.0285 -0.5656  0.4525
19915TIP3    H181160   3.766   2.947   6.740 -0.5198  0.5007  0.4158
19915TIP3    H281161   3.651   2.926   6.644 -0.3214 -0.9473  0.4703
19916TIP3   OH281162   3.837   4.288  12.981  0.1421  0.2200  0.1089
19916TIP3    H181163   3.908   4.332  13.027  0.7207 -1.4315  0.8701
19916TIP3    H281164   3.773   4.267  13.048  0.9558 -2.1369  0.2547
19917TIP3   OH281165   2.702   0.177   1.763  0.2282 -0.4383  0.5888
19917TIP3    H181166   2.733   0.254   1.716  0.0245 -0.8003 -0.1612
19917TIP3    H281167   2.619   0.155   1.720 -0.0233 -0.7117  1.2001
19918TIP3   OH281168   3.193   4.442  16.117 -0.0397  0.0565  0.0552
19918TIP3    H181169   3.121   4.496  16.148 -2.2641 -1.6872 -1.7198
19918TIP3    H281170   3.182   4.359  16.162 -0.1512 -0.7572 -1.4023
19919TIP3   OH281171   2.488   6.549  16.122  0.0160  0.3059  0.6525
19919TIP3    H181172   2.476   6.644  16.115 -0.4605  0.1462 -0.9019
19919TIP3    H281173   2.457   6.514  16.039  1.2838 -1.1211  0.7291
19920TIP3   OH281174   4.333   3.127   4.313  0.0694 -0.2560  0.0244
19920TIP3    H181175   4.268   3.061   4.286  0.2240 -0.9667  1.3181
19920TIP3    H281176   4.337   3.187   4.239  0.8455 -2.3770 -1.7924
19921TIP3   OH281177   1.767   3.232  12.455 -0.0024 -0.0419 -0.0432
19921TIP3    H181178   1.790   3.155  12.403 -0.7798 -0.3780  0.1058
19921TIP3    H281179   1.849   3.281  12.462  0.6706 -1.1911  0.4432
19922TIP3   OH281180   1.365   5.239  14.053 -0.2478  0.8483 -0.1627
19922TIP3    H181181   1.362   5.147  14.078  1.8262  0.9970  0.8522
19922TIP3    H281182   1.438   5.245  13.992  0.9260  2.1202  1.3086
19923TIP3   OH281183   6.039   4.771  12.224  0.5668 -0.4055  0.5269
19923TIP3    H181184   5.944   4.769  12.228  0.2435  3.3374 -1.0726
19923TIP3    H281185   6.068   4.734  12.307 -2.1373 -2.9222  0.5134
19924TIP3   OH281186   1.077   2.374  11.877 -0.2246 -0.5500  0.2534
19924TIP3    H181187   1.039   2.423  11.950 -0.1767 -0.3750  0.1616
19924TIP3    H281188   1.171   2.374  11.895 -0.2496 -0.8545  0.4015
19925TIP3   OH281189   3.119   0.612  12.370 -0.1376  0.2085 -0.1897
19925TIP3    H181190   3.136   0.686  12.310 -2.5565  0.3406 -0.8204
19925TIP3    H281191   3.057   0.647  12.433  1.3045 -0.3606  1.6223
19926TIP3   OH281192   1.652   0.104  10.726  0.3631 -0.0603  0.2509
19926TIP3    H181193   1.645   0.047  10.649 -0.1090  0.9678 -0.4836
19926TIP3    H281194   1.732   0.075  10.771 -1.0304 -2.8294  1.1704
19927TIP3   OH281195   0.024   1.062   1.892  0.0288 -0.1159  0.2514
19927TIP3    H181196   0.108   1.109   1.894  0.5740 -1.0316 -0.6063
19927TIP3    H281197  -0.040   1.130   1.869  0.7827  0.2494 -0.8377
19928TIP3   OH281198   2.452   4.994   5.343 -0.7518 -0.4440  0.8860
19928TIP3    H181199   2.369   5.000   5.296 -0.2349 -1.8833 -0.2732
19928TIP3    H281200   2.428   4.992   5.436 -1.9848 -0.5660  0.5748
19929TIP3   OH281201   1.193   0.646  15.604 -0.2512 -0.0846 -0.3585
19929TIP3    H181202   1.204   0.573  15.542 -2.0277 -1.0347  0.3489
19929TIP3    H281203   1.239   0.719  15.564 -1.2399 -0.6901 -2.7679
19930TIP3   OH281204   6.304   1.448  11.937 -0.7950 -0.0109  0.3079
19930TIP3    H181205   6.346   1.472  11.855 -0.2145  1.0851  0.8967
19930TIP3    H281206   6.355   1.373  11.969 -1.2906 -0.7126 -0.5263
19931TIP3   OH281207   1.657   3.014  11.621 -0.1311  0.4465  0.3469
19931TIP3    H181208   1.645   3.043  11.531  1.4289 -0.9971 -0.3757
19931TIP3    H281209   1.579   2.961  11.640 -1.1912  1.9564  0.4175
19932TIP3   OH281210   0.782   6.307  14.369 -0.0346 -0.1592 -0.5626
19932TIP3    H181211   0.809   6.220  14.398 -0.2145  0.0513  0.2809
19932TIP3    H281212   0.862   6.358  14.367  0.7224 -1.1568 -4.4080
19933TIP3   OH281213   4.058   4.522   2.762 -0.7692  0.3705 -0.2290
19933TIP3    H181214   4.016   4.590   2.708 -1.0310  0.1999 -0.2438
19933TIP3    H281215   4.063   4.560   2.849 -1.7440  0.0746 -0.0303
19934TIP3   OH281216   5.994   0.004   1.997  0.6259 -0.2965 -0.2270
19934TIP3    H181217   6.065  -0.011   1.935  0.5683  0.1494 -0.4024
19934TIP3    H281218   5.932   0.060   1.950  0.7866  0.4071  0.3706
19935TIP3   OH281219   1.958   0.097   5.516 -0.0228 -0.1079  0.2572
19935TIP3    H181220   1.936   0.006   5.537 -0.2571 -0.0631  0.2096
19935TIP3    H281221   1.915   0.148   5.584  0.3859 -0.0504  0.4773
19936TIP3   OH281222   4.042   0.014  12.094 -1.0220 -0.2837 -0.0974
19936TIP3    H181223   4.094  -0.063  12.119 -2.5350 -1.3382 -0.0210
19936TIP3    H281224   3.983   0.028  12.168 -0.4209  1.3095  0.1150
19937TIP3   OH281225   0.413   3.274   0.366  0.3475  0.4272  0.0982
19937TIP3    H181226   0.413   3.214   0.441  0.7638  2.0439  1.4690
19937TIP3    H281227   0.505   3.298   0.354  0.0730  1.7787  0.4630
19938TIP3   OH281228   5.731   2.395   1.145 -0.5507  0.5374 -0.1223
19938TIP3    H181229   5.691   2.475   1.110  0.7759  1.1177 -0.3614
19938TIP3    H281230   5.686   2.325   1.098 -0.7936  1.1964 -0.9221
19939TIP3   OH281231   0.284   1.352  13.855 -0.4128  0.1125  0.0617
19939TIP3    H181232   0.292   1.391  13.942 -1.1455 -0.8712  0.5827
19939TIP3    H281233   0.283   1.427  13.795 -0.6728  0.8306  0.9556
19940TIP3   OH281234   0.052   1.589   6.306 -0.0598  0.1421  0.4846
19940TIP3    H181235  -0.034   1.619   6.275 -1.1793 -1.4815  1.8508
19940TIP3    H281236   0.032   1.520   6.369  2.3085 -1.3762 -0.3126
19941TIP3   OH281237   0.290   4.167   2.691 -0.1998 -0.8365 -0.0636
19941TIP3    H181238   0.379   4.143   2.717 -0.1018  0.2762  0.7035
19941TIP3    H281239   0.298   4.191   2.599  0.1517 -1.4064 -0.1876
19942TIP3   OH281240   1.176   3.097   0.031 -0.0448 -0.1405 -0.4453
19942TIP3    H181241   1.189   3.002   0.024 -0.7671 -0.1166 -2.9585
19942TIP3    H281242   1.082   3.110   0.023 -0.2399  0.7254  2.1203
19943TIP3   OH281243   4.045   1.634   5.923 -0.2918 -0.1683 -0.4222
19943TIP3    H181244   4.074   1.640   6.014 -0.1528  3.0841 -0.5875
19943TIP3    H281245   4.125   1.643   5.871 -0.7982  2.7812 -0.8288
19944TIP3   OH281246   2.678   2.109   5.399 -0.5382  0.0600  0.1673
19944TIP3    H181247   2.680   2.204   5.395  0.3053  0.0337 -0.3285
19944TIP3    H281248   2.755   2.081   5.349  0.3272 -0.8441  1.9080
19945TIP3   OH281249   4.813   2.628  17.169 -0.0409 -0.0207  0.1615
19945TIP3    H181250   4.805   2.573  17.247  2.0326  0.7130  0.9620
19945TIP3    H281251   4.891   2.596  17.125  1.1618  2.1495  0.5988
19946TIP3   OH281252   5.192   0.835  15.458 -0.1928  0.4440 -0.0161
19946TIP3    H181253   5.232   0.834  15.371 -1.9886  0.5406 -0.8912
19946TIP3    H281254   5.135   0.912  15.457  0.0782  0.6883  1.4118
19947TIP3   OH281255   2.162   6.098   1.600 -0.1304  0.0281 -0.4386
19947TIP3    H181256   2.178   6.080   1.693  0.1622  0.6314 -0.3664
19947TIP3    H281257   2.230   6.050   1.554  1.6263  2.1102 -0.1641
19948TIP3   OH281258   2.098   4.360  15.776 -0.0985 -0.2929  0.2318
19948TIP3    H181259   2.005   4.362  15.753 -0.0493 -2.4082 -0.3538
19948TIP3    H281260   2.139   4.311  15.705  1.7209  1.6991 -0.1983
19949TIP3   OH281261   5.813   2.762   1.861 -0.5746  0.0735  0.0769
19949TIP3    H181262   5.859   2.785   1.941  0.0514 -0.6876 -0.0516
19949TIP3    H281263   5.761   2.685   1.884 -1.3472  0.5810  0.0660
19950TIP3   OH281264   5.285   3.443  15.615  0.0020 -0.2711 -0.4184
19950TIP3    H181265   5.275   3.391  15.694 -0.2136 -0.5834 -0.6514
19950TIP3    H281266   5.366   3.493  15.629  1.7297 -2.6577 -1.3046
19951TIP3   OH281267   2.526   6.174   4.405  0.1209 -0.1327  0.8780
19951TIP3    H181268   2.602   6.139   4.358 -1.0658 -0.8139 -0.6451
19951TIP3    H281269   2.479   6.096   4.436 -0.2742  0.2530  1.2669
19952TIP3   OH281270   4.595   6.559  15.848 -0.3027  0.3168 -0.2152
19952TIP3    H181271   4.581   6.550  15.754 -1.0085  4.4202 -0.7235
19952TIP3    H281272   4.690   6.563  15.858 -0.1254 -2.2723 -0.3693
19953TIP3   OH281273   1.606   4.147  13.371 -0.4903  0.5545 -0.0633
19953TIP3    H181274   1.646   4.073  13.326 -1.2669  1.1669 -1.8401
19953TIP3    H281275   1.584   4.113  13.458 -0.7168 -1.2522 -0.7839
19954TIP3   OH281276   0.550   4.857   5.202 -0.0062 -0.0076 -0.2029
19954TIP3    H181277   0.540   4.766   5.176  0.9035  0.0580 -0.8439
19954TIP3    H281278   0.524   4.859   5.294 -0.3882 -0.8366 -0.2844
19955TIP3   OH281279   4.417   1.236  12.473  0.1076 -0.2855  0.0501
19955TIP3    H181280   4.503   1.228  12.516  0.0585  2.5835  0.9319
19955TIP3    H281281   4.438   1.252  12.381  0.3305 -2.8069 -0.4127
19956TIP3   OH281282   5.180   1.566   4.236 -0.1440 -0.2911  0.4658
19956TIP3    H181283   5.265   1.525   4.221 -0.0976 -0.1097  0.2245
19956TIP3    H281284   5.197   1.660   4.229 -0.3290 -0.2467  0.5993
19957TIP3   OH281285   2.787   4.037   5.643  0.3204  0.0601  0.1786
19957TIP3    H181286   2.776   4.131   5.657  0.6964  0.1501 -0.1103
19957TIP3    H281287   2.853   4.031   5.574  2.9465 -0.4367  2.4994
19958TIP3   OH281288   5.719   1.591  11.474  0.8159  0.1796  0.1954
19958TIP3    H181289   5.720   1.503  11.436 -0.9856 -0.0215  0.5626
19958TIP3    H281290   5.797   1.633  11.437  1.1076 -1.1935 -0.8475
19959TIP3   OH281291   1.830   1.234   0.625 -0.3292  0.2832  0.2211
19959TIP3    H181292   1.800   1.147   0.648  0.5276  0.2932  1.4895
19959TIP3    H281293   1.882   1.221   0.545  0.5797 -0.5371  0.9174
19960TIP3   OH281294   3.376   5.101   6.236  0.8288 -0.1858 -0.5015
19960TIP3    H181295   3.373   5.006   6.225  0.3390 -0.4121  1.2793
19960TIP3    H281296   3.456   5.117   6.285 -0.3706 -0.0045  1.5286
19961TIP3   OH281297   5.341   2.621   4.617 -0.3930  0.2858 -0.2433
19961TIP3    H181298   5.314   2.674   4.692 -3.0544  0.4830 -1.2298
19961TIP3    H281299   5.426   2.657   4.591 -0.8589  2.2522  0.7945
19962TIP3   OH281300   0.031   3.174   2.786 -0.4378 -0.0512  0.6191
19962TIP3    H181301   0.034   3.269   2.780 -1.4096 -0.0682 -0.4591
19962TIP3    H281302   0.094   3.144   2.721 -0.5788 -0.1561  0.5317
19963TIP3   OH281303   6.357   2.712  16.319  0.7746 -0.1330 -0.1276
19963TIP3    H181304   6.376   2.781  16.255 -0.6363  0.3526 -0.0625
19963TIP3    H281305   6.293   2.656  16.275 -1.1676  0.8928  1.2261
19964TIP3   OH281306   2.174   3.292   3.814  0.2680  0.5006 -0.4553
19964TIP3    H181307   2.232   3.281   3.890 -2.8906  1.6878  2.3866
19964TIP3    H281308   2.140   3.381   3.823 -0.2244  0.6898 -3.3784
19965TIP3   OH281309   6.560   2.903  16.893  0.5236  0.2901 -0.1531
19965TIP3    H181310   6.525   2.841  16.829  1.5104  1.6905 -2.1494
19965TIP3    H281311   6.485   2.960  16.913  0.1081 -0.3848  0.2556
19966TIP3   OH281312   0.565   4.238   3.917 -0.4231  0.2715  0.6224
19966TIP3    H181313   0.510   4.183   3.861 -0.9242 -0.8096  2.1240
19966TIP3    H281314   0.642   4.184   3.936  2.1073  2.2783 -2.6930
19967TIP3   OH281315   5.913   3.096   3.394 -0.6617 -0.2588 -0.0439
19967TIP3    H181316   5.943   3.028   3.334  0.1591 -1.0027  1.1609
19967TIP3    H281317   5.851   3.051   3.452  0.0286 -0.0521  0.8763
19968TIP3   OH281318   0.097   5.010   4.164  0.1749  0.2924  0.1229
19968TIP3    H181319   0.016   4.978   4.124  0.2628  1.6429 -1.2154
19968TIP3    H281320   0.146   4.931   4.186 -0.7456 -0.5159 -0.6480
19969TIP3   OH281321   1.018   5.708   1.985 -0.0835  0.6642 -0.0280
19969TIP3    H181322   1.084   5.649   1.950  0.1023 -0.7624  2.5126
19969TIP3    H281323   0.993   5.763   1.911  1.5144 -0.9740 -1.8757
19970TIP3   OH281324   2.156   5.051  15.394 -0.2152  0.1370 -0.0873
19970TIP3    H181325   2.223   5.077  15.458  0.7045 -1.3731 -0.3995
19970TIP3    H281326   2.073   5.068  15.439  0.3915  0.2430  1.0540
19971TIP3   OH281327   0.367   3.474  13.844  0.5088  0.1087  0.0989
19971TIP3    H181328   0.329   3.523  13.916 -1.3306  0.1038 -0.8201
19971TIP3    H281329   0.460   3.498  13.845 -0.0064  2.3079  0.7224
19972TIP3   OH281330   6.742   2.346  12.598 -0.1669  0.2623 -0.2600
19972TIP3    H181331   6.754   2.365  12.505  1.5717  1.0012  0.0823
19972TIP3    H281332   6.674   2.408  12.626 -1.6886 -0.8646 -1.2755
19973TIP3   OH281333   5.214   2.832   1.829  0.1119 -0.2688  0.3733
19973TIP3    H181334   5.152   2.809   1.898 -2.0519 -0.0676 -1.3955
19973TIP3    H281335   5.209   2.759   1.767  0.2472  0.5856 -0.6779
19974TIP3   OH281336   2.783   1.204  13.922 -0.2033 -0.0623 -0.2610
19974TIP3    H181337   2.832   1.240  13.996 -1.1896 -0.0098  0.3853
19974TIP3    H281338   2.706   1.164  13.962 -0.5950 -0.3085 -1.2418
19975TIP3   OH281339   0.144   2.578  13.260 -0.4294  0.0841  0.3629
19975TIP3    H181340   0.091   2.499  13.246 -0.4242  0.1815 -0.2284
19975TIP3    H281341   0.226   2.545  13.298 -1.9143  0.1556  4.0927
19976TIP3   OH281342   0.224   6.170  13.228  0.0053  0.4475 -0.1569
19976TIP3    H181343   0.302   6.157  13.173 -1.5918  0.0965 -2.4522
19976TIP3    H281344   0.211   6.085  13.269  0.4207  0.3013 -0.3147
19977TIP3   OH281345   1.397   4.946   1.598 -0.0767  0.6193 -0.4226
19977TIP3    H181346   1.382   4.901   1.514 -1.4478  2.1095 -1.0316
19977TIP3    H281347   1.485   4.982   1.590 -0.9721  2.6339 -2.2124
19978TIP3   OH281348   2.162   1.468   6.106  0.4834  0.0066 -0.1076
19978TIP3    H181349   2.100   1.396   6.091  0.0711  0.7361 -2.3297
19978TIP3    H281350   2.125   1.517   6.179  1.8895 -3.1338  2.9897
19979TIP3   OH281351   5.330   0.726  15.223 -0.5996  0.3732 -0.2515
19979TIP3    H181352   5.402   0.778  15.188 -0.9897  1.6688  0.7629
19979TIP3    H281353   5.272   0.711  15.148  0.3976 -0.1310 -0.9353
19980TIP3   OH281354   2.307   2.741  11.187  0.2434  0.3267  0.3202
19980TIP3    H181355   2.257   2.822  11.174 -0.4135 -0.1922 -0.4812
19980TIP3    H281356   2.252   2.673  11.148  2.0446 -0.1273 -1.6282
19981TIP3   OH281357   4.659   1.119  14.103  0.1091 -0.1766  0.0978
19981TIP3    H181358   4.679   1.044  14.159  0.1925  0.6282  1.1626
19981TIP3    H281359   4.690   1.092  14.016  1.3290 -0.8680  0.7188
19982LIG     O181360   3.738   4.312   4.775 -0.0884 -0.2727 -0.0442
19982LIG     O281361   4.196   4.320   4.720  0.4323  0.0305 -0.4296
19982LIG     N181362   4.093   4.115   4.703  0.4995  0.2785 -0.0063
19982LIG     N281363   3.756   4.009   4.726  0.5946 -0.0134 -0.2580
19982LIG     N381364   3.962   4.315   4.727  0.6929 -0.2354 -0.2449
19982LIG     N481365   3.956   3.916   4.695  0.4252  0.7217 -0.0785
19982LIG     C181366   3.843   4.110   4.725 -0.5579  0.0678  0.0091
19982LIG     C281367   3.967   4.050   4.705 -0.3720  0.3631  0.6788
19982LIG     C381368   3.837   4.247   4.748 -0.7354 -0.2418  0.1167
19982LIG     C481369   4.088   4.259   4.711 -0.3008  0.1969 -0.3589
19982LIG     C581370   3.825   3.895   4.715 -0.1583 -0.1511  0.1423
19982LIG     C681371   4.220   4.040   4.715  0.9652  0.0777  0.7019
19982LIG     C781372   3.613   4.023   4.748 -0.0595  0.3183  0.0982
19982LIG     C881373   3.963   4.462   4.738  0.5317  0.2902  0.9107
19982LIG     H181374   3.773   3.800   4.705 -0.2504  0.1411 -3.2175
19982LIG     H281375   4.206   3.932   4.739 -0.4437  0.6278  2.6805
19982LIG     H381376   4.285   4.088   4.790  0.9953 -0.3250  0.9399
19982LIG     H481377   4.276   4.042   4.620  1.7593  0.5802  1.1727
19982LIG     H581378   3.563   3.924   4.746  1.0165 -0.2809  1.2691
19982LIG     H681379   3.574   4.094   4.672 -2.0852 -0.0788  0.7194
19982LIG     H781380   3.591   4.069   4.846 -4.4496  0.0294 -0.5742
19982LIG     H881381   3.987   4.511   4.641  0.2484  0.6779  1.0327
19982LIG     H981382   4.045   4.482   4.810 -2.1060 -0.0135  4.1916
19982LIG    H1081383   3.868   4.503   4.777  0.7637 -1.1582  3.1784
   6.75769   6.75769  17.39573
