;;
;; Generated by CHARMM-GUI (http://www.charmm-gui.org) v1.7
;;
;; psf2itp_mol.py
;;
;; Correspondance:
;; jul316@lehigh.edu or wonpil@lehigh.edu
;;
;; GROMACS topology file for LIG
;;


[ moleculetype ]
; name	nrexcl
LIG	     3

[ atoms ]
; nr	type	resnr	residu	atom	cgnr	charge	mass
     1      SG311      1      LIG      S      1     -0.246    32.0600   ; qtot -0.246
     2       FGA3      1      LIG     F1      2     -0.177    18.9980   ; qtot -0.423
     3       FGA3      1      LIG     F2      3     -0.177    18.9980   ; qtot -0.600
     4       FGA3      1      LIG     F3      4     -0.177    18.9980   ; qtot -0.777
     5      NG301      1      LIG     N1      5     -0.440    14.0070   ; qtot -1.217
     6      NG2S3      1      LIG     N2      6     -0.743    14.0070   ; qtot -1.960
     7      CG321      1      LIG     C1      7      0.043    12.0110   ; qtot -1.917
     8     CG2R61      1      LIG     C2      8      0.194    12.0110   ; qtot -1.723
     9      CG321      1      LIG     C3      9     -0.179    12.0110   ; qtot -1.902
    10     CG2R61      1      LIG     C4     10      0.229    12.0110   ; qtot -1.673
    11     CG2R61      1      LIG     C5     11      0.099    12.0110   ; qtot -1.574
    12     CG2R61      1      LIG     C6     12      0.046    12.0110   ; qtot -1.528
    13     CG2R61      1      LIG     C7     13      0.069    12.0110   ; qtot -1.459
    14      CG321      1      LIG     C8     14     -0.177    12.0110   ; qtot -1.636
    15     CG2R61      1      LIG     C9     15     -0.034    12.0110   ; qtot -1.670
    16     CG2R61      1      LIG    C10     16     -0.325    12.0110   ; qtot -1.995
    17     CG2R61      1      LIG    C11     17     -0.201    12.0110   ; qtot -2.196
    18     CG2R61      1      LIG    C12     18     -0.009    12.0110   ; qtot -2.205
    19     CG2R61      1      LIG    C13     19     -0.108    12.0110   ; qtot -2.313
    20      CG331      1      LIG    C14     20     -0.273    12.0110   ; qtot -2.586
    21     CG2R61      1      LIG    C15     21     -0.099    12.0110   ; qtot -2.685
    22     CG2R61      1      LIG    C16     22     -0.116    12.0110   ; qtot -2.801
    23      CG302      1      LIG    C17     23      0.589    12.0110   ; qtot -2.212
    24       HGA2      1      LIG     H1     24      0.090     1.0080   ; qtot -2.122
    25       HGA2      1      LIG     H2     25      0.090     1.0080   ; qtot -2.032
    26       HGA2      1      LIG     H3     26      0.090     1.0080   ; qtot -1.942
    27       HGA2      1      LIG     H4     27      0.090     1.0080   ; qtot -1.852
    28       HGA2      1      LIG     H5     28      0.090     1.0080   ; qtot -1.762
    29       HGA2      1      LIG     H6     29      0.090     1.0080   ; qtot -1.672
    30      HGR61      1      LIG     H7     30      0.118     1.0080   ; qtot -1.554
    31      HGR61      1      LIG     H8     31      0.115     1.0080   ; qtot -1.439
    32      HGR61      1      LIG     H9     32      0.118     1.0080   ; qtot -1.321
    33      HGR61      1      LIG    H10     33      0.115     1.0080   ; qtot -1.206
    34       HGA3      1      LIG    H11     34      0.090     1.0080   ; qtot -1.116
    35       HGA3      1      LIG    H12     35      0.090     1.0080   ; qtot -1.026
    36       HGA3      1      LIG    H13     36      0.090     1.0080   ; qtot -0.936
    37      HGR61      1      LIG    H14     37      0.115     1.0080   ; qtot -0.821
    38      HGR61      1      LIG    H15     38      0.115     1.0080   ; qtot -0.706
    39       HGP4      1      LIG    H16     39      0.353     1.0080   ; qtot -0.353
    40       HGP4      1      LIG    H17     40      0.353     1.0080   ; qtot -0.000

[ bonds ]
; ai	aj	funct	b0	Kb
    1    11     1
    1    12     1
    2    23     1
    3    23     1
    4    23     1
    5     7     1
    5     8     1
    5    10     1
    6    13     1
    6    39     1
    6    40     1
    7     9     1
    7    24     1
    7    25     1
    8    11     1
    8    13     1
    9    14     1
    9    26     1
    9    27     1
   10    12     1
   10    17     1
   11    15     1
   12    19     1
   13    18     1
   14    20     1
   14    28     1
   14    29     1
   15    16     1
   15    30     1
   16    18     1
   16    23     1
   17    21     1
   17    31     1
   18    32     1
   19    22     1
   19    33     1
   20    34     1
   20    35     1
   20    36     1
   21    22     1
   21    37     1
   22    38     1

[ pairs ]
; ai	aj	funct	c6	c12
    1     5     1 
    1    13     1 
    1    16     1 
    1    17     1 
    1    22     1 
    1    30     1 
    1    33     1 
    2    15     1 
    2    18     1 
    3    15     1 
    3    18     1 
    4    15     1 
    4    18     1 
    5     6     1 
    5    14     1 
    5    15     1 
    5    18     1 
    5    19     1 
    5    21     1 
    5    26     1 
    5    27     1 
    5    31     1 
    6    11     1 
    6    16     1 
    6    32     1 
    7    11     1 
    7    12     1 
    7    13     1 
    7    17     1 
    7    20     1 
    7    28     1 
    7    29     1 
    8     9     1 
    8    12     1 
    8    16     1 
    8    17     1 
    8    24     1 
    8    25     1 
    8    30     1 
    8    32     1 
    8    39     1 
    8    40     1 
    9    10     1 
    9    34     1 
    9    35     1 
    9    36     1 
   10    11     1 
   10    13     1 
   10    22     1 
   10    24     1 
   10    25     1 
   10    33     1 
   10    37     1 
   11    18     1 
   11    19     1 
   11    23     1 
   12    15     1 
   12    21     1 
   12    31     1 
   12    38     1 
   13    15     1 
   13    23     1 
   14    24     1 
   14    25     1 
   15    32     1 
   17    19     1 
   17    38     1 
   18    30     1 
   18    39     1 
   18    40     1 
   19    37     1 
   20    26     1 
   20    27     1 
   21    33     1 
   22    31     1 
   23    30     1 
   23    32     1 
   24    26     1 
   24    27     1 
   25    26     1 
   25    27     1 
   26    28     1 
   26    29     1 
   27    28     1 
   27    29     1 
   28    34     1 
   28    35     1 
   28    36     1 
   29    34     1 
   29    35     1 
   29    36     1 
   31    37     1 
   33    38     1 
   37    38     1 

[ angles ] 
; ai	aj	ak	funct	th0	cth	S0	Kub
   11     1    12     5
    7     5     8     5
    7     5    10     5
    8     5    10     5
   13     6    39     5
   13     6    40     5
   39     6    40     5
    5     7     9     5
    5     7    24     5
    5     7    25     5
    9     7    24     5
    9     7    25     5
   24     7    25     5
    5     8    11     5
    5     8    13     5
   11     8    13     5
    7     9    14     5
    7     9    26     5
    7     9    27     5
   14     9    26     5
   14     9    27     5
   26     9    27     5
    5    10    12     5
    5    10    17     5
   12    10    17     5
    1    11     8     5
    1    11    15     5
    8    11    15     5
    1    12    10     5
    1    12    19     5
   10    12    19     5
    6    13     8     5
    6    13    18     5
    8    13    18     5
    9    14    20     5
    9    14    28     5
    9    14    29     5
   20    14    28     5
   20    14    29     5
   28    14    29     5
   11    15    16     5
   11    15    30     5
   16    15    30     5
   15    16    18     5
   15    16    23     5
   18    16    23     5
   10    17    21     5
   10    17    31     5
   21    17    31     5
   13    18    16     5
   13    18    32     5
   16    18    32     5
   12    19    22     5
   12    19    33     5
   22    19    33     5
   14    20    34     5
   14    20    35     5
   14    20    36     5
   34    20    35     5
   34    20    36     5
   35    20    36     5
   17    21    22     5
   17    21    37     5
   22    21    37     5
   19    22    21     5
   19    22    38     5
   21    22    38     5
    2    23     3     5
    2    23     4     5
    2    23    16     5
    3    23     4     5
    3    23    16     5
    4    23    16     5

[ dihedrals ]
; ai	aj	ak	al	funct	phi0	cp	mult
   12     1    11    15     9
   11     1    12    19     9
    8     5     7     9     9
    8     5     7    24     9
    8     5     7    25     9
   10     5     7    24     9
   10     5     7    25     9
    7     5     8    11     9
    7     5     8    13     9
   10     5     8    11     9
   10     5     8    13     9
    7     5    10    12     9
    7     5    10    17     9
    8     5    10    12     9
    8     5    10    17     9
    9     7     5    10     9
    5     7     9    14     9
    5     7     9    26     9
    5     7     9    27     9
   24     7     9    26     9
   24     7     9    27     9
   25     7     9    26     9
   25     7     9    27     9
    5     8    11    15     9
   13     8    11    15     9
    5     8    13     6     9
    5     8    13    18     9
   11     8    13    18     9
   14     9     7    24     9
   14     9     7    25     9
    7     9    14    20     9
    7     9    14    28     9
    7     9    14    29     9
   26     9    14    28     9
   26     9    14    29     9
   27     9    14    28     9
   27     9    14    29     9
    5    10    12    19     9
   17    10    12    19     9
    5    10    17    21     9
    5    10    17    31     9
   12    10    17    21     9
   12    10    17    31     9
    8    11     1    12     9
    1    11     8     5     9
    1    11     8    13     9
    1    11    15    16     9
    1    11    15    30     9
    8    11    15    16     9
    8    11    15    30     9
   10    12     1    11     9
    1    12    10     5     9
    1    12    10    17     9
    1    12    19    22     9
    1    12    19    33     9
   10    12    19    22     9
   10    12    19    33     9
    8    13     6    39     9
    8    13     6    40     9
   18    13     6    39     9
   18    13     6    40     9
    6    13     8    11     9
    6    13    18    16     9
    6    13    18    32     9
    8    13    18    16     9
    8    13    18    32     9
   20    14     9    26     9
   20    14     9    27     9
    9    14    20    34     9
    9    14    20    35     9
    9    14    20    36     9
   28    14    20    34     9
   28    14    20    35     9
   28    14    20    36     9
   29    14    20    34     9
   29    14    20    35     9
   29    14    20    36     9
   11    15    16    18     9
   11    15    16    23     9
   18    16    15    30     9
   23    16    15    30     9
   15    16    18    32     9
   23    16    18    32     9
   10    17    21    22     9
   10    17    21    37     9
   31    17    21    37     9
   13    18    16    15     9
   13    18    16    23     9
   12    19    22    21     9
   12    19    22    38     9
   33    19    22    38     9
   22    21    17    31     9
   17    21    22    19     9
   17    21    22    38     9
   37    21    22    38     9
   21    22    19    33     9
   19    22    21    37     9
    2    23    16    15     9
    2    23    16    18     9
    3    23    16    15     9
    3    23    16    18     9
    4    23    16    15     9
    4    23    16    18     9

[ dihedrals ]
; ai	aj	ak	al	funct	q0	cq
    6    40    39    13     2
