* GENERATED BY CHARMM-GUI (HTTP://WWW.CHARMM-GUI.ORG) V3.7 ON OCT, 22. 2024. JOB
* GENERATES ION CONFORMATION USING MONTE-CARLO SIMULATION
*  DATE:    10/22/24     11:28:11      CREATED BY USER: apache
*
        58  EXT
         1         1  SOD       SOD            -7.4373782300       35.0572714000      -31.8702763000  IONS      1               1.0000000000
         2         2  SOD       SOD            34.5450067000       -0.0678015840      -31.9406282000  IONS      2               1.0000000000
         3         3  SOD       SOD           -13.9634341000        9.0964283600       41.8318075000  IONS      3               1.0000000000
         4         4  SOD       SOD           -27.7331738000       36.3237964000       28.7506227000  IONS      4               1.0000000000
         5         5  SOD       SOD           -29.2778593000       22.2444842000       35.9520526000  IONS      5               1.0000000000
         6         6  SOD       SOD            -1.2839774107      -35.5510335272       32.9747957852  IONS      6               1.0000000000
         7         7  SOD       SOD            15.9963642000      -31.8225003000       28.4569899000  IONS      7               1.0000000000
         8         8  SOD       SOD            13.4733518712       28.4665706974      -33.1117843922  IONS      8               1.0000000000
         9         9  SOD       SOD            -6.3278547200      -23.9510870000      -30.9408157000  IONS      9               1.0000000000
        10        10  SOD       SOD            36.3920105000       20.4569042000      -35.7035423000  IONS      10              1.0000000000
        11        11  SOD       SOD            27.3152314000      -32.9643222000       24.0264681000  IONS      11              1.0000000000
        12        12  SOD       SOD            -4.6840810100      -24.8489498000       39.1602160000  IONS      12              1.0000000000
        13        13  SOD       SOD            10.4252565000       -5.1667550800       40.5521733000  IONS      13              1.0000000000
        14        14  SOD       SOD            22.1531961000        2.3965585900       40.8697547000  IONS      14              1.0000000000
        15        15  SOD       SOD            28.0814367000       -2.2218387200      -40.3227164000  IONS      15              1.0000000000
        16        16  SOD       SOD           -25.6737635000      -20.8904543000       37.2632108000  IONS      16              1.0000000000
        17        17  SOD       SOD            33.2182994000      -11.5143717000      -38.7653675000  IONS      17              1.0000000000
        18        18  SOD       SOD            21.6279343000       34.3892207000       30.0467772000  IONS      18              1.0000000000
        19        19  SOD       SOD           -36.0956967000       21.1482443000       35.1066904000  IONS      19              1.0000000000
        20        20  SOD       SOD             1.4307105900      -36.3433418000       42.2397693000  IONS      20              1.0000000000
        21        21  SOD       SOD            24.3602518000      -14.1063726000      -42.0478398000  IONS      21              1.0000000000
        22        22  SOD       SOD             2.8693232668      -17.0918513012      -33.2875613298  IONS      22              1.0000000000
        23        23  SOD       SOD            -6.0809538300        7.5440294200       41.2205568000  IONS      23              1.0000000000
        24        24  SOD       SOD             2.7430026300      -13.9098248000       25.8309938000  IONS      24              1.0000000000
        25        25  SOD       SOD           -33.6156734953      -28.8655901770       41.1353247203  IONS      25              1.0000000000
        26        26  SOD       SOD            27.0618073000      -19.5526976000      -42.2691866000  IONS      26              1.0000000000
        27        27  SOD       SOD             2.2878238485      -31.6432841687      -41.5990536235  IONS      27              1.0000000000
        28        28  SOD       SOD           -25.4659387000      -16.5135560000       37.1939857000  IONS      28              1.0000000000
        29        29  SOD       SOD            -7.2662986720        3.0168933955      -37.9670813123  IONS      29              1.0000000000
        30        30  SOD       SOD            -2.6801740400       25.4117047000       35.2108454000  IONS      30              1.0000000000
        31        31  SOD       SOD            15.8708603000       11.4487691000      -38.6617565000  IONS      31              1.0000000000
        32        32  SOD       SOD            -8.6827668000      -10.6074176000       35.1679641000  IONS      32              1.0000000000
        33        33  SOD       SOD            -2.1088294099      -34.9263513014       42.4736883075  IONS      33              1.0000000000
        34        34  SOD       SOD            19.2972141000      -14.3661940000      -27.9621145000  IONS      34              1.0000000000
        35        35  SOD       SOD            36.4027428000      -36.1685290000       41.5207215000  IONS      35              1.0000000000
        36        36  SOD       SOD           -14.9082366000        7.3820984500       26.6047980000  IONS      36              1.0000000000
        37        37  SOD       SOD            22.6208294884      -36.0695442256      -26.2418082988  IONS      37              1.0000000000
        38        38  SOD       SOD           -27.3707367000      -29.8445416000      -33.8685303000  IONS      38              1.0000000000
        39        39  SOD       SOD             5.8442066628      -11.5186592518       35.6387737969  IONS      39              1.0000000000
        40        40  SOD       SOD            -7.0082646700        2.7382477200       30.2029093000  IONS      40              1.0000000000
        41        41  SOD       SOD           -31.0015548000        2.6048803900      -37.0844332000  IONS      41              1.0000000000
        42        42  CLA       CLA           -30.5103737000       12.4987632000       27.9106985000  IONS      42             -1.0000000000
        43        43  CLA       CLA            18.2983122000      -21.2085052000      -37.6870770000  IONS      43             -1.0000000000
        44        44  CLA       CLA           -36.2456117215       28.8822289091      -34.2037477324  IONS      44             -1.0000000000
        45        45  CLA       CLA           -22.9660195000       34.7927972000       31.5121861000  IONS      45             -1.0000000000
        46        46  CLA       CLA           -30.5782529000      -36.3039215000      -35.2405776000  IONS      46             -1.0000000000
        47        47  CLA       CLA           -19.9596274000       11.4927833000      -27.6405528000  IONS      47             -1.0000000000
        48        48  CLA       CLA             4.2226221700       30.3319606000      -27.8925675000  IONS      48             -1.0000000000
        49        49  CLA       CLA            18.1742723007       28.0968485915       38.0150619391  IONS      49             -1.0000000000
        50        50  CLA       CLA           -15.4136793000       -1.2167160400      -37.0571131000  IONS      50             -1.0000000000
        51        51  CLA       CLA           -14.1113512165      -30.5415068671       42.4593998210  IONS      51             -1.0000000000
        52        52  CLA       CLA            -8.2994658600       10.6109637000       22.5850207000  IONS      52             -1.0000000000
        53        53  CLA       CLA           -35.4994014000      -34.7545569000      -18.9313216000  IONS      53             -1.0000000000
        54        54  CLA       CLA            14.0873613913       11.7472036955       38.3081103980  IONS      54             -1.0000000000
        55        55  CLA       CLA           -15.8609342000      -31.8901802000       24.4378767000  IONS      55             -1.0000000000
        56        56  CLA       CLA            -5.8580723100      -30.4673972000      -29.8966009000  IONS      56             -1.0000000000
        57        57  CLA       CLA           -26.0326629000      -19.9157622000      -35.7442665000  IONS      57             -1.0000000000
        58        58  CLA       CLA           -13.2473403872       -9.8864645569       32.4983177990  IONS      58             -1.0000000000
